 Q-Chem 5.4, Q-Chem, Inc., Pleasanton, CA (2021)
 Q-Chem 5.4.0 for Intel X86 EM64T Linux

User input:
--------------------------------------------------------------
$molecule
0 1
C	-0.050619	-0.397395	-0.213418
S	0.018281	0.392805	1.367082
C	0.160981	2.024305	0.691482
C	0.036181	0.596805	-1.198818
C	0.151181	1.912005	-0.706918
H	0.015681	0.362105	-2.273318
H	0.227881	2.789605	-1.366018
C	-0.050619	-1.875595	-0.213418
H	0.964381	-1.876195	-0.582318
H	0.286781	-2.314895	0.713682
H	-0.328819	-2.586595	-0.977318
H	0.237681	2.901605	1.342582
$end

$rem
JOBTYPE		SP
EXCHANGE	HF
CORRELATION	pRIMP2
BASIS		cc-pvtz
METHOD		rimp2
AUX_BASIS	rimp2-cc-pvtz
SOLVENT_METHOD	PCM
PURECART	11111
SYMMETRY	false
MEM_TOTAL	110000
SCF_CONVERGENCE = 6
THRESH=10
GUI = 2
$end

$solvent
dielectric 4.90
$end
--------------------------------------------------------------

             Standard Nuclear Orientation (Angstroms)
    I     Atom           X                Y                Z
 ----------------------------------------------------------------
    1      C      -0.0506190000    -0.3973950000    -0.2134180000
    2      S       0.0182810000     0.3928050000     1.3670820000
    3      C       0.1609810000     2.0243050000     0.6914820000
    4      C       0.0361810000     0.5968050000    -1.1988180000
    5      C       0.1511810000     1.9120050000    -0.7069180000
    6      H       0.0156810000     0.3621050000    -2.2733180000
    7      H       0.2278810000     2.7896050000    -1.3660180000
    8      C      -0.0506190000    -1.8755950000    -0.2134180000
    9      H       0.9643810000    -1.8761950000    -0.5823180000
   10      H       0.2867810000    -2.3148950000     0.7136820000
   11      H      -0.3288190000    -2.5865950000    -0.9773180000
   12      H       0.2376810000     2.9016050000     1.3425820000
 ----------------------------------------------------------------

   10    -590.3739466787      6.35e-07  Convergence criterion met
 Total energy in the final basis set =     -590.3739466787
        RIMP2         total energy =      -591.3742174484 a.u.

                    Orbital Energies (a.u.)
 --------------------------------------------------------------

 Alpha MOs
 -- Occupied --
-91.9794 -11.2918 -11.2618 -11.2430 -11.2307 -11.2281  -8.9791  -6.6600
 -6.6595  -6.6589  -1.1569  -1.0405  -0.9713  -0.9194  -0.7543  -0.7224
 -0.6715  -0.5974  -0.5657  -0.5545  -0.5451  -0.4974  -0.4743  -0.4555
 -0.3463  -0.2987

          Ground-State Mulliken Net Atomic Charges

     Atom                 Charge (a.u.)
  ----------------------------------------
      1 C                     0.032120
      2 S                     0.001921
      3 C                    -0.250913
      4 C                    -0.243953
      5 C                    -0.186734
      6 H                     0.179551
      7 H                     0.185515
      8 C                    -0.364499
      9 H                     0.141677
     10 H                     0.137276
     11 H                     0.164401
     12 H                     0.203638
  ----------------------------------------
  Sum of atomic charges =     0.000000

                    Cartesian Multipole Moments
 -----------------------------------------------------------------
    Charge (ESU x 10^10)
                -0.0000
    Dipole Moment (Debye)
         X       0.7908      Y      -0.8441      Z      -1.2928
       Tot       1.7347
    Quadrupole Moments (Debye-Ang)
        XX     -48.2208     XY      -0.5748     YY     -36.0264
        XZ       0.1092     YZ       1.5401     ZZ     -41.6805

 Total job time:  10.07s(wall), 537.88s(cpu)
        *  Thank you very much for using Q-Chem.  Have a nice day.  *
