 Q-Chem 5.4, Q-Chem, Inc., Pleasanton, CA (2021)
 Q-Chem 5.4.0 for Intel X86 EM64T Linux

User input:
--------------------------------------------------------------
$molecule
0 1
C	-0.004743	-0.399361	-0.211595
S	-0.004943	0.393839	1.368905
C	-0.004943	2.031539	0.693305
C	-0.004943	0.598639	-1.196995
C	-0.005043	1.918839	-0.705095
H	-0.004843	0.362939	-2.271495
H	-0.005043	2.799839	-1.364195
C	-0.004743	-1.877561	-0.211595
H	0.822957	-1.878161	-0.905395
H	0.629457	-2.316861	0.544205
H	-0.527443	-2.588561	-0.834295
H	-0.005043	2.912239	1.344405
$end

$rem
JOBTYPE		SP
EXCHANGE	HF
CORRELATION	pRIMP2
BASIS		cc-pvtz
METHOD		rimp2
AUX_BASIS	rimp2-cc-pvtz
SOLVENT_METHOD	PCM
PURECART	11111
SYMMETRY	false
MEM_TOTAL	110000
SCF_CONVERGENCE = 6
THRESH=10
GUI = 2
$end

$solvent
dielectric 4.90
$end
--------------------------------------------------------------

             Standard Nuclear Orientation (Angstroms)
    I     Atom           X                Y                Z
 ----------------------------------------------------------------
    1      C      -0.0047430000    -0.3993610000    -0.2115950000
    2      S      -0.0049430000     0.3938390000     1.3689050000
    3      C      -0.0049430000     2.0315390000     0.6933050000
    4      C      -0.0049430000     0.5986390000    -1.1969950000
    5      C      -0.0050430000     1.9188390000    -0.7050950000
    6      H      -0.0048430000     0.3629390000    -2.2714950000
    7      H      -0.0050430000     2.7998390000    -1.3641950000
    8      C      -0.0047430000    -1.8775610000    -0.2115950000
    9      H       0.8229570000    -1.8781610000    -0.9053950000
   10      H       0.6294570000    -2.3168610000     0.5442050000
   11      H      -0.5274430000    -2.5885610000    -0.8342950000
   12      H      -0.0050430000     2.9122390000     1.3444050000
 ----------------------------------------------------------------

   10    -590.3734425095      6.00e-07  Convergence criterion met
 Total energy in the final basis set =     -590.3734425095
        RIMP2         total energy =      -591.3746593006 a.u.

                    Orbital Energies (a.u.)
 --------------------------------------------------------------

 Alpha MOs
 -- Occupied --
-91.9780 -11.2892 -11.2641 -11.2430 -11.2344 -11.2259  -8.9778  -6.6587
 -6.6581  -6.6576  -1.1567  -1.0393  -0.9718  -0.9195  -0.7541  -0.7231
 -0.6719  -0.5972  -0.5667  -0.5563  -0.5432  -0.4996  -0.4695  -0.4502
 -0.3456  -0.3029

          Ground-State Mulliken Net Atomic Charges

     Atom                 Charge (a.u.)
  ----------------------------------------
      1 C                     0.037196
      2 S                    -0.001900
      3 C                    -0.243402
      4 C                    -0.240726
      5 C                    -0.188261
      6 H                     0.181566
      7 H                     0.185489
      8 C                    -0.361911
      9 H                     0.132508
     10 H                     0.138985
     11 H                     0.157092
     12 H                     0.203364
  ----------------------------------------
  Sum of atomic charges =     0.000000

                    Cartesian Multipole Moments
 -----------------------------------------------------------------
    Charge (ESU x 10^10)
                -0.0000
    Dipole Moment (Debye)
         X       0.5646      Y      -0.6463      Z      -1.5219
       Tot       1.7472
    Quadrupole Moments (Debye-Ang)
        XX     -47.9725     XY      -1.0510     YY     -36.0277
        XZ       0.2487     YZ       1.8791     ZZ     -41.7642

 Total job time:  10.10s(wall), 539.05s(cpu)
        *  Thank you very much for using Q-Chem.  Have a nice day.  *
