 Q-Chem 5.4, Q-Chem, Inc., Pleasanton, CA (2021)
 Q-Chem 5.4.0 for Intel X86 EM64T Linux

User input:
--------------------------------------------------------------
$molecule
0 1
C	-0.454481	-0.140188	-0.213418
S	0.232319	0.256612	1.367082
C	1.650619	1.075412	0.691482
C	0.409719	0.358912	-1.198818
C	1.553019	1.019112	-0.706918
H	0.205619	0.241112	-2.273318
H	2.315919	1.459712	-1.366018
C	-0.454481	-1.618388	-0.213418
H	0.560519	-1.618988	-0.582318
H	-0.117081	-2.057688	0.713682
H	-0.732681	-2.329388	-0.977318
H	2.413219	1.515912	1.342582
$end

$rem
JOBTYPE		SP
EXCHANGE	HF
CORRELATION	pRIMP2
BASIS		cc-pvtz
METHOD		rimp2
AUX_BASIS	rimp2-cc-pvtz
SOLVENT_METHOD	PCM
PURECART	11111
SYMMETRY	false
MEM_TOTAL	110000
SCF_CONVERGENCE = 6
THRESH=10
GUI = 2
$end

$solvent
dielectric 4.90
$end
--------------------------------------------------------------

             Standard Nuclear Orientation (Angstroms)
    I     Atom           X                Y                Z
 ----------------------------------------------------------------
    1      C      -0.4544810000    -0.1401880000    -0.2134180000
    2      S       0.2323190000     0.2566120000     1.3670820000
    3      C       1.6506190000     1.0754120000     0.6914820000
    4      C       0.4097190000     0.3589120000    -1.1988180000
    5      C       1.5530190000     1.0191120000    -0.7069180000
    6      H       0.2056190000     0.2411120000    -2.2733180000
    7      H       2.3159190000     1.4597120000    -1.3660180000
    8      C      -0.4544810000    -1.6183880000    -0.2134180000
    9      H       0.5605190000    -1.6189880000    -0.5823180000
   10      H      -0.1170810000    -2.0576880000     0.7136820000
   11      H      -0.7326810000    -2.3293880000    -0.9773180000
   12      H       2.4132190000     1.5159120000     1.3425820000
 ----------------------------------------------------------------

   11    -590.2954934557      8.16e-07  Convergence criterion met
 Total energy in the final basis set =     -590.2954934557
        RIMP2         total energy =      -591.3122753335 a.u.

                    Orbital Energies (a.u.)
 --------------------------------------------------------------

 Alpha MOs
 -- Occupied --
-91.9800 -11.2896 -11.2600 -11.2502 -11.2458 -11.2156  -8.9804  -6.6611
 -6.6603  -6.6601  -1.1737  -1.0395  -0.9808  -0.9036  -0.7650  -0.7295
 -0.6739  -0.5968  -0.5687  -0.5640  -0.5377  -0.4854  -0.4608  -0.4535
 -0.3432  -0.2956

          Ground-State Mulliken Net Atomic Charges

     Atom                 Charge (a.u.)
  ----------------------------------------
      1 C                    -0.120359
      2 S                     0.026775
      3 C                    -0.172779
      4 C                    -0.086834
      5 C                    -0.246950
      6 H                     0.185151
      7 H                     0.187094
      8 C                    -0.354626
      9 H                     0.116145
     10 H                     0.124687
     11 H                     0.132599
     12 H                     0.209098
  ----------------------------------------
  Sum of atomic charges =     0.000000

                    Cartesian Multipole Moments
 -----------------------------------------------------------------
    Charge (ESU x 10^10)
                 0.0000
    Dipole Moment (Debye)
         X       2.6747      Y      -0.2339      Z      -1.1730
       Tot       2.9300
    Quadrupole Moments (Debye-Ang)
        XX     -42.2810     XY       3.6739     YY     -43.9834
        XZ       0.8915     YZ       1.1545     ZZ     -40.5411

 Total job time:  12.47s(wall), 650.79s(cpu)
        *  Thank you very much for using Q-Chem.  Have a nice day.  *
