 Q-Chem 5.4, Q-Chem, Inc., Pleasanton, CA (2021)
 Q-Chem 5.4.0 for Intel X86 EM64T Linux

User input:
--------------------------------------------------------------
$molecule
0 1
C	-0.045021	-0.397395	-0.208858
S	0.023879	0.392805	1.371642
C	0.166579	2.024305	0.696042
C	0.041779	0.596805	-1.194258
C	0.156779	1.912005	-0.702358
H	0.021279	0.362105	-2.268758
H	0.233479	2.789605	-1.361458
C	-0.045021	-1.875595	-0.208858
H	-0.232021	-1.876195	-1.272558
H	0.926579	-2.314895	-0.380158
H	-0.845621	-2.586595	-0.067558
H	0.243279	2.901605	1.347142
$end

$rem
JOBTYPE		SP
EXCHANGE	HF
CORRELATION	pRIMP2
BASIS		cc-pvtz
METHOD		rimp2
AUX_BASIS	rimp2-cc-pvtz
SOLVENT_METHOD	PCM
PURECART	11111
SYMMETRY	false
MEM_TOTAL	110000
SCF_CONVERGENCE = 6
THRESH=10
GUI = 2
$end

$solvent
dielectric 4.90
$end
--------------------------------------------------------------

             Standard Nuclear Orientation (Angstroms)
    I     Atom           X                Y                Z
 ----------------------------------------------------------------
    1      C      -0.0450210000    -0.3973950000    -0.2088580000
    2      S       0.0238790000     0.3928050000     1.3716420000
    3      C       0.1665790000     2.0243050000     0.6960420000
    4      C       0.0417790000     0.5968050000    -1.1942580000
    5      C       0.1567790000     1.9120050000    -0.7023580000
    6      H       0.0212790000     0.3621050000    -2.2687580000
    7      H       0.2334790000     2.7896050000    -1.3614580000
    8      C      -0.0450210000    -1.8755950000    -0.2088580000
    9      H      -0.2320210000    -1.8761950000    -1.2725580000
   10      H       0.9265790000    -2.3148950000    -0.3801580000
   11      H      -0.8456210000    -2.5865950000    -0.0675580000
   12      H       0.2432790000     2.9016050000     1.3471420000
 ----------------------------------------------------------------

   10    -590.3733872150      5.77e-07  Convergence criterion met
 Total energy in the final basis set =     -590.3733872150
        RIMP2         total energy =      -591.3755524578 a.u.

                    Orbital Energies (a.u.)
 --------------------------------------------------------------

 Alpha MOs
 -- Occupied --
-91.9747 -11.2856 -11.2685 -11.2430 -11.2410 -11.2238  -8.9748  -6.6557
 -6.6551  -6.6546  -1.1570  -1.0381  -0.9728  -0.9193  -0.7544  -0.7243
 -0.6725  -0.5976  -0.5706  -0.5604  -0.5393  -0.5003  -0.4674  -0.4368
 -0.3450  -0.3123

          Ground-State Mulliken Net Atomic Charges

     Atom                 Charge (a.u.)
  ----------------------------------------
      1 C                     0.034287
      2 S                    -0.008238
      3 C                    -0.229097
      4 C                    -0.222297
      5 C                    -0.200964
      6 H                     0.183350
      7 H                     0.186716
      8 C                    -0.356167
      9 H                     0.118329
     10 H                     0.128997
     11 H                     0.160914
     12 H                     0.204170
  ----------------------------------------
  Sum of atomic charges =     0.000000

                    Cartesian Multipole Moments
 -----------------------------------------------------------------
    Charge (ESU x 10^10)
                -0.0000
    Dipole Moment (Debye)
         X       0.0141      Y      -0.3545      Z      -1.7836
       Tot       1.8186
    Quadrupole Moments (Debye-Ang)
        XX     -47.3985     XY       1.2486     YY     -36.0508
        XZ      -0.0375     YZ       2.0646     ZZ     -42.1232

 Total job time:  10.69s(wall), 559.74s(cpu)
        *  Thank you very much for using Q-Chem.  Have a nice day.  *
