 Q-Chem 5.4, Q-Chem, Inc., Pleasanton, CA (2021)
 Q-Chem 5.4.0 for Intel X86 EM64T Linux

User input:
--------------------------------------------------------------
$molecule
0 1
C	-0.182559	-0.368118	-0.216317
S	0.088541	0.377282	1.364183
C	0.648641	1.916282	0.688583
C	0.158641	0.569782	-1.201717
C	0.610041	1.810382	-0.709817
H	0.078041	0.348282	-2.276217
H	0.911341	2.638182	-1.368917
C	-0.182559	-1.846318	-0.216317
H	0.880941	-1.846918	-0.028217
H	-0.353959	-2.285618	0.755283
H	-0.041559	-2.557318	-1.017017
H	0.949741	2.743882	1.339683
$end

$rem
JOBTYPE		SP
EXCHANGE	HF
CORRELATION	pRIMP2
BASIS		cc-pvtz
METHOD		rimp2
AUX_BASIS	rimp2-cc-pvtz
SOLVENT_METHOD	PCM
PURECART	11111
SYMMETRY	false
MEM_TOTAL	110000
SCF_CONVERGENCE = 6
THRESH=10
GUI = 2
$end

$solvent
dielectric 4.90
$end
--------------------------------------------------------------

             Standard Nuclear Orientation (Angstroms)
    I     Atom           X                Y                Z
 ----------------------------------------------------------------
    1      C      -0.1825590000    -0.3681180000    -0.2163170000
    2      S       0.0885410000     0.3772820000     1.3641830000
    3      C       0.6486410000     1.9162820000     0.6885830000
    4      C       0.1586410000     0.5697820000    -1.2017170000
    5      C       0.6100410000     1.8103820000    -0.7098170000
    6      H       0.0780410000     0.3482820000    -2.2762170000
    7      H       0.9113410000     2.6381820000    -1.3689170000
    8      C      -0.1825590000    -1.8463180000    -0.2163170000
    9      H       0.8809410000    -1.8469180000    -0.0282170000
   10      H      -0.3539590000    -2.2856180000     0.7552830000
   11      H      -0.0415590000    -2.5573180000    -1.0170170000
   12      H       0.9497410000     2.7438820000     1.3396830000
 ----------------------------------------------------------------

   10    -590.3687695148      6.55e-07  Convergence criterion met
 Total energy in the final basis set =     -590.3687695148
        RIMP2         total energy =      -591.3695595801 a.u.

                    Orbital Energies (a.u.)
 --------------------------------------------------------------

 Alpha MOs
 -- Occupied --
-91.9785 -11.2903 -11.2644 -11.2431 -11.2311 -11.2286  -8.9785  -6.6594
 -6.6590  -6.6583  -1.1589  -1.0410  -0.9717  -0.9177  -0.7558  -0.7220
 -0.6715  -0.5968  -0.5667  -0.5591  -0.5377  -0.4982  -0.4765  -0.4566
 -0.3472  -0.2975

          Ground-State Mulliken Net Atomic Charges

     Atom                 Charge (a.u.)
  ----------------------------------------
      1 C                     0.026668
      2 S                    -0.002616
      3 C                    -0.249013
      4 C                    -0.254288
      5 C                    -0.177690
      6 H                     0.180197
      7 H                     0.186456
      8 C                    -0.358869
      9 H                     0.146466
     10 H                     0.132684
     11 H                     0.165490
     12 H                     0.204515
  ----------------------------------------
  Sum of atomic charges =     0.000000

                    Cartesian Multipole Moments
 -----------------------------------------------------------------
    Charge (ESU x 10^10)
                -0.0000
    Dipole Moment (Debye)
         X       1.0945      Y      -0.8040      Z      -0.9435
       Tot       1.6536
    Quadrupole Moments (Debye-Ang)
        XX     -47.5185     XY       1.5028     YY     -36.9845
        XZ      -0.1202     YZ       0.8403     ZZ     -41.8081

 Total job time:  11.27s(wall), 546.88s(cpu)
        *  Thank you very much for using Q-Chem.  Have a nice day.  *
