 Q-Chem 5.4, Q-Chem, Inc., Pleasanton, CA (2021)
 Q-Chem 5.4.0 for Intel X86 EM64T Linux

User input:
--------------------------------------------------------------
$molecule
0 1
C	-0.218143	-0.350804	-0.220018
S	0.116857	0.368096	1.360482
C	0.808957	1.852396	0.684882
C	0.203457	0.553796	-1.205418
C	0.761357	1.750296	-0.713518
H	0.103857	0.340196	-2.279918
H	1.133557	2.548796	-1.372618
C	-0.218143	-1.829004	-0.220018
H	-0.218643	-1.829604	0.859982
H	-1.204743	-2.268304	-0.220018
H	0.594857	-2.540004	-0.220118
H	1.181057	2.650596	1.335982
$end

$rem
JOBTYPE		SP
EXCHANGE	HF
CORRELATION	pRIMP2
BASIS		cc-pvtz
METHOD		rimp2
AUX_BASIS	rimp2-cc-pvtz
SOLVENT_METHOD	PCM
PURECART	11111
SYMMETRY	false
MEM_TOTAL	110000
SCF_CONVERGENCE = 6
THRESH=10
GUI = 2
$end

$solvent
dielectric 4.90
$end
--------------------------------------------------------------

             Standard Nuclear Orientation (Angstroms)
    I     Atom           X                Y                Z
 ----------------------------------------------------------------
    1      C      -0.2181430000    -0.3508040000    -0.2200180000
    2      S       0.1168570000     0.3680960000     1.3604820000
    3      C       0.8089570000     1.8523960000     0.6848820000
    4      C       0.2034570000     0.5537960000    -1.2054180000
    5      C       0.7613570000     1.7502960000    -0.7135180000
    6      H       0.1038570000     0.3401960000    -2.2799180000
    7      H       1.1335570000     2.5487960000    -1.3726180000
    8      C      -0.2181430000    -1.8290040000    -0.2200180000
    9      H      -0.2186430000    -1.8296040000     0.8599820000
   10      H      -1.2047430000    -2.2683040000    -0.2200180000
   11      H       0.5948570000    -2.5400040000    -0.2201180000
   12      H       1.1810570000     2.6505960000     1.3359820000
 ----------------------------------------------------------------

   10    -590.3562182667      6.71e-07  Convergence criterion met
 Total energy in the final basis set =     -590.3562182667
        RIMP2         total energy =      -591.3612440077 a.u.

                    Orbital Energies (a.u.)
 --------------------------------------------------------------

 Alpha MOs
 -- Occupied --
-91.9797 -11.2760 -11.2739 -11.2432 -11.2401 -11.2204  -8.9798  -6.6606
 -6.6600  -6.6594  -1.1596  -1.0387  -0.9744  -0.9160  -0.7605  -0.7210
 -0.6717  -0.5946  -0.5699  -0.5626  -0.5383  -0.4923  -0.4622  -0.4468
 -0.3454  -0.3126

          Ground-State Mulliken Net Atomic Charges

     Atom                 Charge (a.u.)
  ----------------------------------------
      1 C                    -0.003590
      2 S                    -0.003096
      3 C                    -0.223583
      4 C                    -0.208651
      5 C                    -0.188619
      6 H                     0.184409
      7 H                     0.186351
      8 C                    -0.340469
      9 H                     0.111683
     10 H                     0.122740
     11 H                     0.156086
     12 H                     0.206738
  ----------------------------------------
  Sum of atomic charges =     0.000000

                    Cartesian Multipole Moments
 -----------------------------------------------------------------
    Charge (ESU x 10^10)
                -0.0000
    Dipole Moment (Debye)
         X       0.6988      Y      -0.0193      Z      -0.4603
       Tot       0.8370
    Quadrupole Moments (Debye-Ang)
        XX     -45.9208     XY       3.2763     YY     -37.9235
        XZ       0.1841     YZ      -0.4086     ZZ     -42.2421

 Total job time:  10.87s(wall), 548.26s(cpu)
        *  Thank you very much for using Q-Chem.  Have a nice day.  *
