 Q-Chem 5.4, Q-Chem, Inc., Pleasanton, CA (2021)
 Q-Chem 5.4.0 for Intel X86 EM64T Linux

User input:
--------------------------------------------------------------
$molecule
0 1
C	-0.446969	-0.140188	-0.209225
S	0.239831	0.256612	1.371275
C	1.658131	1.075412	0.695675
C	0.417231	0.358912	-1.194625
C	1.560531	1.019112	-0.702725
H	0.213131	0.241112	-2.269125
H	2.323431	1.459712	-1.361825
C	-0.446969	-1.618388	-0.209225
H	-0.986469	-1.618988	-1.144825
H	0.407531	-2.057688	-0.702525
H	-1.150969	-2.329388	0.197375
H	2.420731	1.515912	1.346775
$end

$rem
JOBTYPE		SP
EXCHANGE	HF
CORRELATION	pRIMP2
BASIS		cc-pvtz
METHOD		rimp2
AUX_BASIS	rimp2-cc-pvtz
SOLVENT_METHOD	PCM
PURECART	11111
SYMMETRY	false
MEM_TOTAL	110000
SCF_CONVERGENCE = 6
THRESH=10
GUI = 2
$end

$solvent
dielectric 4.90
$end
--------------------------------------------------------------

             Standard Nuclear Orientation (Angstroms)
    I     Atom           X                Y                Z
 ----------------------------------------------------------------
    1      C      -0.4469690000    -0.1401880000    -0.2092250000
    2      S       0.2398310000     0.2566120000     1.3712750000
    3      C       1.6581310000     1.0754120000     0.6956750000
    4      C       0.4172310000     0.3589120000    -1.1946250000
    5      C       1.5605310000     1.0191120000    -0.7027250000
    6      H       0.2131310000     0.2411120000    -2.2691250000
    7      H       2.3234310000     1.4597120000    -1.3618250000
    8      C      -0.4469690000    -1.6183880000    -0.2092250000
    9      H      -0.9864690000    -1.6189880000    -1.1448250000
   10      H       0.4075310000    -2.0576880000    -0.7025250000
   11      H      -1.1509690000    -2.3293880000     0.1973750000
   12      H       2.4207310000     1.5159120000     1.3467750000
 ----------------------------------------------------------------

   11    -590.3046650632      5.94e-07  Convergence criterion met
 Total energy in the final basis set =     -590.3046650632
        RIMP2         total energy =      -591.3195483050 a.u.

                    Orbital Energies (a.u.)
 --------------------------------------------------------------

 Alpha MOs
 -- Occupied --
-91.9733 -11.2927 -11.2593 -11.2516 -11.2464 -11.2145  -8.9742  -6.6549
 -6.6540  -6.6539  -1.1692  -1.0372  -0.9791  -0.9078  -0.7622  -0.7302
 -0.6723  -0.5938  -0.5785  -0.5561  -0.5382  -0.4925  -0.4647  -0.4197
 -0.3425  -0.3085

          Ground-State Mulliken Net Atomic Charges

     Atom                 Charge (a.u.)
  ----------------------------------------
      1 C                    -0.109452
      2 S                     0.013850
      3 C                    -0.152356
      4 C                    -0.096225
      5 C                    -0.243311
      6 H                     0.188697
      7 H                     0.187581
      8 C                    -0.369900
      9 H                     0.102682
     10 H                     0.126166
     11 H                     0.144864
     12 H                     0.207403
  ----------------------------------------
  Sum of atomic charges =     0.000000

                    Cartesian Multipole Moments
 -----------------------------------------------------------------
    Charge (ESU x 10^10)
                 0.0000
    Dipole Moment (Debye)
         X       2.0621      Y      -0.0144      Z      -1.6348
       Tot       2.6316
    Quadrupole Moments (Debye-Ang)
        XX     -40.8188     XY       5.3303     YY     -43.7375
        XZ       0.5715     YZ       1.1559     ZZ     -41.1948

 Total job time:  12.61s(wall), 659.61s(cpu)
        *  Thank you very much for using Q-Chem.  Have a nice day.  *
