 Q-Chem 5.4, Q-Chem, Inc., Pleasanton, CA (2021)
 Q-Chem 5.4.0 for Intel X86 EM64T Linux

User input:
--------------------------------------------------------------
$molecule
0 1
C	-0.401478	-0.214208	-0.218020
S	0.206022	0.295792	1.362480
C	1.460522	1.348492	0.686880
C	0.362922	0.427392	-1.203420
C	1.374222	1.276092	-0.711520
H	0.182422	0.275892	-2.277920
H	2.049022	1.842392	-1.370620
C	-0.401478	-1.692408	-0.218020
H	0.533522	-1.693008	0.322480
H	-0.894778	-2.131708	0.636380
H	0.004922	-2.403408	-0.922120
H	2.135122	1.914692	1.337980
$end

$rem
JOBTYPE		SP
EXCHANGE	HF
CORRELATION	pRIMP2
BASIS		cc-pvtz
METHOD		rimp2
AUX_BASIS	rimp2-cc-pvtz
SOLVENT_METHOD	PCM
PURECART	11111
SYMMETRY	false
MEM_TOTAL	110000
SCF_CONVERGENCE = 6
THRESH=10
GUI = 2
$end

$solvent
dielectric 4.90
$end
--------------------------------------------------------------

             Standard Nuclear Orientation (Angstroms)
    I     Atom           X                Y                Z
 ----------------------------------------------------------------
    1      C      -0.4014780000    -0.2142080000    -0.2180200000
    2      S       0.2060220000     0.2957920000     1.3624800000
    3      C       1.4605220000     1.3484920000     0.6868800000
    4      C       0.3629220000     0.4273920000    -1.2034200000
    5      C       1.3742220000     1.2760920000    -0.7115200000
    6      H       0.1824220000     0.2758920000    -2.2779200000
    7      H       2.0490220000     1.8423920000    -1.3706200000
    8      C      -0.4014780000    -1.6924080000    -0.2180200000
    9      H       0.5335220000    -1.6930080000     0.3224800000
   10      H      -0.8947780000    -2.1317080000     0.6363800000
   11      H       0.0049220000    -2.4034080000    -0.9221200000
   12      H       2.1351220000     1.9146920000     1.3379800000
 ----------------------------------------------------------------

   10    -590.3219786763      6.39e-07  Convergence criterion met
 Total energy in the final basis set =     -590.3219786763
        RIMP2         total energy =      -591.3322575265 a.u.

                    Orbital Energies (a.u.)
 --------------------------------------------------------------

 Alpha MOs
 -- Occupied --
-91.9733 -11.2830 -11.2702 -11.2469 -11.2448 -11.2193  -8.9746  -6.6554
 -6.6547  -6.6543  -1.1681  -1.0397  -0.9772  -0.9086  -0.7631  -0.7253
 -0.6729  -0.5927  -0.5723  -0.5654  -0.5291  -0.5002  -0.4642  -0.4472
 -0.3467  -0.2982

          Ground-State Mulliken Net Atomic Charges

     Atom                 Charge (a.u.)
  ----------------------------------------
      1 C                    -0.046031
      2 S                    -0.006246
      3 C                    -0.191528
      4 C                    -0.166645
      5 C                    -0.213394
      6 H                     0.184250
      7 H                     0.187686
      8 C                    -0.360519
      9 H                     0.132963
     10 H                     0.117013
     11 H                     0.155531
     12 H                     0.206921
  ----------------------------------------
  Sum of atomic charges =     0.000000

                    Cartesian Multipole Moments
 -----------------------------------------------------------------
    Charge (ESU x 10^10)
                 0.0000
    Dipole Moment (Debye)
         X       2.1499      Y      -0.2752      Z      -0.8851
       Tot       2.3412
    Quadrupole Moments (Debye-Ang)
        XX     -43.4243     XY       3.7559     YY     -41.9314
        XZ       0.1472     YZ       0.2475     ZZ     -41.5148

 Total job time:  10.70s(wall), 580.10s(cpu)
        *  Thank you very much for using Q-Chem.  Have a nice day.  *
