 Q-Chem 5.4, Q-Chem, Inc., Pleasanton, CA (2021)
 Q-Chem 5.4.0 for Intel X86 EM64T Linux

User input:
--------------------------------------------------------------
$molecule
0 1
C	-0.094196	-0.391505	-0.210801
S	0.043304	0.389695	1.369699
C	0.327704	2.002495	0.694099
C	0.078904	0.591395	-1.196201
C	0.308104	1.891595	-0.704301
H	0.038004	0.359295	-2.270701
H	0.461004	2.759095	-1.363401
C	-0.094196	-1.869705	-0.210801
H	0.600404	-1.870305	-1.037801
H	0.661604	-2.309005	0.423399
H	-0.717096	-2.580705	-0.733301
H	0.480504	2.869795	1.345199
$end

$rem
JOBTYPE		SP
EXCHANGE	HF
CORRELATION	pRIMP2
BASIS		cc-pvtz
METHOD		rimp2
AUX_BASIS	rimp2-cc-pvtz
SOLVENT_METHOD	PCM
PURECART	11111
SYMMETRY	false
MEM_TOTAL	110000
SCF_CONVERGENCE = 6
THRESH=10
GUI = 2
$end

$solvent
dielectric 4.90
$end
--------------------------------------------------------------

             Standard Nuclear Orientation (Angstroms)
    I     Atom           X                Y                Z
 ----------------------------------------------------------------
    1      C      -0.0941960000    -0.3915050000    -0.2108010000
    2      S       0.0433040000     0.3896950000     1.3696990000
    3      C       0.3277040000     2.0024950000     0.6940990000
    4      C       0.0789040000     0.5913950000    -1.1962010000
    5      C       0.3081040000     1.8915950000    -0.7043010000
    6      H       0.0380040000     0.3592950000    -2.2707010000
    7      H       0.4610040000     2.7590950000    -1.3634010000
    8      C      -0.0941960000    -1.8697050000    -0.2108010000
    9      H       0.6004040000    -1.8703050000    -1.0378010000
   10      H       0.6616040000    -2.3090050000     0.4233990000
   11      H      -0.7170960000    -2.5807050000    -0.7333010000
   12      H       0.4805040000     2.8697950000     1.3451990000
 ----------------------------------------------------------------

   10    -590.3719633256      5.89e-07  Convergence criterion met
 Total energy in the final basis set =     -590.3719633256
        RIMP2         total energy =      -591.3737621169 a.u.

                    Orbital Energies (a.u.)
 --------------------------------------------------------------

 Alpha MOs
 -- Occupied --
-91.9774 -11.2878 -11.2655 -11.2429 -11.2361 -11.2249  -8.9773  -6.6582
 -6.6576  -6.6571  -1.1572  -1.0388  -0.9723  -0.9186  -0.7544  -0.7235
 -0.6720  -0.5974  -0.5680  -0.5569  -0.5424  -0.4979  -0.4693  -0.4474
 -0.3452  -0.3054

          Ground-State Mulliken Net Atomic Charges

     Atom                 Charge (a.u.)
  ----------------------------------------
      1 C                     0.033637
      2 S                    -0.004829
      3 C                    -0.236347
      4 C                    -0.229661
      5 C                    -0.194066
      6 H                     0.181790
      7 H                     0.186020
      8 C                    -0.365788
      9 H                     0.131705
     10 H                     0.138402
     11 H                     0.155569
     12 H                     0.203567
  ----------------------------------------
  Sum of atomic charges =     0.000000

                    Cartesian Multipole Moments
 -----------------------------------------------------------------
    Charge (ESU x 10^10)
                 0.0000
    Dipole Moment (Debye)
         X       0.6767      Y      -0.5528      Z      -1.6086
       Tot       1.8307
    Quadrupole Moments (Debye-Ang)
        XX     -47.6512     XY       0.6923     YY     -36.3893
        XZ       0.4126     YZ       1.9878     ZZ     -41.8168

 Total job time:  11.27s(wall), 594.12s(cpu)
        *  Thank you very much for using Q-Chem.  Have a nice day.  *
