 Q-Chem 5.4, Q-Chem, Inc., Pleasanton, CA (2021)
 Q-Chem 5.4.0 for Intel X86 EM64T Linux

User input:
--------------------------------------------------------------
$molecule
0 1
C	-0.129286	-0.381707	-0.217353
S	0.075814	0.384493	1.363147
C	0.499614	1.966393	0.687547
C	0.128814	0.582293	-1.202753
C	0.470414	1.857593	-0.710853
H	0.067914	0.354693	-2.277253
H	0.698414	2.708493	-1.369953
C	-0.129286	-1.859907	-0.217353
H	-0.956986	-1.860507	0.476447
H	-0.763486	-2.299207	-0.973153
H	0.393414	-2.570907	0.405347
H	0.727514	2.817093	1.338647
$end

$rem
JOBTYPE		SP
EXCHANGE	HF
CORRELATION	pRIMP2
BASIS		cc-pvtz
METHOD		rimp2
AUX_BASIS	rimp2-cc-pvtz
SOLVENT_METHOD	PCM
PURECART	11111
SYMMETRY	false
MEM_TOTAL	110000
SCF_CONVERGENCE = 6
THRESH=10
GUI = 2
$end

$solvent
dielectric 4.90
$end
--------------------------------------------------------------

             Standard Nuclear Orientation (Angstroms)
    I     Atom           X                Y                Z
 ----------------------------------------------------------------
    1      C      -0.1292860000    -0.3817070000    -0.2173530000
    2      S       0.0758140000     0.3844930000     1.3631470000
    3      C       0.4996140000     1.9663930000     0.6875470000
    4      C       0.1288140000     0.5822930000    -1.2027530000
    5      C       0.4704140000     1.8575930000    -0.7108530000
    6      H       0.0679140000     0.3546930000    -2.2772530000
    7      H       0.6984140000     2.7084930000    -1.3699530000
    8      C      -0.1292860000    -1.8599070000    -0.2173530000
    9      H      -0.9569860000    -1.8605070000     0.4764470000
   10      H      -0.7634860000    -2.2992070000    -0.9731530000
   11      H       0.3934140000    -2.5709070000     0.4053470000
   12      H       0.7275140000     2.8170930000     1.3386470000
 ----------------------------------------------------------------

   10    -590.3671620709      6.04e-07  Convergence criterion met
 Total energy in the final basis set =     -590.3671620709
        RIMP2         total energy =      -591.3693466003 a.u.

                    Orbital Energies (a.u.)
 --------------------------------------------------------------

 Alpha MOs
 -- Occupied --
-91.9783 -11.2846 -11.2684 -11.2431 -11.2361 -11.2242  -8.9783  -6.6592
 -6.6587  -6.6581  -1.1576  -1.0393  -0.9725  -0.9192  -0.7572  -0.7209
 -0.6709  -0.5974  -0.5666  -0.5604  -0.5427  -0.4897  -0.4699  -0.4538
 -0.3464  -0.3042

          Ground-State Mulliken Net Atomic Charges

     Atom                 Charge (a.u.)
  ----------------------------------------
      1 C                    -0.004728
      2 S                    -0.008433
      3 C                    -0.226516
      4 C                    -0.206717
      5 C                    -0.196806
      6 H                     0.184415
      7 H                     0.185456
      8 C                    -0.347634
      9 H                     0.123670
     10 H                     0.130541
     11 H                     0.161721
     12 H                     0.205030
  ----------------------------------------
  Sum of atomic charges =     0.000000

                    Cartesian Multipole Moments
 -----------------------------------------------------------------
    Charge (ESU x 10^10)
                -0.0000
    Dipole Moment (Debye)
         X      -0.1798      Y      -0.3959      Z      -0.6684
       Tot       0.7974
    Quadrupole Moments (Debye-Ang)
        XX     -47.2543     XY       3.2316     YY     -36.5944
        XZ       0.6226     YZ      -0.1703     ZZ     -42.0406

 Total job time:  10.27s(wall), 557.23s(cpu)
        *  Thank you very much for using Q-Chem.  Have a nice day.  *
