 Q-Chem 5.4, Q-Chem, Inc., Pleasanton, CA (2021)
 Q-Chem 5.4.0 for Intel X86 EM64T Linux

User input:
--------------------------------------------------------------
$molecule
0 1
C	-0.261897	-0.329934	-0.209570
S	0.134503	0.357066	1.370930
C	0.953303	1.775366	0.695330
C	0.236903	0.534466	-1.194970
C	0.897003	1.677866	-0.703070
H	0.119103	0.330366	-2.269470
H	1.337403	2.440766	-1.362170
C	-0.261897	-1.808134	-0.209570
H	0.108003	-1.808734	-1.224270
H	0.665203	-2.247434	0.127930
H	-1.025897	-2.519134	-0.487470
H	1.393603	2.538166	1.346430
$end

$rem
JOBTYPE		SP
EXCHANGE	HF
CORRELATION	pRIMP2
BASIS		cc-pvtz
METHOD		rimp2
AUX_BASIS	rimp2-cc-pvtz
SOLVENT_METHOD	PCM
PURECART	11111
SYMMETRY	false
MEM_TOTAL	110000
SCF_CONVERGENCE = 6
THRESH=10
GUI = 2
$end

$solvent
dielectric 4.90
$end
--------------------------------------------------------------

             Standard Nuclear Orientation (Angstroms)
    I     Atom           X                Y                Z
 ----------------------------------------------------------------
    1      C      -0.2618970000    -0.3299340000    -0.2095700000
    2      S       0.1345030000     0.3570660000     1.3709300000
    3      C       0.9533030000     1.7753660000     0.6953300000
    4      C       0.2369030000     0.5344660000    -1.1949700000
    5      C       0.8970030000     1.6778660000    -0.7030700000
    6      H       0.1191030000     0.3303660000    -2.2694700000
    7      H       1.3374030000     2.4407660000    -1.3621700000
    8      C      -0.2618970000    -1.8081340000    -0.2095700000
    9      H       0.1080030000    -1.8087340000    -1.2242700000
   10      H       0.6652030000    -2.2474340000     0.1279300000
   11      H      -1.0258970000    -2.5191340000    -0.4874700000
   12      H       1.3936030000     2.5381660000     1.3464300000
 ----------------------------------------------------------------

   10    -590.3570038889      6.94e-07  Convergence criterion met
 Total energy in the final basis set =     -590.3570038889
        RIMP2         total energy =      -591.3625758709 a.u.

                    Orbital Energies (a.u.)
 --------------------------------------------------------------

 Alpha MOs
 -- Occupied --
-91.9754 -11.2795 -11.2724 -11.2434 -11.2422 -11.2209  -8.9756  -6.6564
 -6.6558  -6.6554  -1.1598  -1.0373  -0.9740  -0.9151  -0.7561  -0.7250
 -0.6717  -0.5966  -0.5713  -0.5569  -0.5413  -0.4923  -0.4683  -0.4392
 -0.3436  -0.3104

          Ground-State Mulliken Net Atomic Charges

     Atom                 Charge (a.u.)
  ----------------------------------------
      1 C                     0.007656
      2 S                    -0.003169
      3 C                    -0.218813
      4 C                    -0.210620
      5 C                    -0.198564
      6 H                     0.180691
      7 H                     0.187733
      8 C                    -0.361078
      9 H                     0.124389
     10 H                     0.139352
     11 H                     0.148440
     12 H                     0.203985
  ----------------------------------------
  Sum of atomic charges =     0.000000

                    Cartesian Multipole Moments
 -----------------------------------------------------------------
    Charge (ESU x 10^10)
                 0.0000
    Dipole Moment (Debye)
         X       1.0391      Y      -0.2587      Z      -1.7303
       Tot       2.0348
    Quadrupole Moments (Debye-Ang)
        XX     -45.5632     XY       3.6144     YY     -38.6414
        XZ       0.6714     YZ       1.9799     ZZ     -41.8168

 Total job time:  11.36s(wall), 580.84s(cpu)
        *  Thank you very much for using Q-Chem.  Have a nice day.  *
