 Q-Chem 5.4, Q-Chem, Inc., Pleasanton, CA (2021)
 Q-Chem 5.4.0 for Intel X86 EM64T Linux

User input:
--------------------------------------------------------------
$molecule
0 1
C	-0.095463	-0.391505	-0.213418
S	0.042037	0.389695	1.367082
C	0.326437	2.002495	0.691482
C	0.077637	0.591395	-1.198818
C	0.306837	1.891595	-0.706918
H	0.036737	0.359295	-2.273318
H	0.459737	2.759095	-1.366018
C	-0.095463	-1.869705	-0.213418
H	0.919537	-1.870305	-0.582318
H	0.241937	-2.309005	0.713682
H	-0.373663	-2.580705	-0.977318
H	0.479237	2.869795	1.342582
$end

$rem
JOBTYPE		SP
EXCHANGE	HF
CORRELATION	pRIMP2
BASIS		cc-pvtz
METHOD		rimp2
AUX_BASIS	rimp2-cc-pvtz
SOLVENT_METHOD	PCM
PURECART	11111
SYMMETRY	false
MEM_TOTAL	110000
SCF_CONVERGENCE = 6
THRESH=10
GUI = 2
$end

$solvent
dielectric 4.90
$end
--------------------------------------------------------------

             Standard Nuclear Orientation (Angstroms)
    I     Atom           X                Y                Z
 ----------------------------------------------------------------
    1      C      -0.0954630000    -0.3915050000    -0.2134180000
    2      S       0.0420370000     0.3896950000     1.3670820000
    3      C       0.3264370000     2.0024950000     0.6914820000
    4      C       0.0776370000     0.5913950000    -1.1988180000
    5      C       0.3068370000     1.8915950000    -0.7069180000
    6      H       0.0367370000     0.3592950000    -2.2733180000
    7      H       0.4597370000     2.7590950000    -1.3660180000
    8      C      -0.0954630000    -1.8697050000    -0.2134180000
    9      H       0.9195370000    -1.8703050000    -0.5823180000
   10      H       0.2419370000    -2.3090050000     0.7136820000
   11      H      -0.3736630000    -2.5807050000    -0.9773180000
   12      H       0.4792370000     2.8697950000     1.3425820000
 ----------------------------------------------------------------

   10    -590.3729663294      6.35e-07  Convergence criterion met
 Total energy in the final basis set =     -590.3729663294
        RIMP2         total energy =      -591.3734592474 a.u.

                    Orbital Energies (a.u.)
 --------------------------------------------------------------

 Alpha MOs
 -- Occupied --
-91.9795 -11.2916 -11.2620 -11.2430 -11.2306 -11.2281  -8.9792  -6.6601
 -6.6596  -6.6590  -1.1573  -1.0405  -0.9714  -0.9189  -0.7544  -0.7225
 -0.6714  -0.5974  -0.5659  -0.5544  -0.5451  -0.4962  -0.4750  -0.4557
 -0.3463  -0.2986

          Ground-State Mulliken Net Atomic Charges

     Atom                 Charge (a.u.)
  ----------------------------------------
      1 C                     0.029937
      2 S                     0.001694
      3 C                    -0.249135
      4 C                    -0.240869
      5 C                    -0.188318
      6 H                     0.179179
      7 H                     0.185676
      8 C                    -0.365848
      9 H                     0.143668
     10 H                     0.136602
     11 H                     0.163761
     12 H                     0.203655
  ----------------------------------------
  Sum of atomic charges =     0.000000

                    Cartesian Multipole Moments
 -----------------------------------------------------------------
    Charge (ESU x 10^10)
                 0.0000
    Dipole Moment (Debye)
         X       0.8763      Y      -0.8419      Z      -1.2904
       Tot       1.7725
    Quadrupole Moments (Debye-Ang)
        XX     -48.0870     XY       0.1896     YY     -36.2688
        XZ       0.1581     YZ       1.5363     ZZ     -41.6713

 Total job time:  11.97s(wall), 615.93s(cpu)
        *  Thank you very much for using Q-Chem.  Have a nice day.  *
