 Q-Chem 5.4, Q-Chem, Inc., Pleasanton, CA (2021)
 Q-Chem 5.4.0 for Intel X86 EM64T Linux

User input:
--------------------------------------------------------------
$molecule
0 1
C	-0.338826	-0.278098	-0.214392
S	0.170874	0.329602	1.366108
C	1.223574	1.584202	0.690508
C	0.302574	0.486502	-1.199792
C	1.151074	1.497902	-0.707892
H	0.151074	0.306002	-2.274292
H	1.717274	2.172802	-1.366992
C	-0.338826	-1.756298	-0.214392
H	0.724874	-1.756898	-0.401392
H	-0.167526	-2.195598	0.757208
H	-0.480126	-2.467298	-1.014992
H	1.789574	2.258902	1.341608
$end

$rem
JOBTYPE		SP
EXCHANGE	HF
CORRELATION	pRIMP2
BASIS		cc-pvtz
METHOD		rimp2
AUX_BASIS	rimp2-cc-pvtz
SOLVENT_METHOD	PCM
PURECART	11111
SYMMETRY	false
MEM_TOTAL	110000
SCF_CONVERGENCE = 6
THRESH=10
GUI = 2
$end

$solvent
dielectric 4.90
$end
--------------------------------------------------------------

             Standard Nuclear Orientation (Angstroms)
    I     Atom           X                Y                Z
 ----------------------------------------------------------------
    1      C      -0.3388260000    -0.2780980000    -0.2143920000
    2      S       0.1708740000     0.3296020000     1.3661080000
    3      C       1.2235740000     1.5842020000     0.6905080000
    4      C       0.3025740000     0.4865020000    -1.1997920000
    5      C       1.1510740000     1.4979020000    -0.7078920000
    6      H       0.1510740000     0.3060020000    -2.2742920000
    7      H       1.7172740000     2.1728020000    -1.3669920000
    8      C      -0.3388260000    -1.7562980000    -0.2143920000
    9      H       0.7248740000    -1.7568980000    -0.4013920000
   10      H      -0.1675260000    -2.1955980000     0.7572080000
   11      H      -0.4801260000    -2.4672980000    -1.0149920000
   12      H       1.7895740000     2.2589020000     1.3416080000
 ----------------------------------------------------------------

   10    -590.3440150642      7.44e-07  Convergence criterion met
 Total energy in the final basis set =     -590.3440150642
        RIMP2         total energy =      -591.3512486383 a.u.

                    Orbital Energies (a.u.)
 --------------------------------------------------------------

 Alpha MOs
 -- Occupied --
-91.9791 -11.2815 -11.2714 -11.2444 -11.2357 -11.2242  -8.9791  -6.6600
 -6.6594  -6.6589  -1.1634  -1.0394  -0.9743  -0.9123  -0.7583  -0.7240
 -0.6716  -0.5959  -0.5669  -0.5582  -0.5407  -0.4907  -0.4709  -0.4572
 -0.3464  -0.2961

          Ground-State Mulliken Net Atomic Charges

     Atom                 Charge (a.u.)
  ----------------------------------------
      1 C                    -0.018408
      2 S                     0.007598
      3 C                    -0.226613
      4 C                    -0.198783
      5 C                    -0.199589
      6 H                     0.178493
      7 H                     0.187407
      8 C                    -0.359968
      9 H                     0.144198
     10 H                     0.129406
     11 H                     0.151045
     12 H                     0.205214
  ----------------------------------------
  Sum of atomic charges =     0.000000

                    Cartesian Multipole Moments
 -----------------------------------------------------------------
    Charge (ESU x 10^10)
                 0.0000
    Dipole Moment (Debye)
         X       1.6247      Y      -0.5711      Z      -1.1643
       Tot       2.0788
    Quadrupole Moments (Debye-Ang)
        XX     -45.2308     XY       3.4018     YY     -40.1486
        XZ       0.3672     YZ       1.2377     ZZ     -41.3660

 Total job time:  11.46s(wall), 604.13s(cpu)
        *  Thank you very much for using Q-Chem.  Have a nice day.  *
