 Q-Chem 5.4, Q-Chem, Inc., Pleasanton, CA (2021)
 Q-Chem 5.4.0 for Intel X86 EM64T Linux

User input:
--------------------------------------------------------------
$molecule
0 1
C	-0.214789	-0.350804	-0.218146
S	0.120211	0.368096	1.362354
C	0.812311	1.852396	0.686754
C	0.206811	0.553796	-1.203546
C	0.764711	1.750296	-0.711646
H	0.107211	0.340196	-2.278046
H	1.136911	2.548796	-1.370746
C	-0.214789	-1.829004	-0.218146
H	-0.909389	-1.829604	0.608854
H	-0.970589	-2.268304	-0.852346
H	0.408111	-2.540004	0.304354
H	1.184411	2.650596	1.337854
$end

$rem
JOBTYPE		SP
EXCHANGE	HF
CORRELATION	pRIMP2
BASIS		cc-pvtz
METHOD		rimp2
AUX_BASIS	rimp2-cc-pvtz
SOLVENT_METHOD	PCM
PURECART	11111
SYMMETRY	false
MEM_TOTAL	110000
SCF_CONVERGENCE = 6
THRESH=10
GUI = 2
$end

$solvent
dielectric 4.90
$end
--------------------------------------------------------------

             Standard Nuclear Orientation (Angstroms)
    I     Atom           X                Y                Z
 ----------------------------------------------------------------
    1      C      -0.2147890000    -0.3508040000    -0.2181460000
    2      S       0.1202110000     0.3680960000     1.3623540000
    3      C       0.8123110000     1.8523960000     0.6867540000
    4      C       0.2068110000     0.5537960000    -1.2035460000
    5      C       0.7647110000     1.7502960000    -0.7116460000
    6      H       0.1072110000     0.3401960000    -2.2780460000
    7      H       1.1369110000     2.5487960000    -1.3707460000
    8      C      -0.2147890000    -1.8290040000    -0.2181460000
    9      H      -0.9093890000    -1.8296040000     0.6088540000
   10      H      -0.9705890000    -2.2683040000    -0.8523460000
   11      H       0.4081110000    -2.5400040000     0.3043540000
   12      H       1.1844110000     2.6505960000     1.3378540000
 ----------------------------------------------------------------

   10    -590.3584572318      6.91e-07  Convergence criterion met
 Total energy in the final basis set =     -590.3584572318
        RIMP2         total energy =      -591.3629863597 a.u.

                    Orbital Energies (a.u.)
 --------------------------------------------------------------

 Alpha MOs
 -- Occupied --
-91.9790 -11.2781 -11.2728 -11.2435 -11.2391 -11.2216  -8.9790  -6.6599
 -6.6593  -6.6588  -1.1588  -1.0381  -0.9736  -0.9177  -0.7588  -0.7213
 -0.6710  -0.5959  -0.5668  -0.5613  -0.5434  -0.4857  -0.4656  -0.4525
 -0.3463  -0.3071

          Ground-State Mulliken Net Atomic Charges

     Atom                 Charge (a.u.)
  ----------------------------------------
      1 C                    -0.021803
      2 S                    -0.002752
      3 C                    -0.218077
      4 C                    -0.195370
      5 C                    -0.196141
      6 H                     0.184141
      7 H                     0.186226
      8 C                    -0.346882
      9 H                     0.116814
     10 H                     0.127627
     11 H                     0.160619
     12 H                     0.205598
  ----------------------------------------
  Sum of atomic charges =     0.000000

                    Cartesian Multipole Moments
 -----------------------------------------------------------------
    Charge (ESU x 10^10)
                -0.0000
    Dipole Moment (Debye)
         X       0.2546      Y      -0.1383      Z      -0.6207
       Tot       0.6850
    Quadrupole Moments (Debye-Ang)
        XX     -46.0890     XY       4.2364     YY     -37.7779
        XZ       0.6836     YZ      -0.2388     ZZ     -42.0282

 Total job time:  10.66s(wall), 565.10s(cpu)
        *  Thank you very much for using Q-Chem.  Have a nice day.  *
