 Q-Chem 5.4, Q-Chem, Inc., Pleasanton, CA (2021)
 Q-Chem 5.4.0 for Intel X86 EM64T Linux

User input:
--------------------------------------------------------------
$molecule
0 1
C	-0.223941	-0.350804	-0.217210
S	0.111059	0.368096	1.363290
C	0.803159	1.852396	0.687690
C	0.197659	0.553796	-1.202610
C	0.755559	1.750296	-0.710710
H	0.098059	0.340196	-2.277110
H	1.127759	2.548796	-1.369810
C	-0.223941	-1.829004	-0.217210
H	0.790759	-1.829604	0.152690
H	-0.561441	-2.268304	0.709890
H	0.053959	-2.540004	-0.981210
H	1.175259	2.650596	1.338790
$end

$rem
JOBTYPE		SP
EXCHANGE	HF
CORRELATION	pRIMP2
BASIS		cc-pvtz
METHOD		rimp2
AUX_BASIS	rimp2-cc-pvtz
SOLVENT_METHOD	PCM
PURECART	11111
SYMMETRY	false
MEM_TOTAL	110000
SCF_CONVERGENCE = 6
THRESH=10
GUI = 2
$end

$solvent
dielectric 4.90
$end
--------------------------------------------------------------

             Standard Nuclear Orientation (Angstroms)
    I     Atom           X                Y                Z
 ----------------------------------------------------------------
    1      C      -0.2239410000    -0.3508040000    -0.2172100000
    2      S       0.1110590000     0.3680960000     1.3632900000
    3      C       0.8031590000     1.8523960000     0.6876900000
    4      C       0.1976590000     0.5537960000    -1.2026100000
    5      C       0.7555590000     1.7502960000    -0.7107100000
    6      H       0.0980590000     0.3401960000    -2.2771100000
    7      H       1.1277590000     2.5487960000    -1.3698100000
    8      C      -0.2239410000    -1.8290040000    -0.2172100000
    9      H       0.7907590000    -1.8296040000     0.1526900000
   10      H      -0.5614410000    -2.2683040000     0.7098900000
   11      H       0.0539590000    -2.5400040000    -0.9812100000
   12      H       1.1752590000     2.6505960000     1.3387900000
 ----------------------------------------------------------------

   10    -590.3637355165      6.51e-07  Convergence criterion met
 Total energy in the final basis set =     -590.3637355165
        RIMP2         total energy =      -591.3656089604 a.u.

                    Orbital Energies (a.u.)
 --------------------------------------------------------------

 Alpha MOs
 -- Occupied --
-91.9774 -11.2877 -11.2671 -11.2432 -11.2334 -11.2271  -8.9776  -6.6586
 -6.6581  -6.6574  -1.1599  -1.0407  -0.9723  -0.9166  -0.7568  -0.7220
 -0.6717  -0.5961  -0.5673  -0.5612  -0.5344  -0.5005  -0.4730  -0.4558
 -0.3472  -0.2983

          Ground-State Mulliken Net Atomic Charges

     Atom                 Charge (a.u.)
  ----------------------------------------
      1 C                     0.024018
      2 S                    -0.004759
      3 C                    -0.242662
      4 C                    -0.254599
      5 C                    -0.176410
      6 H                     0.181206
      7 H                     0.186928
      8 C                    -0.357869
      9 H                     0.143893
     10 H                     0.130763
     11 H                     0.164771
     12 H                     0.204721
  ----------------------------------------
  Sum of atomic charges =     0.000000

                    Cartesian Multipole Moments
 -----------------------------------------------------------------
    Charge (ESU x 10^10)
                -0.0000
    Dipole Moment (Debye)
         X       1.1920      Y      -0.6841      Z      -0.8540
       Tot       1.6181
    Quadrupole Moments (Debye-Ang)
        XX     -46.9464     XY       2.1509     YY     -37.6142
        XZ      -0.1555     YZ       0.5880     ZZ     -41.8676

 Total job time:  10.64s(wall), 576.73s(cpu)
        *  Thank you very much for using Q-Chem.  Have a nice day.  *
