 Q-Chem 5.4, Q-Chem, Inc., Pleasanton, CA (2021)
 Q-Chem 5.4.0 for Intel X86 EM64T Linux

User input:
--------------------------------------------------------------
$molecule
0 1
C	-0.002800	-0.399361	-0.219296
S	-0.003000	0.393839	1.361204
C	-0.003000	2.031539	0.685604
C	-0.003000	0.598639	-1.204696
C	-0.003100	1.918839	-0.712796
H	-0.002900	0.362939	-2.279196
H	-0.003100	2.799839	-1.371896
C	-0.002800	-1.877561	-0.219296
H	0.691000	-1.878161	0.608404
H	-0.758600	-2.316861	0.414904
H	0.619900	-2.588561	-0.741996
H	-0.003100	2.912239	1.336704
$end

$rem
JOBTYPE		SP
EXCHANGE	HF
CORRELATION	pRIMP2
BASIS		cc-pvtz
METHOD		rimp2
AUX_BASIS	rimp2-cc-pvtz
SOLVENT_METHOD	PCM
PURECART	11111
SYMMETRY	false
MEM_TOTAL	110000
SCF_CONVERGENCE = 6
THRESH=10
GUI = 2
$end

$solvent
dielectric 4.90
$end
--------------------------------------------------------------

             Standard Nuclear Orientation (Angstroms)
    I     Atom           X                Y                Z
 ----------------------------------------------------------------
    1      C      -0.0028000000    -0.3993610000    -0.2192960000
    2      S      -0.0030000000     0.3938390000     1.3612040000
    3      C      -0.0030000000     2.0315390000     0.6856040000
    4      C      -0.0030000000     0.5986390000    -1.2046960000
    5      C      -0.0031000000     1.9188390000    -0.7127960000
    6      H      -0.0029000000     0.3629390000    -2.2791960000
    7      H      -0.0031000000     2.7998390000    -1.3718960000
    8      C      -0.0028000000    -1.8775610000    -0.2192960000
    9      H       0.6910000000    -1.8781610000     0.6084040000
   10      H      -0.7586000000    -2.3168610000     0.4149040000
   11      H       0.6199000000    -2.5885610000    -0.7419960000
   12      H      -0.0031000000     2.9122390000     1.3367040000
 ----------------------------------------------------------------

   10    -590.3725070740      5.89e-07  Convergence criterion met
 Total energy in the final basis set =     -590.3725070740
        RIMP2         total energy =      -591.3730761718 a.u.

                    Orbital Energies (a.u.)
 --------------------------------------------------------------

 Alpha MOs
 -- Occupied --
-91.9795 -11.2868 -11.2672 -11.2428 -11.2339 -11.2253  -8.9795  -6.6604
 -6.6599  -6.6593  -1.1578  -1.0405  -0.9723  -0.9190  -0.7571  -0.7206
 -0.6717  -0.5972  -0.5669  -0.5631  -0.5348  -0.5001  -0.4677  -0.4547
 -0.3468  -0.3055

          Ground-State Mulliken Net Atomic Charges

     Atom                 Charge (a.u.)
  ----------------------------------------
      1 C                     0.022920
      2 S                    -0.004424
      3 C                    -0.236660
      4 C                    -0.228259
      5 C                    -0.189108
      6 H                     0.185066
      7 H                     0.185637
      8 C                    -0.353848
      9 H                     0.120235
     10 H                     0.132446
     11 H                     0.160476
     12 H                     0.205518
  ----------------------------------------
  Sum of atomic charges =     0.000000

                    Cartesian Multipole Moments
 -----------------------------------------------------------------
    Charge (ESU x 10^10)
                 0.0000
    Dipole Moment (Debye)
         X       0.4268      Y      -0.4455      Z      -0.5458
       Tot       0.8237
    Quadrupole Moments (Debye-Ang)
        XX     -47.7983     XY      -1.0770     YY     -35.9307
        XZ      -0.4716     YZ      -0.0088     ZZ     -42.2225

 Total job time:  14.34s(wall), 549.33s(cpu)
        *  Thank you very much for using Q-Chem.  Have a nice day.  *
