 Q-Chem 5.4, Q-Chem, Inc., Pleasanton, CA (2021)
 Q-Chem 5.4.0 for Intel X86 EM64T Linux

User input:
--------------------------------------------------------------
$molecule
0 1
C	-0.396067	-0.214208	-0.208958
S	0.211433	0.295792	1.371542
C	1.465933	1.348492	0.695942
C	0.368333	0.427392	-1.194358
C	1.379633	1.276092	-0.702458
H	0.187833	0.275892	-2.268858
H	2.054433	1.842392	-1.361558
C	-0.396067	-1.692408	-0.208958
H	-0.764967	-1.693008	-1.223958
H	0.531033	-2.131708	-0.546358
H	-1.159967	-2.403408	0.069242
H	2.140533	1.914692	1.347042
$end

$rem
JOBTYPE		SP
EXCHANGE	HF
CORRELATION	pRIMP2
BASIS		cc-pvtz
METHOD		rimp2
AUX_BASIS	rimp2-cc-pvtz
SOLVENT_METHOD	PCM
PURECART	11111
SYMMETRY	false
MEM_TOTAL	110000
SCF_CONVERGENCE = 6
THRESH=10
GUI = 2
$end

$solvent
dielectric 4.90
$end
--------------------------------------------------------------

             Standard Nuclear Orientation (Angstroms)
    I     Atom           X                Y                Z
 ----------------------------------------------------------------
    1      C      -0.3960670000    -0.2142080000    -0.2089580000
    2      S       0.2114330000     0.2957920000     1.3715420000
    3      C       1.4659330000     1.3484920000     0.6959420000
    4      C       0.3683330000     0.4273920000    -1.1943580000
    5      C       1.3796330000     1.2760920000    -0.7024580000
    6      H       0.1878330000     0.2758920000    -2.2688580000
    7      H       2.0544330000     1.8423920000    -1.3615580000
    8      C      -0.3960670000    -1.6924080000    -0.2089580000
    9      H      -0.7649670000    -1.6930080000    -1.2239580000
   10      H       0.5310330000    -2.1317080000    -0.5463580000
   11      H      -1.1599670000    -2.4034080000     0.0692420000
   12      H       2.1405330000     1.9146920000     1.3470420000
 ----------------------------------------------------------------

   11    -590.3277042281      4.69e-07  Convergence criterion met
 Total energy in the final basis set =     -590.3277042281
        RIMP2         total energy =      -591.3393858268 a.u.

                    Orbital Energies (a.u.)
 --------------------------------------------------------------

 Alpha MOs
 -- Occupied --
-91.9731 -11.2847 -11.2632 -11.2529 -11.2451 -11.2170  -8.9738  -6.6546
 -6.6537  -6.6535  -1.1648  -1.0367  -0.9767  -0.9110  -0.7594  -0.7277
 -0.6717  -0.5945  -0.5755  -0.5572  -0.5388  -0.4925  -0.4656  -0.4258
 -0.3432  -0.3112

          Ground-State Mulliken Net Atomic Charges

     Atom                 Charge (a.u.)
  ----------------------------------------
      1 C                    -0.062436
      2 S                     0.005631
      3 C                    -0.178049
      4 C                    -0.142681
      5 C                    -0.225441
      6 H                     0.184271
      7 H                     0.187824
      8 C                    -0.360518
      9 H                     0.104997
     10 H                     0.133666
     11 H                     0.146861
     12 H                     0.205876
  ----------------------------------------
  Sum of atomic charges =     0.000000

                    Cartesian Multipole Moments
 -----------------------------------------------------------------
    Charge (ESU x 10^10)
                 0.0000
    Dipole Moment (Debye)
         X       1.5292      Y      -0.0191      Z      -1.7186
       Tot       2.3005
    Quadrupole Moments (Debye-Ang)
        XX     -42.2893     XY       5.4667     YY     -41.9440
        XZ       0.5371     YZ       1.5079     ZZ     -41.5820

 Total job time:  11.62s(wall), 614.01s(cpu)
        *  Thank you very much for using Q-Chem.  Have a nice day.  *
