 Q-Chem 5.4, Q-Chem, Inc., Pleasanton, CA (2021)
 Q-Chem 5.4.0 for Intel X86 EM64T Linux

User input:
--------------------------------------------------------------
$molecule
0 1
C	-0.221774	-0.350804	-0.209570
S	0.113226	0.368096	1.370930
C	0.805326	1.852396	0.695330
C	0.199826	0.553796	-1.194970
C	0.757726	1.750296	-0.703070
H	0.100226	0.340196	-2.269470
H	1.129926	2.548796	-1.362170
C	-0.221774	-1.829004	-0.209570
H	0.148126	-1.829604	-1.224270
H	0.705326	-2.268304	0.127930
H	-0.985774	-2.540004	-0.487470
H	1.177426	2.650596	1.346430
$end

$rem
JOBTYPE		SP
EXCHANGE	HF
CORRELATION	pRIMP2
BASIS		cc-pvtz
METHOD		rimp2
AUX_BASIS	rimp2-cc-pvtz
SOLVENT_METHOD	PCM
PURECART	11111
SYMMETRY	false
MEM_TOTAL	110000
SCF_CONVERGENCE = 6
THRESH=10
GUI = 2
$end

$solvent
dielectric 4.90
$end
--------------------------------------------------------------

             Standard Nuclear Orientation (Angstroms)
    I     Atom           X                Y                Z
 ----------------------------------------------------------------
    1      C      -0.2217740000    -0.3508040000    -0.2095700000
    2      S       0.1132260000     0.3680960000     1.3709300000
    3      C       0.8053260000     1.8523960000     0.6953300000
    4      C       0.1998260000     0.5537960000    -1.1949700000
    5      C       0.7577260000     1.7502960000    -0.7030700000
    6      H       0.1002260000     0.3401960000    -2.2694700000
    7      H       1.1299260000     2.5487960000    -1.3621700000
    8      C      -0.2217740000    -1.8290040000    -0.2095700000
    9      H       0.1481260000    -1.8296040000    -1.2242700000
   10      H       0.7053260000    -2.2683040000     0.1279300000
   11      H      -0.9857740000    -2.5400040000    -0.4874700000
   12      H       1.1774260000     2.6505960000     1.3464300000
 ----------------------------------------------------------------

   10    -590.3624405232      6.44e-07  Convergence criterion met
 Total energy in the final basis set =     -590.3624405232
        RIMP2         total energy =      -591.3668244119 a.u.

                    Orbital Energies (a.u.)
 --------------------------------------------------------------

 Alpha MOs
 -- Occupied --
-91.9755 -11.2817 -11.2708 -11.2431 -11.2414 -11.2219  -8.9756  -6.6565
 -6.6559  -6.6554  -1.1589  -1.0376  -0.9736  -0.9163  -0.7556  -0.7247
 -0.6719  -0.5969  -0.5709  -0.5574  -0.5409  -0.4946  -0.4682  -0.4396
 -0.3441  -0.3105

          Ground-State Mulliken Net Atomic Charges

     Atom                 Charge (a.u.)
  ----------------------------------------
      1 C                     0.017810
      2 S                    -0.004791
      3 C                    -0.223314
      4 C                    -0.218664
      5 C                    -0.196611
      6 H                     0.181198
      7 H                     0.187520
      8 C                    -0.361913
      9 H                     0.124545
     10 H                     0.139069
     11 H                     0.151198
     12 H                     0.203954
  ----------------------------------------
  Sum of atomic charges =     0.000000

                    Cartesian Multipole Moments
 -----------------------------------------------------------------
    Charge (ESU x 10^10)
                -0.0000
    Dipole Moment (Debye)
         X       0.8777      Y      -0.3018      Z      -1.7327
       Tot       1.9656
    Quadrupole Moments (Debye-Ang)
        XX     -46.1494     XY       3.1383     YY     -37.8967
        XZ       0.5935     YZ       2.0289     ZZ     -41.8842

 Total job time:  10.61s(wall), 561.28s(cpu)
        *  Thank you very much for using Q-Chem.  Have a nice day.  *
