 Q-Chem 5.4, Q-Chem, Inc., Pleasanton, CA (2021)
 Q-Chem 5.4.0 for Intel X86 EM64T Linux

User input:
--------------------------------------------------------------
$molecule
0 1
C	-0.050352	-0.397395	-0.212476
S	0.018548	0.392805	1.368024
C	0.161248	2.024305	0.692424
C	0.036448	0.596805	-1.197876
C	0.151448	1.912005	-0.705976
H	0.015948	0.362105	-2.272376
H	0.228148	2.789605	-1.365076
C	-0.050352	-1.875595	-0.212476
H	0.885248	-1.876195	-0.751976
H	0.442948	-2.314895	0.642024
H	-0.456952	-2.586595	-0.916476
H	0.237948	2.901605	1.343524
$end

$rem
JOBTYPE		SP
EXCHANGE	HF
CORRELATION	pRIMP2
BASIS		cc-pvtz
METHOD		rimp2
AUX_BASIS	rimp2-cc-pvtz
SOLVENT_METHOD	PCM
PURECART	11111
SYMMETRY	false
MEM_TOTAL	110000
SCF_CONVERGENCE = 6
THRESH=10
GUI = 2
$end

$solvent
dielectric 4.90
$end
--------------------------------------------------------------

             Standard Nuclear Orientation (Angstroms)
    I     Atom           X                Y                Z
 ----------------------------------------------------------------
    1      C      -0.0503520000    -0.3973950000    -0.2124760000
    2      S       0.0185480000     0.3928050000     1.3680240000
    3      C       0.1612480000     2.0243050000     0.6924240000
    4      C       0.0364480000     0.5968050000    -1.1978760000
    5      C       0.1514480000     1.9120050000    -0.7059760000
    6      H       0.0159480000     0.3621050000    -2.2723760000
    7      H       0.2281480000     2.7896050000    -1.3650760000
    8      C      -0.0503520000    -1.8755950000    -0.2124760000
    9      H       0.8852480000    -1.8761950000    -0.7519760000
   10      H       0.4429480000    -2.3148950000     0.6420240000
   11      H      -0.4569520000    -2.5865950000    -0.9164760000
   12      H       0.2379480000     2.9016050000     1.3435240000
 ----------------------------------------------------------------

   10    -590.3735537100      6.17e-07  Convergence criterion met
 Total energy in the final basis set =     -590.3735537100
        RIMP2         total energy =      -591.3743073798 a.u.

                    Orbital Energies (a.u.)
 --------------------------------------------------------------

 Alpha MOs
 -- Occupied --
-91.9789 -11.2907 -11.2627 -11.2430 -11.2322 -11.2271  -8.9787  -6.6595
 -6.6590  -6.6585  -1.1569  -1.0400  -0.9716  -0.9193  -0.7542  -0.7227
 -0.6716  -0.5974  -0.5661  -0.5550  -0.5447  -0.4980  -0.4720  -0.4536
 -0.3459  -0.3004

          Ground-State Mulliken Net Atomic Charges

     Atom                 Charge (a.u.)
  ----------------------------------------
      1 C                     0.035151
      2 S                     0.000333
      3 C                    -0.247244
      4 C                    -0.241674
      5 C                    -0.188183
      6 H                     0.180214
      7 H                     0.185539
      8 C                    -0.364521
      9 H                     0.138286
     10 H                     0.137584
     11 H                     0.161076
     12 H                     0.203441
  ----------------------------------------
  Sum of atomic charges =     0.000000

                    Cartesian Multipole Moments
 -----------------------------------------------------------------
    Charge (ESU x 10^10)
                 0.0000
    Dipole Moment (Debye)
         X       0.7351      Y      -0.7633      Z      -1.4110
       Tot       1.7646
    Quadrupole Moments (Debye-Ang)
        XX     -48.1047     XY      -0.4450     YY     -36.0848
        XZ       0.2229     YZ       1.7252     ZZ     -41.6996

 Total job time:  11.45s(wall), 575.79s(cpu)
        *  Thank you very much for using Q-Chem.  Have a nice day.  *
