 Q-Chem 5.4, Q-Chem, Inc., Pleasanton, CA (2021)
 Q-Chem 5.4.0 for Intel X86 EM64T Linux

User input:
--------------------------------------------------------------
$molecule
0 1
C	-0.128593	-0.381707	-0.215530
S	0.076507	0.384493	1.364970
C	0.500307	1.966393	0.689370
C	0.129507	0.582293	-1.200930
C	0.471107	1.857593	-0.709030
H	0.068607	0.354693	-2.275430
H	0.699107	2.708493	-1.368130
C	-0.128593	-1.859907	-0.215530
H	-1.143593	-1.860507	0.153370
H	-0.465993	-2.299207	-1.142630
H	0.149607	-2.570907	0.548370
H	0.728207	2.817093	1.340470
$end

$rem
JOBTYPE		SP
EXCHANGE	HF
CORRELATION	pRIMP2
BASIS		cc-pvtz
METHOD		rimp2
AUX_BASIS	rimp2-cc-pvtz
SOLVENT_METHOD	PCM
PURECART	11111
SYMMETRY	false
MEM_TOTAL	110000
SCF_CONVERGENCE = 6
THRESH=10
GUI = 2
$end

$solvent
dielectric 4.90
$end
--------------------------------------------------------------

             Standard Nuclear Orientation (Angstroms)
    I     Atom           X                Y                Z
 ----------------------------------------------------------------
    1      C      -0.1285930000    -0.3817070000    -0.2155300000
    2      S       0.0765070000     0.3844930000     1.3649700000
    3      C       0.5003070000     1.9663930000     0.6893700000
    4      C       0.1295070000     0.5822930000    -1.2009300000
    5      C       0.4711070000     1.8575930000    -0.7090300000
    6      H       0.0686070000     0.3546930000    -2.2754300000
    7      H       0.6991070000     2.7084930000    -1.3681300000
    8      C      -0.1285930000    -1.8599070000    -0.2155300000
    9      H      -1.1435930000    -1.8605070000     0.1533700000
   10      H      -0.4659930000    -2.2992070000    -1.1426300000
   11      H       0.1496070000    -2.5709070000     0.5483700000
   12      H       0.7282070000     2.8170930000     1.3404700000
 ----------------------------------------------------------------

   10    -590.3670758700      6.06e-07  Convergence criterion met
 Total energy in the final basis set =     -590.3670758700
        RIMP2         total energy =      -591.3688409153 a.u.

                    Orbital Energies (a.u.)
 --------------------------------------------------------------

 Alpha MOs
 -- Occupied --
-91.9774 -11.2878 -11.2657 -11.2429 -11.2344 -11.2257  -8.9774  -6.6583
 -6.6578  -6.6572  -1.1572  -1.0397  -0.9717  -0.9197  -0.7558  -0.7213
 -0.6704  -0.5979  -0.5652  -0.5578  -0.5463  -0.4904  -0.4730  -0.4545
 -0.3462  -0.2996

          Ground-State Mulliken Net Atomic Charges

     Atom                 Charge (a.u.)
  ----------------------------------------
      1 C                     0.000400
      2 S                    -0.011078
      3 C                    -0.233326
      4 C                    -0.214261
      5 C                    -0.195017
      6 H                     0.184370
      7 H                     0.184910
      8 C                    -0.356703
      9 H                     0.134711
     10 H                     0.131888
     11 H                     0.169264
     12 H                     0.204842
  ----------------------------------------
  Sum of atomic charges =     0.000000

                    Cartesian Multipole Moments
 -----------------------------------------------------------------
    Charge (ESU x 10^10)
                -0.0000
    Dipole Moment (Debye)
         X      -0.3697      Y      -0.6362      Z      -0.8524
       Tot       1.1260
    Quadrupole Moments (Debye-Ang)
        XX     -47.4866     XY       3.5478     YY     -36.5286
        XZ       0.5305     YZ       0.1274     ZZ     -41.8543

 Total job time:  10.02s(wall), 536.93s(cpu)
        *  Thank you very much for using Q-Chem.  Have a nice day.  *
