 Q-Chem 5.4, Q-Chem, Inc., Pleasanton, CA (2021)
 Q-Chem 5.4.0 for Intel X86 EM64T Linux

User input:
--------------------------------------------------------------
$molecule
0 1
C	-0.260054	-0.329934	-0.208929
S	0.136346	0.357066	1.371571
C	0.955146	1.775366	0.695971
C	0.238746	0.534466	-1.194329
C	0.898846	1.677866	-0.702429
H	0.120946	0.330366	-2.268829
H	1.339246	2.440766	-1.361529
C	-0.260054	-1.808134	-0.208929
H	-0.259554	-1.808734	-1.288929
H	0.726546	-2.247434	-0.208929
H	-1.073054	-2.519134	-0.208829
H	1.395446	2.538166	1.347071
$end

$rem
JOBTYPE		SP
EXCHANGE	HF
CORRELATION	pRIMP2
BASIS		cc-pvtz
METHOD		rimp2
AUX_BASIS	rimp2-cc-pvtz
SOLVENT_METHOD	PCM
PURECART	11111
SYMMETRY	false
MEM_TOTAL	110000
SCF_CONVERGENCE = 6
THRESH=10
GUI = 2
$end

$solvent
dielectric 4.90
$end
--------------------------------------------------------------

             Standard Nuclear Orientation (Angstroms)
    I     Atom           X                Y                Z
 ----------------------------------------------------------------
    1      C      -0.2600540000    -0.3299340000    -0.2089290000
    2      S       0.1363460000     0.3570660000     1.3715710000
    3      C       0.9551460000     1.7753660000     0.6959710000
    4      C       0.2387460000     0.5344660000    -1.1943290000
    5      C       0.8988460000     1.6778660000    -0.7024290000
    6      H       0.1209460000     0.3303660000    -2.2688290000
    7      H       1.3392460000     2.4407660000    -1.3615290000
    8      C      -0.2600540000    -1.8081340000    -0.2089290000
    9      H      -0.2595540000    -1.8087340000    -1.2889290000
   10      H       0.7265460000    -2.2474340000    -0.2089290000
   11      H      -1.0730540000    -2.5191340000    -0.2088290000
   12      H       1.3954460000     2.5381660000     1.3470710000
 ----------------------------------------------------------------

   10    -590.3583043208      6.95e-07  Convergence criterion met
 Total energy in the final basis set =     -590.3583043208
        RIMP2         total energy =      -591.3639152703 a.u.

                    Orbital Energies (a.u.)
 --------------------------------------------------------------

 Alpha MOs
 -- Occupied --
-91.9740 -11.2783 -11.2738 -11.2450 -11.2431 -11.2211  -8.9743  -6.6552
 -6.6546  -6.6541  -1.1596  -1.0371  -0.9741  -0.9159  -0.7560  -0.7253
 -0.6719  -0.5964  -0.5724  -0.5585  -0.5392  -0.4957  -0.4672  -0.4339
 -0.3440  -0.3131

          Ground-State Mulliken Net Atomic Charges

     Atom                 Charge (a.u.)
  ----------------------------------------
      1 C                     0.004492
      2 S                    -0.004499
      3 C                    -0.214641
      4 C                    -0.207799
      5 C                    -0.200745
      6 H                     0.181630
      7 H                     0.187925
      8 C                    -0.355637
      9 H                     0.114497
     10 H                     0.137646
     11 H                     0.152717
     12 H                     0.204414
  ----------------------------------------
  Sum of atomic charges =     0.000000

                    Cartesian Multipole Moments
 -----------------------------------------------------------------
    Charge (ESU x 10^10)
                -0.0000
    Dipole Moment (Debye)
         X       0.8411      Y      -0.1871      Z      -1.7811
       Tot       1.9786
    Quadrupole Moments (Debye-Ang)
        XX     -45.3078     XY       4.1770     YY     -38.5179
        XZ       0.4802     YZ       1.9664     ZZ     -41.9668

 Total job time:  11.37s(wall), 586.35s(cpu)
        *  Thank you very much for using Q-Chem.  Have a nice day.  *
