 Q-Chem 5.4, Q-Chem, Inc., Pleasanton, CA (2021)
 Q-Chem 5.4.0 for Intel X86 EM64T Linux

User input:
--------------------------------------------------------------
$molecule
0 1
C	-0.264064	-0.329934	-0.217210
S	0.132336	0.357066	1.363290
C	0.951136	1.775366	0.687690
C	0.234736	0.534466	-1.202610
C	0.894836	1.677866	-0.710710
H	0.116936	0.330366	-2.277110
H	1.335236	2.440766	-1.369810
C	-0.264064	-1.808134	-0.217210
H	0.750636	-1.808734	0.152690
H	-0.601564	-2.247434	0.709890
H	0.013836	-2.519134	-0.981210
H	1.391436	2.538166	1.338790
$end

$rem
JOBTYPE		SP
EXCHANGE	HF
CORRELATION	pRIMP2
BASIS		cc-pvtz
METHOD		rimp2
AUX_BASIS	rimp2-cc-pvtz
SOLVENT_METHOD	PCM
PURECART	11111
SYMMETRY	false
MEM_TOTAL	110000
SCF_CONVERGENCE = 6
THRESH=10
GUI = 2
$end

$solvent
dielectric 4.90
$end
--------------------------------------------------------------

             Standard Nuclear Orientation (Angstroms)
    I     Atom           X                Y                Z
 ----------------------------------------------------------------
    1      C      -0.2640640000    -0.3299340000    -0.2172100000
    2      S       0.1323360000     0.3570660000     1.3632900000
    3      C       0.9511360000     1.7753660000     0.6876900000
    4      C       0.2347360000     0.5344660000    -1.2026100000
    5      C       0.8948360000     1.6778660000    -0.7107100000
    6      H       0.1169360000     0.3303660000    -2.2771100000
    7      H       1.3352360000     2.4407660000    -1.3698100000
    8      C      -0.2640640000    -1.8081340000    -0.2172100000
    9      H       0.7506360000    -1.8087340000     0.1526900000
   10      H      -0.6015640000    -2.2474340000     0.7098900000
   11      H       0.0138360000    -2.5191340000    -0.9812100000
   12      H       1.3914360000     2.5381660000     1.3387900000
 ----------------------------------------------------------------

   10    -590.3582951467      6.48e-07  Convergence criterion met
 Total energy in the final basis set =     -590.3582951467
        RIMP2         total energy =      -591.3614257022 a.u.

                    Orbital Energies (a.u.)
 --------------------------------------------------------------

 Alpha MOs
 -- Occupied --
-91.9768 -11.2857 -11.2689 -11.2434 -11.2348 -11.2262  -8.9772  -6.6581
 -6.6576  -6.6570  -1.1609  -1.0404  -0.9728  -0.9154  -0.7575  -0.7223
 -0.6717  -0.5956  -0.5677  -0.5617  -0.5335  -0.5007  -0.4712  -0.4555
 -0.3472  -0.2980

          Ground-State Mulliken Net Atomic Charges

     Atom                 Charge (a.u.)
  ----------------------------------------
      1 C                     0.017621
      2 S                    -0.005193
      3 C                    -0.237513
      4 C                    -0.247442
      5 C                    -0.178589
      6 H                     0.181037
      7 H                     0.187290
      8 C                    -0.357768
      9 H                     0.143912
     10 H                     0.128597
     11 H                     0.163223
     12 H                     0.204825
  ----------------------------------------
  Sum of atomic charges =     0.000000

                    Cartesian Multipole Moments
 -----------------------------------------------------------------
    Charge (ESU x 10^10)
                 0.0000
    Dipole Moment (Debye)
         X       1.3280      Y      -0.6258      Z      -0.8727
       Tot       1.7078
    Quadrupole Moments (Debye-Ang)
        XX     -46.3817     XY       2.6744     YY     -38.3423
        XZ      -0.0940     YZ       0.5834     ZZ     -41.8200

 Total job time:  11.34s(wall), 574.00s(cpu)
        *  Thank you very much for using Q-Chem.  Have a nice day.  *
