 Q-Chem 5.4, Q-Chem, Inc., Pleasanton, CA (2021)
 Q-Chem 5.4.0 for Intel X86 EM64T Linux

User input:
--------------------------------------------------------------
$molecule
0 1
C	-0.179992	-0.368118	-0.209570
S	0.091108	0.377282	1.370930
C	0.651208	1.916282	0.695330
C	0.161208	0.569782	-1.194970
C	0.612608	1.810382	-0.703070
H	0.080608	0.348282	-2.269470
H	0.913908	2.638182	-1.362170
C	-0.179992	-1.846318	-0.209570
H	0.189908	-1.846918	-1.224270
H	0.747108	-2.285618	0.127930
H	-0.943992	-2.557318	-0.487470
H	0.952308	2.743882	1.346430
$end

$rem
JOBTYPE		SP
EXCHANGE	HF
CORRELATION	pRIMP2
BASIS		cc-pvtz
METHOD		rimp2
AUX_BASIS	rimp2-cc-pvtz
SOLVENT_METHOD	PCM
PURECART	11111
SYMMETRY	false
MEM_TOTAL	110000
SCF_CONVERGENCE = 6
THRESH=10
GUI = 2
$end

$solvent
dielectric 4.90
$end
--------------------------------------------------------------

             Standard Nuclear Orientation (Angstroms)
    I     Atom           X                Y                Z
 ----------------------------------------------------------------
    1      C      -0.1799920000    -0.3681180000    -0.2095700000
    2      S       0.0911080000     0.3772820000     1.3709300000
    3      C       0.6512080000     1.9162820000     0.6953300000
    4      C       0.1612080000     0.5697820000    -1.1949700000
    5      C       0.6126080000     1.8103820000    -0.7030700000
    6      H       0.0806080000     0.3482820000    -2.2694700000
    7      H       0.9139080000     2.6381820000    -1.3621700000
    8      C      -0.1799920000    -1.8463180000    -0.2095700000
    9      H       0.1899080000    -1.8469180000    -1.2242700000
   10      H       0.7471080000    -2.2856180000     0.1279300000
   11      H      -0.9439920000    -2.5573180000    -0.4874700000
   12      H       0.9523080000     2.7438820000     1.3464300000
 ----------------------------------------------------------------

   10    -590.3667844150      6.11e-07  Convergence criterion met
 Total energy in the final basis set =     -590.3667844150
        RIMP2         total energy =      -591.3702027475 a.u.

                    Orbital Energies (a.u.)
 --------------------------------------------------------------

 Alpha MOs
 -- Occupied --
-91.9756 -11.2835 -11.2696 -11.2430 -11.2407 -11.2227  -8.9757  -6.6565
 -6.6560  -6.6555  -1.1582  -1.0378  -0.9732  -0.9173  -0.7551  -0.7245
 -0.6720  -0.5971  -0.5706  -0.5579  -0.5405  -0.4965  -0.4682  -0.4399
 -0.3444  -0.3106

          Ground-State Mulliken Net Atomic Charges

     Atom                 Charge (a.u.)
  ----------------------------------------
      1 C                     0.025389
      2 S                    -0.006214
      3 C                    -0.226312
      4 C                    -0.223116
      5 C                    -0.196230
      6 H                     0.181766
      7 H                     0.187270
      8 C                    -0.362188
      9 H                     0.124251
     10 H                     0.138319
     11 H                     0.153114
     12 H                     0.203952
  ----------------------------------------
  Sum of atomic charges =     0.000000

                    Cartesian Multipole Moments
 -----------------------------------------------------------------
    Charge (ESU x 10^10)
                -0.0000
    Dipole Moment (Debye)
         X       0.7337      Y      -0.3367      Z      -1.7348
       Tot       1.9134
    Quadrupole Moments (Debye-Ang)
        XX     -46.6526     XY       2.5670     YY     -37.2540
        XZ       0.5165     YZ       2.0685     ZZ     -41.9388

 Total job time:  10.86s(wall), 567.28s(cpu)
        *  Thank you very much for using Q-Chem.  Have a nice day.  *
