 Q-Chem 5.4, Q-Chem, Inc., Pleasanton, CA (2021)
 Q-Chem 5.4.0 for Intel X86 EM64T Linux

User input:
--------------------------------------------------------------
$molecule
0 1
C	-0.223392	-0.350804	-0.218020
S	0.111608	0.368096	1.362480
C	0.803708	1.852396	0.686880
C	0.198208	0.553796	-1.203420
C	0.756108	1.750296	-0.711520
H	0.098608	0.340196	-2.277920
H	1.128308	2.548796	-1.370620
C	-0.223392	-1.829004	-0.218020
H	0.711608	-1.829604	0.322480
H	-0.716692	-2.268304	0.636380
H	0.183008	-2.540004	-0.922120
H	1.175808	2.650596	1.337980
$end

$rem
JOBTYPE		SP
EXCHANGE	HF
CORRELATION	pRIMP2
BASIS		cc-pvtz
METHOD		rimp2
AUX_BASIS	rimp2-cc-pvtz
SOLVENT_METHOD	PCM
PURECART	11111
SYMMETRY	false
MEM_TOTAL	110000
SCF_CONVERGENCE = 6
THRESH=10
GUI = 2
$end

$solvent
dielectric 4.90
$end
--------------------------------------------------------------

             Standard Nuclear Orientation (Angstroms)
    I     Atom           X                Y                Z
 ----------------------------------------------------------------
    1      C      -0.2233920000    -0.3508040000    -0.2180200000
    2      S       0.1116080000     0.3680960000     1.3624800000
    3      C       0.8037080000     1.8523960000     0.6868800000
    4      C       0.1982080000     0.5537960000    -1.2034200000
    5      C       0.7561080000     1.7502960000    -0.7115200000
    6      H       0.0986080000     0.3401960000    -2.2779200000
    7      H       1.1283080000     2.5487960000    -1.3706200000
    8      C      -0.2233920000    -1.8290040000    -0.2180200000
    9      H       0.7116080000    -1.8296040000     0.3224800000
   10      H      -0.7166920000    -2.2683040000     0.6363800000
   11      H       0.1830080000    -2.5400040000    -0.9221200000
   12      H       1.1758080000     2.6505960000     1.3379800000
 ----------------------------------------------------------------

   10    -590.3621995724      6.47e-07  Convergence criterion met
 Total energy in the final basis set =     -590.3621995724
        RIMP2         total energy =      -591.3643750581 a.u.

                    Orbital Energies (a.u.)
 --------------------------------------------------------------

 Alpha MOs
 -- Occupied --
-91.9768 -11.2862 -11.2684 -11.2430 -11.2348 -11.2256  -8.9772  -6.6581
 -6.6576  -6.6570  -1.1599  -1.0404  -0.9726  -0.9164  -0.7573  -0.7217
 -0.6717  -0.5957  -0.5677  -0.5624  -0.5328  -0.5015  -0.4703  -0.4550
 -0.3470  -0.2998

          Ground-State Mulliken Net Atomic Charges

     Atom                 Charge (a.u.)
  ----------------------------------------
      1 C                     0.022491
      2 S                    -0.005636
      3 C                    -0.237519
      4 C                    -0.252412
      5 C                    -0.178061
      6 H                     0.182446
      7 H                     0.186907
      8 C                    -0.359288
      9 H                     0.139868
     10 H                     0.131162
     11 H                     0.165240
     12 H                     0.204802
  ----------------------------------------
  Sum of atomic charges =     0.000000

                    Cartesian Multipole Moments
 -----------------------------------------------------------------
    Charge (ESU x 10^10)
                -0.0000
    Dipole Moment (Debye)
         X       1.1636      Y      -0.5837      Z      -0.7563
       Tot       1.5055
    Quadrupole Moments (Debye-Ang)
        XX     -46.8038     XY       2.2100     YY     -37.6637
        XZ      -0.2176     YZ       0.3406     ZZ     -41.9555

 Total job time:  10.90s(wall), 566.81s(cpu)
        *  Thank you very much for using Q-Chem.  Have a nice day.  *
