 Q-Chem 5.4, Q-Chem, Inc., Pleasanton, CA (2021)
 Q-Chem 5.4.0 for Intel X86 EM64T Linux

User input:
--------------------------------------------------------------
$molecule
0 1
C	0.001135	-0.399361	-0.208958
S	0.000935	0.393839	1.371542
C	0.000935	2.031539	0.695942
C	0.000935	0.598639	-1.194358
C	0.000835	1.918839	-0.702458
H	0.001035	0.362939	-2.268858
H	0.000835	2.799839	-1.361558
C	0.001135	-1.877561	-0.208958
H	-0.367765	-1.878161	-1.223958
H	0.928235	-2.316861	-0.546358
H	-0.762765	-2.588561	0.069242
H	0.000835	2.912239	1.347042
$end

$rem
JOBTYPE		SP
EXCHANGE	HF
CORRELATION	pRIMP2
BASIS		cc-pvtz
METHOD		rimp2
AUX_BASIS	rimp2-cc-pvtz
SOLVENT_METHOD	PCM
PURECART	11111
SYMMETRY	false
MEM_TOTAL	110000
SCF_CONVERGENCE = 6
THRESH=10
GUI = 2
$end

$solvent
dielectric 4.90
$end
--------------------------------------------------------------

             Standard Nuclear Orientation (Angstroms)
    I     Atom           X                Y                Z
 ----------------------------------------------------------------
    1      C       0.0011350000    -0.3993610000    -0.2089580000
    2      S       0.0009350000     0.3938390000     1.3715420000
    3      C       0.0009350000     2.0315390000     0.6959420000
    4      C       0.0009350000     0.5986390000    -1.1943580000
    5      C       0.0008350000     1.9188390000    -0.7024580000
    6      H       0.0010350000     0.3629390000    -2.2688580000
    7      H       0.0008350000     2.7998390000    -1.3615580000
    8      C       0.0011350000    -1.8775610000    -0.2089580000
    9      H      -0.3677650000    -1.8781610000    -1.2239580000
   10      H       0.9282350000    -2.3168610000    -0.5463580000
   11      H      -0.7627650000    -2.5885610000     0.0692420000
   12      H       0.0008350000     2.9122390000     1.3470420000
 ----------------------------------------------------------------

   10    -590.3731226555      5.80e-07  Convergence criterion met
 Total energy in the final basis set =     -590.3731226555
        RIMP2         total energy =      -591.3752278982 a.u.

                    Orbital Energies (a.u.)
 --------------------------------------------------------------

 Alpha MOs
 -- Occupied --
-91.9751 -11.2865 -11.2674 -11.2430 -11.2400 -11.2241  -8.9752  -6.6561
 -6.6555  -6.6550  -1.1568  -1.0383  -0.9725  -0.9194  -0.7541  -0.7240
 -0.6724  -0.5978  -0.5695  -0.5607  -0.5407  -0.4992  -0.4675  -0.4388
 -0.3450  -0.3104

          Ground-State Mulliken Net Atomic Charges

     Atom                 Charge (a.u.)
  ----------------------------------------
      1 C                     0.034989
      2 S                    -0.007014
      3 C                    -0.232842
      4 C                    -0.224642
      5 C                    -0.198482
      6 H                     0.182982
      7 H                     0.186451
      8 C                    -0.358729
      9 H                     0.121850
     10 H                     0.128156
     11 H                     0.163526
     12 H                     0.203753
  ----------------------------------------
  Sum of atomic charges =     0.000000

                    Cartesian Multipole Moments
 -----------------------------------------------------------------
    Charge (ESU x 10^10)
                -0.0000
    Dipole Moment (Debye)
         X      -0.2228      Y      -0.4213      Z      -1.7580
       Tot       1.8215
    Quadrupole Moments (Debye-Ang)
        XX     -47.5502     XY       0.7181     YY     -35.9937
        XZ      -0.2121     YZ       1.9758     ZZ     -42.0717

 Total job time:  10.28s(wall), 547.25s(cpu)
        *  Thank you very much for using Q-Chem.  Have a nice day.  *
