 Q-Chem 5.4, Q-Chem, Inc., Pleasanton, CA (2021)
 Q-Chem 5.4.0 for Intel X86 EM64T Linux

User input:
--------------------------------------------------------------
$molecule
0 1
C	-0.128804	-0.381707	-0.212630
S	0.076296	0.384493	1.367870
C	0.500096	1.966393	0.692270
C	0.129296	0.582293	-1.198030
C	0.470896	1.857593	-0.706130
H	0.068396	0.354693	-2.272530
H	0.698896	2.708493	-1.365230
C	-0.128804	-1.859907	-0.212630
H	-1.192304	-1.860507	-0.400730
H	0.042596	-2.299207	-1.184230
H	-0.269804	-2.570907	0.588070
H	0.727996	2.817093	1.343370
$end

$rem
JOBTYPE		SP
EXCHANGE	HF
CORRELATION	pRIMP2
BASIS		cc-pvtz
METHOD		rimp2
AUX_BASIS	rimp2-cc-pvtz
SOLVENT_METHOD	PCM
PURECART	11111
SYMMETRY	false
MEM_TOTAL	110000
SCF_CONVERGENCE = 6
THRESH=10
GUI = 2
$end

$solvent
dielectric 4.90
$end
--------------------------------------------------------------

             Standard Nuclear Orientation (Angstroms)
    I     Atom           X                Y                Z
 ----------------------------------------------------------------
    1      C      -0.1288040000    -0.3817070000    -0.2126300000
    2      S       0.0762960000     0.3844930000     1.3678700000
    3      C       0.5000960000     1.9663930000     0.6922700000
    4      C       0.1292960000     0.5822930000    -1.1980300000
    5      C       0.4708960000     1.8575930000    -0.7061300000
    6      H       0.0683960000     0.3546930000    -2.2725300000
    7      H       0.6988960000     2.7084930000    -1.3652300000
    8      C      -0.1288040000    -1.8599070000    -0.2126300000
    9      H      -1.1923040000    -1.8605070000    -0.4007300000
   10      H       0.0425960000    -2.2992070000    -1.1842300000
   11      H      -0.2698040000    -2.5709070000     0.5880700000
   12      H       0.7279960000     2.8170930000     1.3433700000
 ----------------------------------------------------------------

   10    -590.3665656628      6.30e-07  Convergence criterion met
 Total energy in the final basis set =     -590.3665656628
        RIMP2         total energy =      -591.3685557489 a.u.

                    Orbital Energies (a.u.)
 --------------------------------------------------------------

 Alpha MOs
 -- Occupied --
-91.9767 -11.2900 -11.2630 -11.2430 -11.2336 -11.2264  -8.9767  -6.6576
 -6.6570  -6.6565  -1.1567  -1.0398  -0.9711  -0.9198  -0.7543  -0.7219
 -0.6702  -0.5980  -0.5635  -0.5553  -0.5505  -0.4963  -0.4693  -0.4530
 -0.3458  -0.2972

          Ground-State Mulliken Net Atomic Charges

     Atom                 Charge (a.u.)
  ----------------------------------------
      1 C                     0.028390
      2 S                    -0.001656
      3 C                    -0.249303
      4 C                    -0.244818
      5 C                    -0.183526
      6 H                     0.180682
      7 H                     0.186361
      8 C                    -0.368370
      9 H                     0.137302
     10 H                     0.137937
     11 H                     0.173616
     12 H                     0.203384
  ----------------------------------------
  Sum of atomic charges =     0.000000

                    Cartesian Multipole Moments
 -----------------------------------------------------------------
    Charge (ESU x 10^10)
                -0.0000
    Dipole Moment (Debye)
         X      -0.4611      Y      -0.8190      Z      -1.2182
       Tot       1.5386
    Quadrupole Moments (Debye-Ang)
        XX     -47.5498     XY       3.7409     YY     -36.5551
        XZ       0.1712     YZ       0.7800     ZZ     -41.7046

 Total job time:  10.37s(wall), 544.49s(cpu)
        *  Thank you very much for using Q-Chem.  Have a nice day.  *
