 Q-Chem 5.4, Q-Chem, Inc., Pleasanton, CA (2021)
 Q-Chem 5.4.0 for Intel X86 EM64T Linux

User input:
--------------------------------------------------------------
$molecule
0 1
C	-0.449048	-0.140188	-0.220089
S	0.237752	0.256612	1.360411
C	1.656052	1.075412	0.684811
C	0.415152	0.358912	-1.205489
C	1.558452	1.019112	-0.713589
H	0.211052	0.241112	-2.279989
H	2.321352	1.459712	-1.372689
C	-0.449048	-1.618388	-0.220089
H	-0.262048	-1.618988	0.843611
H	-1.420648	-2.057688	-0.048789
H	0.351552	-2.329388	-0.361389
H	2.418652	1.515912	1.335911
$end

$rem
JOBTYPE		SP
EXCHANGE	HF
CORRELATION	pRIMP2
BASIS		cc-pvtz
METHOD		rimp2
AUX_BASIS	rimp2-cc-pvtz
SOLVENT_METHOD	PCM
PURECART	11111
SYMMETRY	false
MEM_TOTAL	110000
SCF_CONVERGENCE = 6
THRESH=10
GUI = 2
$end

$solvent
dielectric 4.90
$end
--------------------------------------------------------------

             Standard Nuclear Orientation (Angstroms)
    I     Atom           X                Y                Z
 ----------------------------------------------------------------
    1      C      -0.4490480000    -0.1401880000    -0.2200890000
    2      S       0.2377520000     0.2566120000     1.3604110000
    3      C       1.6560520000     1.0754120000     0.6848110000
    4      C       0.4151520000     0.3589120000    -1.2054890000
    5      C       1.5584520000     1.0191120000    -0.7135890000
    6      H       0.2110520000     0.2411120000    -2.2799890000
    7      H       2.3213520000     1.4597120000    -1.3726890000
    8      C      -0.4490480000    -1.6183880000    -0.2200890000
    9      H      -0.2620480000    -1.6189880000     0.8436110000
   10      H      -1.4206480000    -2.0576880000    -0.0487890000
   11      H       0.3515520000    -2.3293880000    -0.3613890000
   12      H       2.4186520000     1.5159120000     1.3359110000
 ----------------------------------------------------------------

   11    -590.2866151121      4.48e-07  Convergence criterion met
 Total energy in the final basis set =     -590.2866151121
        RIMP2         total energy =      -591.3013508581 a.u.

                    Orbital Energies (a.u.)
 --------------------------------------------------------------

 Alpha MOs
 -- Occupied --
-91.9736 -11.2955 -11.2611 -11.2471 -11.2432 -11.2083  -8.9753  -6.6560
 -6.6549  -6.6548  -1.1719  -1.0388  -0.9821  -0.9034  -0.7700  -0.7275
 -0.6726  -0.5885  -0.5775  -0.5636  -0.5417  -0.4728  -0.4631  -0.4376
 -0.3338  -0.3115

          Ground-State Mulliken Net Atomic Charges

     Atom                 Charge (a.u.)
  ----------------------------------------
      1 C                    -0.130053
      2 S                     0.004980
      3 C                    -0.149438
      4 C                    -0.072463
      5 C                    -0.247407
      6 H                     0.189002
      7 H                     0.186240
      8 C                    -0.363800
      9 H                     0.125494
     10 H                     0.105070
     11 H                     0.142986
     12 H                     0.209390
  ----------------------------------------
  Sum of atomic charges =     0.000000

                    Cartesian Multipole Moments
 -----------------------------------------------------------------
    Charge (ESU x 10^10)
                 0.0000
    Dipole Moment (Debye)
         X       2.6074      Y       0.1185      Z      -0.5211
       Tot       2.6616
    Quadrupole Moments (Debye-Ang)
        XX     -41.2295     XY       3.8229     YY     -44.1181
        XZ       0.4046     YZ      -0.7885     ZZ     -41.2810

 Total job time:  12.04s(wall), 605.89s(cpu)
        *  Thank you very much for using Q-Chem.  Have a nice day.  *
