 Q-Chem 5.4, Q-Chem, Inc., Pleasanton, CA (2021)
 Q-Chem 5.4.0 for Intel X86 EM64T Linux

User input:
--------------------------------------------------------------
$molecule
0 1
C	-0.253856	-0.329934	-0.212630
S	0.142544	0.357066	1.367870
C	0.961344	1.775366	0.692270
C	0.244944	0.534466	-1.198030
C	0.905044	1.677866	-0.706130
H	0.127144	0.330366	-2.272530
H	1.345444	2.440766	-1.365230
C	-0.253856	-1.808134	-0.212630
H	-1.317356	-1.808734	-0.400730
H	-0.082456	-2.247434	-1.184230
H	-0.394856	-2.519134	0.588070
H	1.401644	2.538166	1.343370
$end

$rem
JOBTYPE		SP
EXCHANGE	HF
CORRELATION	pRIMP2
BASIS		cc-pvtz
METHOD		rimp2
AUX_BASIS	rimp2-cc-pvtz
SOLVENT_METHOD	PCM
PURECART	11111
SYMMETRY	false
MEM_TOTAL	110000
SCF_CONVERGENCE = 6
THRESH=10
GUI = 2
$end

$solvent
dielectric 4.90
$end
--------------------------------------------------------------

             Standard Nuclear Orientation (Angstroms)
    I     Atom           X                Y                Z
 ----------------------------------------------------------------
    1      C      -0.2538560000    -0.3299340000    -0.2126300000
    2      S       0.1425440000     0.3570660000     1.3678700000
    3      C       0.9613440000     1.7753660000     0.6922700000
    4      C       0.2449440000     0.5344660000    -1.1980300000
    5      C       0.9050440000     1.6778660000    -0.7061300000
    6      H       0.1271440000     0.3303660000    -2.2725300000
    7      H       1.3454440000     2.4407660000    -1.3652300000
    8      C      -0.2538560000    -1.8081340000    -0.2126300000
    9      H      -1.3173560000    -1.8087340000    -0.4007300000
   10      H      -0.0824560000    -2.2474340000    -1.1842300000
   11      H      -0.3948560000    -2.5191340000     0.5880700000
   12      H       1.4016440000     2.5381660000     1.3433700000
 ----------------------------------------------------------------

   10    -590.3501679911      7.09e-07  Convergence criterion met
 Total energy in the final basis set =     -590.3501679911
        RIMP2         total energy =      -591.3561954261 a.u.

                    Orbital Energies (a.u.)
 --------------------------------------------------------------

 Alpha MOs
 -- Occupied --
-91.9757 -11.2823 -11.2680 -11.2432 -11.2377 -11.2219  -8.9759  -6.6567
 -6.6561  -6.6556  -1.1580  -1.0379  -0.9721  -0.9179  -0.7557  -0.7224
 -0.6696  -0.5958  -0.5616  -0.5559  -0.5508  -0.4977  -0.4630  -0.4497
 -0.3453  -0.2961

          Ground-State Mulliken Net Atomic Charges

     Atom                 Charge (a.u.)
  ----------------------------------------
      1 C                     0.003296
      2 S                     0.000387
      3 C                    -0.233290
      4 C                    -0.222439
      5 C                    -0.187937
      6 H                     0.181588
      7 H                     0.186865
      8 C                    -0.369998
      9 H                     0.131631
     10 H                     0.137327
     11 H                     0.168883
     12 H                     0.203687
  ----------------------------------------
  Sum of atomic charges =     0.000000

                    Cartesian Multipole Moments
 -----------------------------------------------------------------
    Charge (ESU x 10^10)
                 0.0000
    Dipole Moment (Debye)
         X      -0.0355      Y      -0.5800      Z      -1.2382
       Tot       1.3678
    Quadrupole Moments (Debye-Ang)
        XX     -45.8347     XY       5.3301     YY     -38.4749
        XZ       0.3132     YZ       0.7064     ZZ     -41.5233

 Total job time:  10.84s(wall), 566.82s(cpu)
        *  Thank you very much for using Q-Chem.  Have a nice day.  *
