 Q-Chem 5.4, Q-Chem, Inc., Pleasanton, CA (2021)
 Q-Chem 5.4.0 for Intel X86 EM64T Linux

User input:
--------------------------------------------------------------
$molecule
0 1
C	-0.039855	-0.397395	-0.216471
S	0.029045	0.392805	1.364029
C	0.171745	2.024305	0.688429
C	0.046945	0.596805	-1.201871
C	0.161945	1.912005	-0.709971
H	0.026445	0.362105	-2.276371
H	0.238645	2.789605	-1.369071
C	-0.039855	-1.875595	-0.216471
H	-0.975455	-1.876195	0.323029
H	-0.533155	-2.314895	-1.070971
H	0.366745	-2.586595	0.487529
H	0.248445	2.901605	1.339529
$end

$rem
JOBTYPE		SP
EXCHANGE	HF
CORRELATION	pRIMP2
BASIS		cc-pvtz
METHOD		rimp2
AUX_BASIS	rimp2-cc-pvtz
SOLVENT_METHOD	PCM
PURECART	11111
SYMMETRY	false
MEM_TOTAL	110000
SCF_CONVERGENCE = 6
THRESH=10
GUI = 2
$end

$solvent
dielectric 4.90
$end
--------------------------------------------------------------

             Standard Nuclear Orientation (Angstroms)
    I     Atom           X                Y                Z
 ----------------------------------------------------------------
    1      C      -0.0398550000    -0.3973950000    -0.2164710000
    2      S       0.0290450000     0.3928050000     1.3640290000
    3      C       0.1717450000     2.0243050000     0.6884290000
    4      C       0.0469450000     0.5968050000    -1.2018710000
    5      C       0.1619450000     1.9120050000    -0.7099710000
    6      H       0.0264450000     0.3621050000    -2.2763710000
    7      H       0.2386450000     2.7896050000    -1.3690710000
    8      C      -0.0398550000    -1.8755950000    -0.2164710000
    9      H      -0.9754550000    -1.8761950000     0.3230290000
   10      H      -0.5331550000    -2.3148950000    -1.0709710000
   11      H       0.3667450000    -2.5865950000     0.4875290000
   12      H       0.2484450000     2.9016050000     1.3395290000
 ----------------------------------------------------------------

   10    -590.3724648806      6.02e-07  Convergence criterion met
 Total energy in the final basis set =     -590.3724648806
        RIMP2         total energy =      -591.3729822357 a.u.

                    Orbital Energies (a.u.)
 --------------------------------------------------------------

 Alpha MOs
 -- Occupied --
-91.9775 -11.2892 -11.2653 -11.2428 -11.2341 -11.2266  -8.9776  -6.6585
 -6.6580  -6.6574  -1.1572  -1.0403  -0.9717  -0.9198  -0.7560  -0.7210
 -0.6709  -0.5985  -0.5669  -0.5591  -0.5426  -0.4924  -0.4739  -0.4542
 -0.3465  -0.3017

          Ground-State Mulliken Net Atomic Charges

     Atom                 Charge (a.u.)
  ----------------------------------------
      1 C                     0.011559
      2 S                    -0.011335
      3 C                    -0.236601
      4 C                    -0.221188
      5 C                    -0.193482
      6 H                     0.184858
      7 H                     0.185056
      8 C                    -0.353049
      9 H                     0.131551
     10 H                     0.132494
     11 H                     0.165470
     12 H                     0.204666
  ----------------------------------------
  Sum of atomic charges =     0.000000

                    Cartesian Multipole Moments
 -----------------------------------------------------------------
    Charge (ESU x 10^10)
                -0.0000
    Dipole Moment (Debye)
         X      -0.5179      Y      -0.6346      Z      -0.7446
       Tot       1.1070
    Quadrupole Moments (Debye-Ang)
        XX     -47.9961     XY       1.9420     YY     -35.9279
        XZ       0.5112     YZ      -0.0564     ZZ     -42.0136

 Total job time:  10.92s(wall), 563.38s(cpu)
        *  Thank you very much for using Q-Chem.  Have a nice day.  *
