 Q-Chem 5.4, Q-Chem, Inc., Pleasanton, CA (2021)
 Q-Chem 5.4.0 for Intel X86 EM64T Linux

User input:
--------------------------------------------------------------
$molecule
0 1
C	-0.444062	-0.140188	-0.211737
S	0.242738	0.256612	1.368763
C	1.661038	1.075412	0.693163
C	0.420138	0.358912	-1.197137
C	1.563438	1.019112	-0.705237
H	0.216038	0.241112	-2.271637
H	2.326338	1.459712	-1.364337
C	-0.444062	-1.618388	-0.211737
H	-1.458762	-1.618988	-0.581637
H	-0.106562	-2.057688	-1.138837
H	-0.721962	-2.329388	0.552263
H	2.423638	1.515912	1.344263
$end

$rem
JOBTYPE		SP
EXCHANGE	HF
CORRELATION	pRIMP2
BASIS		cc-pvtz
METHOD		rimp2
AUX_BASIS	rimp2-cc-pvtz
SOLVENT_METHOD	PCM
PURECART	11111
SYMMETRY	false
MEM_TOTAL	110000
SCF_CONVERGENCE = 6
THRESH=10
GUI = 2
$end

$solvent
dielectric 4.90
$end
--------------------------------------------------------------

             Standard Nuclear Orientation (Angstroms)
    I     Atom           X                Y                Z
 ----------------------------------------------------------------
    1      C      -0.4440620000    -0.1401880000    -0.2117370000
    2      S       0.2427380000     0.2566120000     1.3687630000
    3      C       1.6610380000     1.0754120000     0.6931630000
    4      C       0.4201380000     0.3589120000    -1.1971370000
    5      C       1.5634380000     1.0191120000    -0.7052370000
    6      H       0.2160380000     0.2411120000    -2.2716370000
    7      H       2.3263380000     1.4597120000    -1.3643370000
    8      C      -0.4440620000    -1.6183880000    -0.2117370000
    9      H      -1.4587620000    -1.6189880000    -0.5816370000
   10      H      -0.1065620000    -2.0576880000    -1.1388370000
   11      H      -0.7219620000    -2.3293880000     0.5522630000
   12      H       2.4236380000     1.5159120000     1.3442630000
 ----------------------------------------------------------------

   11    -590.2910762529      7.84e-07  Convergence criterion met
 Total energy in the final basis set =     -590.2910762529
        RIMP2         total energy =      -591.3075356938 a.u.

                    Orbital Energies (a.u.)
 --------------------------------------------------------------

 Alpha MOs
 -- Occupied --
-91.9732 -11.2904 -11.2576 -11.2491 -11.2450 -11.2103  -8.9741  -6.6548
 -6.6538  -6.6537  -1.1672  -1.0354  -0.9781  -0.9086  -0.7626  -0.7286
 -0.6700  -0.5916  -0.5687  -0.5562  -0.5432  -0.4998  -0.4602  -0.4235
 -0.3428  -0.2935

          Ground-State Mulliken Net Atomic Charges

     Atom                 Charge (a.u.)
  ----------------------------------------
      1 C                    -0.108765
      2 S                     0.013701
      3 C                    -0.159576
      4 C                    -0.103077
      5 C                    -0.234494
      6 H                     0.187306
      7 H                     0.186256
      8 C                    -0.391126
      9 H                     0.122697
     10 H                     0.125734
     11 H                     0.155192
     12 H                     0.206150
  ----------------------------------------
  Sum of atomic charges =     0.000000

                    Cartesian Multipole Moments
 -----------------------------------------------------------------
    Charge (ESU x 10^10)
                 0.0000
    Dipole Moment (Debye)
         X       1.7129      Y      -0.1335      Z      -1.3682
       Tot       2.1963
    Quadrupole Moments (Debye-Ang)
        XX     -41.2476     XY       5.4937     YY     -43.8624
        XZ       0.5603     YZ       0.4981     ZZ     -40.6994

 Total job time:  13.00s(wall), 639.95s(cpu)
        *  Thank you very much for using Q-Chem.  Have a nice day.  *
