 Q-Chem 5.4, Q-Chem, Inc., Pleasanton, CA (2021)
 Q-Chem 5.4.0 for Intel X86 EM64T Linux

User input:
--------------------------------------------------------------
$molecule
0 1
C	-0.000003	-0.399361	-0.220089
S	-0.000203	0.393839	1.360411
C	-0.000203	2.031539	0.684811
C	-0.000203	0.598639	-1.205489
C	-0.000303	1.918839	-0.713589
H	-0.000103	0.362939	-2.279989
H	-0.000303	2.799839	-1.372689
C	-0.000003	-1.877561	-0.220089
H	0.186997	-1.878161	0.843611
H	-0.971603	-2.316861	-0.048789
H	0.800597	-2.588561	-0.361389
H	-0.000303	2.912239	1.335911
$end

$rem
JOBTYPE		SP
EXCHANGE	HF
CORRELATION	pRIMP2
BASIS		cc-pvtz
METHOD		rimp2
AUX_BASIS	rimp2-cc-pvtz
SOLVENT_METHOD	PCM
PURECART	11111
SYMMETRY	false
MEM_TOTAL	110000
SCF_CONVERGENCE = 6
THRESH=10
GUI = 2
$end

$solvent
dielectric 4.90
$end
--------------------------------------------------------------

             Standard Nuclear Orientation (Angstroms)
    I     Atom           X                Y                Z
 ----------------------------------------------------------------
    1      C      -0.0000030000    -0.3993610000    -0.2200890000
    2      S      -0.0002030000     0.3938390000     1.3604110000
    3      C      -0.0002030000     2.0315390000     0.6848110000
    4      C      -0.0002030000     0.5986390000    -1.2054890000
    5      C      -0.0003030000     1.9188390000    -0.7135890000
    6      H      -0.0001030000     0.3629390000    -2.2799890000
    7      H      -0.0003030000     2.7998390000    -1.3726890000
    8      C      -0.0000030000    -1.8775610000    -0.2200890000
    9      H       0.1869970000    -1.8781610000     0.8436110000
   10      H      -0.9716030000    -2.3168610000    -0.0487890000
   11      H       0.8005970000    -2.5885610000    -0.3613890000
   12      H      -0.0003030000     2.9122390000     1.3359110000
 ----------------------------------------------------------------

   10    -590.3707395936      5.86e-07  Convergence criterion met
 Total energy in the final basis set =     -590.3707395936
        RIMP2         total energy =      -591.3725502110 a.u.

                    Orbital Energies (a.u.)
 --------------------------------------------------------------

 Alpha MOs
 -- Occupied --
-91.9809 -11.2832 -11.2692 -11.2430 -11.2359 -11.2238  -8.9807  -6.6616
 -6.6611  -6.6605  -1.1580  -1.0400  -0.9731  -0.9184  -0.7587  -0.7203
 -0.6718  -0.5971  -0.5690  -0.5628  -0.5348  -0.5010  -0.4628  -0.4498
 -0.3467  -0.3117

          Ground-State Mulliken Net Atomic Charges

     Atom                 Charge (a.u.)
  ----------------------------------------
      1 C                     0.027291
      2 S                    -0.005481
      3 C                    -0.235895
      4 C                    -0.215041
      5 C                    -0.190220
      6 H                     0.185316
      7 H                     0.185900
      8 C                    -0.349248
      9 H                     0.111724
     10 H                     0.126009
     11 H                     0.153092
     12 H                     0.206552
  ----------------------------------------
  Sum of atomic charges =     0.000000

                    Cartesian Multipole Moments
 -----------------------------------------------------------------
    Charge (ESU x 10^10)
                -0.0000
    Dipole Moment (Debye)
         X       0.0916      Y      -0.2165      Z      -0.4334
       Tot       0.4930
    Quadrupole Moments (Debye-Ang)
        XX     -47.4697     XY      -0.4350     YY     -36.0520
        XZ      -0.1381     YZ      -0.3396     ZZ     -42.4118

 Total job time:  10.55s(wall), 552.00s(cpu)
        *  Thank you very much for using Q-Chem.  Have a nice day.  *
