 Q-Chem 5.4, Q-Chem, Inc., Pleasanton, CA (2021)
 Q-Chem 5.4.0 for Intel X86 EM64T Linux

User input:
--------------------------------------------------------------
$molecule
0 1
C	-0.220093	-0.350804	-0.219989
S	0.114907	0.368096	1.360511
C	0.807007	1.852396	0.684911
C	0.201507	0.553796	-1.205389
C	0.759407	1.750296	-0.713489
H	0.101907	0.340196	-2.279889
H	1.131607	2.548796	-1.372589
C	-0.220093	-1.829004	-0.219989
H	0.148807	-1.829604	0.795011
H	-1.147193	-2.268304	0.117411
H	0.543807	-2.540004	-0.498189
H	1.179107	2.650596	1.336011
$end

$rem
JOBTYPE		SP
EXCHANGE	HF
CORRELATION	pRIMP2
BASIS		cc-pvtz
METHOD		rimp2
AUX_BASIS	rimp2-cc-pvtz
SOLVENT_METHOD	PCM
PURECART	11111
SYMMETRY	false
MEM_TOTAL	110000
SCF_CONVERGENCE = 6
THRESH=10
GUI = 2
$end

$solvent
dielectric 4.90
$end
--------------------------------------------------------------

             Standard Nuclear Orientation (Angstroms)
    I     Atom           X                Y                Z
 ----------------------------------------------------------------
    1      C      -0.2200930000    -0.3508040000    -0.2199890000
    2      S       0.1149070000     0.3680960000     1.3605110000
    3      C       0.8070070000     1.8523960000     0.6849110000
    4      C       0.2015070000     0.5537960000    -1.2053890000
    5      C       0.7594070000     1.7502960000    -0.7134890000
    6      H       0.1019070000     0.3401960000    -2.2798890000
    7      H       1.1316070000     2.5487960000    -1.3725890000
    8      C      -0.2200930000    -1.8290040000    -0.2199890000
    9      H       0.1488070000    -1.8296040000     0.7950110000
   10      H      -1.1471930000    -2.2683040000     0.1174110000
   11      H       0.5438070000    -2.5400040000    -0.4981890000
   12      H       1.1791070000     2.6505960000     1.3360110000
 ----------------------------------------------------------------

   10    -590.3559107789      6.30e-07  Convergence criterion met
 Total energy in the final basis set =     -590.3559107789
        RIMP2         total energy =      -591.3603642709 a.u.

                    Orbital Energies (a.u.)
 --------------------------------------------------------------

 Alpha MOs
 -- Occupied --
-91.9783 -11.2782 -11.2729 -11.2430 -11.2395 -11.2203  -8.9786  -6.6594
 -6.6588  -6.6583  -1.1599  -1.0391  -0.9741  -0.9156  -0.7600  -0.7210
 -0.6717  -0.5943  -0.5699  -0.5631  -0.5353  -0.4965  -0.4625  -0.4491
 -0.3451  -0.3095

          Ground-State Mulliken Net Atomic Charges

     Atom                 Charge (a.u.)
  ----------------------------------------
      1 C                     0.004091
      2 S                    -0.004711
      3 C                    -0.223179
      4 C                    -0.216501
      5 C                    -0.188652
      6 H                     0.184451
      7 H                     0.186243
      8 C                    -0.353454
      9 H                     0.120103
     10 H                     0.124921
     11 H                     0.160599
     12 H                     0.206091
  ----------------------------------------
  Sum of atomic charges =     0.000000

                    Cartesian Multipole Moments
 -----------------------------------------------------------------
    Charge (ESU x 10^10)
                -0.0000
    Dipole Moment (Debye)
         X       0.8959      Y      -0.1265      Z      -0.4762
       Tot       1.0225
    Quadrupole Moments (Debye-Ang)
        XX     -46.1150     XY       2.7946     YY     -37.9379
        XZ      -0.0902     YZ      -0.3386     ZZ     -42.1961

 Total job time:  10.74s(wall), 570.47s(cpu)
        *  Thank you very much for using Q-Chem.  Have a nice day.  *
