 Q-Chem 5.4, Q-Chem, Inc., Pleasanton, CA (2021)
 Q-Chem 5.4.0 for Intel X86 EM64T Linux

User input:
--------------------------------------------------------------
$molecule
0 1
C	-0.129205	-0.381707	-0.211737
S	0.075895	0.384493	1.368763
C	0.499695	1.966393	0.693163
C	0.128895	0.582293	-1.197137
C	0.470495	1.857593	-0.705237
H	0.067995	0.354693	-2.271637
H	0.698495	2.708493	-1.364337
C	-0.129205	-1.859907	-0.211737
H	-1.143905	-1.860507	-0.581637
H	0.208295	-2.299207	-1.138837
H	-0.407105	-2.570907	0.552263
H	0.727595	2.817093	1.344263
$end

$rem
JOBTYPE		SP
EXCHANGE	HF
CORRELATION	pRIMP2
BASIS		cc-pvtz
METHOD		rimp2
AUX_BASIS	rimp2-cc-pvtz
SOLVENT_METHOD	PCM
PURECART	11111
SYMMETRY	false
MEM_TOTAL	110000
SCF_CONVERGENCE = 6
THRESH=10
GUI = 2
$end

$solvent
dielectric 4.90
$end
--------------------------------------------------------------

             Standard Nuclear Orientation (Angstroms)
    I     Atom           X                Y                Z
 ----------------------------------------------------------------
    1      C      -0.1292050000    -0.3817070000    -0.2117370000
    2      S       0.0758950000     0.3844930000     1.3687630000
    3      C       0.4996950000     1.9663930000     0.6931630000
    4      C       0.1288950000     0.5822930000    -1.1971370000
    5      C       0.4704950000     1.8575930000    -0.7052370000
    6      H       0.0679950000     0.3546930000    -2.2716370000
    7      H       0.6984950000     2.7084930000    -1.3643370000
    8      C      -0.1292050000    -1.8599070000    -0.2117370000
    9      H      -1.1439050000    -1.8605070000    -0.5816370000
   10      H       0.2082950000    -2.2992070000    -1.1388370000
   11      H      -0.4071050000    -2.5709070000     0.5522630000
   12      H       0.7275950000     2.8170930000     1.3442630000
 ----------------------------------------------------------------

   10    -590.3666025171      6.31e-07  Convergence criterion met
 Total energy in the final basis set =     -590.3666025171
        RIMP2         total energy =      -591.3688551710 a.u.

                    Orbital Energies (a.u.)
 --------------------------------------------------------------

 Alpha MOs
 -- Occupied --
-91.9765 -11.2897 -11.2631 -11.2430 -11.2343 -11.2260  -8.9764  -6.6573
 -6.6568  -6.6562  -1.1567  -1.0396  -0.9712  -0.9197  -0.7540  -0.7222
 -0.6704  -0.5980  -0.5631  -0.5574  -0.5489  -0.4979  -0.4679  -0.4513
 -0.3456  -0.2981

          Ground-State Mulliken Net Atomic Charges

     Atom                 Charge (a.u.)
  ----------------------------------------
      1 C                     0.033717
      2 S                     0.000045
      3 C                    -0.249487
      4 C                    -0.250475
      5 C                    -0.180900
      6 H                     0.179764
      7 H                     0.186656
      8 C                    -0.370847
      9 H                     0.136089
     10 H                     0.138805
     11 H                     0.173871
     12 H                     0.202763
  ----------------------------------------
  Sum of atomic charges =     0.000000

                    Cartesian Multipole Moments
 -----------------------------------------------------------------
    Charge (ESU x 10^10)
                -0.0000
    Dipole Moment (Debye)
         X      -0.4225      Y      -0.7994      Z      -1.3448
       Tot       1.6205
    Quadrupole Moments (Debye-Ang)
        XX     -47.4761     XY       3.7172     YY     -36.5877
        XZ       0.0479     YZ       1.0158     ZZ     -41.7144

 Total job time:  10.42s(wall), 559.98s(cpu)
        *  Thank you very much for using Q-Chem.  Have a nice day.  *
