 Q-Chem 5.4, Q-Chem, Inc., Pleasanton, CA (2021)
 Q-Chem 5.4.0 for Intel X86 EM64T Linux

User input:
--------------------------------------------------------------
$molecule
0 1
C	-0.264776	-0.329934	-0.214392
S	0.131624	0.357066	1.366108
C	0.950424	1.775366	0.690508
C	0.234024	0.534466	-1.199792
C	0.894124	1.677866	-0.707892
H	0.116224	0.330366	-2.274292
H	1.334524	2.440766	-1.366992
C	-0.264776	-1.808134	-0.214392
H	0.798924	-1.808734	-0.401392
H	-0.093476	-2.247434	0.757208
H	-0.406076	-2.519134	-1.014992
H	1.390724	2.538166	1.341608
$end

$rem
JOBTYPE		SP
EXCHANGE	HF
CORRELATION	pRIMP2
BASIS		cc-pvtz
METHOD		rimp2
AUX_BASIS	rimp2-cc-pvtz
SOLVENT_METHOD	PCM
PURECART	11111
SYMMETRY	false
MEM_TOTAL	110000
SCF_CONVERGENCE = 6
THRESH=10
GUI = 2
$end

$solvent
dielectric 4.90
$end
--------------------------------------------------------------

             Standard Nuclear Orientation (Angstroms)
    I     Atom           X                Y                Z
 ----------------------------------------------------------------
    1      C      -0.2647760000    -0.3299340000    -0.2143920000
    2      S       0.1316240000     0.3570660000     1.3661080000
    3      C       0.9504240000     1.7753660000     0.6905080000
    4      C       0.2340240000     0.5344660000    -1.1997920000
    5      C       0.8941240000     1.6778660000    -0.7078920000
    6      H       0.1162240000     0.3303660000    -2.2742920000
    7      H       1.3345240000     2.4407660000    -1.3669920000
    8      C      -0.2647760000    -1.8081340000    -0.2143920000
    9      H       0.7989240000    -1.8087340000    -0.4013920000
   10      H      -0.0934760000    -2.2474340000     0.7572080000
   11      H      -0.4060760000    -2.5191340000    -1.0149920000
   12      H       1.3907240000     2.5381660000     1.3416080000
 ----------------------------------------------------------------

   10    -590.3586455784      6.34e-07  Convergence criterion met
 Total energy in the final basis set =     -590.3586455784
        RIMP2         total energy =      -591.3623726943 a.u.

                    Orbital Energies (a.u.)
 --------------------------------------------------------------

 Alpha MOs
 -- Occupied --
-91.9793 -11.2871 -11.2662 -11.2437 -11.2323 -11.2266  -8.9792  -6.6601
 -6.6596  -6.6590  -1.1605  -1.0399  -0.9727  -0.9153  -0.7564  -0.7229
 -0.6713  -0.5965  -0.5665  -0.5564  -0.5421  -0.4922  -0.4752  -0.4570
 -0.3466  -0.2967

          Ground-State Mulliken Net Atomic Charges

     Atom                 Charge (a.u.)
  ----------------------------------------
      1 C                     0.008347
      2 S                     0.003759
      3 C                    -0.240931
      4 C                    -0.227359
      5 C                    -0.189138
      6 H                     0.178188
      7 H                     0.186981
      8 C                    -0.362191
      9 H                     0.148535
     10 H                     0.131906
     11 H                     0.157500
     12 H                     0.204403
  ----------------------------------------
  Sum of atomic charges =     0.000000

                    Cartesian Multipole Moments
 -----------------------------------------------------------------
    Charge (ESU x 10^10)
                 0.0000
    Dipole Moment (Debye)
         X       1.3152      Y      -0.7255      Z      -1.1704
       Tot       1.9042
    Quadrupole Moments (Debye-Ang)
        XX     -46.5226     XY       2.6430     YY     -38.4637
        XZ       0.2351     YZ       1.2817     ZZ     -41.5497

 Total job time:  11.89s(wall), 610.72s(cpu)
        *  Thank you very much for using Q-Chem.  Have a nice day.  *
