 Q-Chem 5.4, Q-Chem, Inc., Pleasanton, CA (2021)
 Q-Chem 5.4.0 for Intel X86 EM64T Linux

User input:
--------------------------------------------------------------
$molecule
0 1
C	-0.259078	-0.329934	-0.208858
S	0.137322	0.357066	1.371642
C	0.956122	1.775366	0.696042
C	0.239722	0.534466	-1.194258
C	0.899822	1.677866	-0.702358
H	0.121922	0.330366	-2.268758
H	1.340222	2.440766	-1.361458
C	-0.259078	-1.808134	-0.208858
H	-0.446078	-1.808734	-1.272558
H	0.712522	-2.247434	-0.380158
H	-1.059678	-2.519134	-0.067558
H	1.396422	2.538166	1.347142
$end

$rem
JOBTYPE		SP
EXCHANGE	HF
CORRELATION	pRIMP2
BASIS		cc-pvtz
METHOD		rimp2
AUX_BASIS	rimp2-cc-pvtz
SOLVENT_METHOD	PCM
PURECART	11111
SYMMETRY	false
MEM_TOTAL	110000
SCF_CONVERGENCE = 6
THRESH=10
GUI = 2
$end

$solvent
dielectric 4.90
$end
--------------------------------------------------------------

             Standard Nuclear Orientation (Angstroms)
    I     Atom           X                Y                Z
 ----------------------------------------------------------------
    1      C      -0.2590780000    -0.3299340000    -0.2088580000
    2      S       0.1373220000     0.3570660000     1.3716420000
    3      C       0.9561220000     1.7753660000     0.6960420000
    4      C       0.2397220000     0.5344660000    -1.1942580000
    5      C       0.8998220000     1.6778660000    -0.7023580000
    6      H       0.1219220000     0.3303660000    -2.2687580000
    7      H       1.3402220000     2.4407660000    -1.3614580000
    8      C      -0.2590780000    -1.8081340000    -0.2088580000
    9      H      -0.4460780000    -1.8087340000    -1.2725580000
   10      H       0.7125220000    -2.2474340000    -0.3801580000
   11      H      -1.0596780000    -2.5191340000    -0.0675580000
   12      H       1.3964220000     2.5381660000     1.3471420000
 ----------------------------------------------------------------

   10    -590.3582292652      7.04e-07  Convergence criterion met
 Total energy in the final basis set =     -590.3582292652
        RIMP2         total energy =      -591.3639462889 a.u.

                    Orbital Energies (a.u.)
 --------------------------------------------------------------

 Alpha MOs
 -- Occupied --
-91.9737 -11.2783 -11.2737 -11.2451 -11.2432 -11.2212  -8.9741  -6.6549
 -6.6543  -6.6539  -1.1594  -1.0371  -0.9739  -0.9162  -0.7559  -0.7251
 -0.6718  -0.5963  -0.5720  -0.5591  -0.5389  -0.4973  -0.4666  -0.4331
 -0.3443  -0.3124

          Ground-State Mulliken Net Atomic Charges

     Atom                 Charge (a.u.)
  ----------------------------------------
      1 C                     0.002642
      2 S                    -0.004284
      3 C                    -0.213476
      4 C                    -0.207482
      5 C                    -0.201449
      6 H                     0.182079
      7 H                     0.187595
      8 C                    -0.356825
      9 H                     0.113287
     10 H                     0.137216
     11 H                     0.156409
     12 H                     0.204287
  ----------------------------------------
  Sum of atomic charges =     0.000000

                    Cartesian Multipole Moments
 -----------------------------------------------------------------
    Charge (ESU x 10^10)
                -0.0000
    Dipole Moment (Debye)
         X       0.7205      Y      -0.1971      Z      -1.7783
       Tot       1.9288
    Quadrupole Moments (Debye-Ang)
        XX     -45.2597     XY       4.4389     YY     -38.4814
        XZ       0.3505     YZ       1.9085     ZZ     -41.9787

 Total job time:  11.37s(wall), 578.52s(cpu)
        *  Thank you very much for using Q-Chem.  Have a nice day.  *
