 Q-Chem 5.4, Q-Chem, Inc., Pleasanton, CA (2021)
 Q-Chem 5.4.0 for Intel X86 EM64T Linux

User input:
--------------------------------------------------------------
$molecule
0 1
C	-0.128564	-0.381707	-0.213580
S	0.076536	0.384493	1.366920
C	0.500336	1.966393	0.691320
C	0.129536	0.582293	-1.198980
C	0.471136	1.857593	-0.707080
H	0.068636	0.354693	-2.273480
H	0.699136	2.708493	-1.366180
C	-0.128564	-1.859907	-0.213580
H	-1.208564	-1.860507	-0.214080
H	-0.128564	-2.299207	-1.200180
H	-0.128464	-2.570907	0.599420
H	0.728236	2.817093	1.342420
$end

$rem
JOBTYPE		SP
EXCHANGE	HF
CORRELATION	pRIMP2
BASIS		cc-pvtz
METHOD		rimp2
AUX_BASIS	rimp2-cc-pvtz
SOLVENT_METHOD	PCM
PURECART	11111
SYMMETRY	false
MEM_TOTAL	110000
SCF_CONVERGENCE = 6
THRESH=10
GUI = 2
$end

$solvent
dielectric 4.90
$end
--------------------------------------------------------------

             Standard Nuclear Orientation (Angstroms)
    I     Atom           X                Y                Z
 ----------------------------------------------------------------
    1      C      -0.1285640000    -0.3817070000    -0.2135800000
    2      S       0.0765360000     0.3844930000     1.3669200000
    3      C       0.5003360000     1.9663930000     0.6913200000
    4      C       0.1295360000     0.5822930000    -1.1989800000
    5      C       0.4711360000     1.8575930000    -0.7070800000
    6      H       0.0686360000     0.3546930000    -2.2734800000
    7      H       0.6991360000     2.7084930000    -1.3661800000
    8      C      -0.1285640000    -1.8599070000    -0.2135800000
    9      H      -1.2085640000    -1.8605070000    -0.2140800000
   10      H      -0.1285640000    -2.2992070000    -1.2001800000
   11      H      -0.1284640000    -2.5709070000     0.5994200000
   12      H       0.7282360000     2.8170930000     1.3424200000
 ----------------------------------------------------------------

   10    -590.3666828663      6.24e-07  Convergence criterion met
 Total energy in the final basis set =     -590.3666828663
        RIMP2         total energy =      -591.3684862535 a.u.

                    Orbital Energies (a.u.)
 --------------------------------------------------------------

 Alpha MOs
 -- Occupied --
-91.9769 -11.2897 -11.2634 -11.2429 -11.2335 -11.2264  -8.9769  -6.6578
 -6.6573  -6.6567  -1.1568  -1.0399  -0.9712  -0.9198  -0.7547  -0.7217
 -0.6702  -0.5980  -0.5640  -0.5549  -0.5503  -0.4944  -0.4709  -0.4540
 -0.3460  -0.2972

          Ground-State Mulliken Net Atomic Charges

     Atom                 Charge (a.u.)
  ----------------------------------------
      1 C                     0.019720
      2 S                    -0.004941
      3 C                    -0.245804
      4 C                    -0.235399
      5 C                    -0.187389
      6 H                     0.182174
      7 H                     0.185788
      8 C                    -0.364951
      9 H                     0.137771
     10 H                     0.136079
     11 H                     0.172906
     12 H                     0.204047
  ----------------------------------------
  Sum of atomic charges =     0.000000

                    Cartesian Multipole Moments
 -----------------------------------------------------------------
    Charge (ESU x 10^10)
                -0.0000
    Dipole Moment (Debye)
         X      -0.4644      Y      -0.7964      Z      -1.0898
       Tot       1.4275
    Quadrupole Moments (Debye-Ang)
        XX     -47.5772     XY       3.7202     YY     -36.5296
        XZ       0.3035     YZ       0.5462     ZZ     -41.7277

 Total job time:  10.05s(wall), 549.89s(cpu)
        *  Thank you very much for using Q-Chem.  Have a nice day.  *
