 Q-Chem 5.4, Q-Chem, Inc., Pleasanton, CA (2021)
 Q-Chem 5.4.0 for Intel X86 EM64T Linux

User input:
--------------------------------------------------------------
$molecule
0 1
C	-0.217040	-0.350804	-0.209225
S	0.117960	0.368096	1.371275
C	0.810060	1.852396	0.695675
C	0.204560	0.553796	-1.194625
C	0.762460	1.750296	-0.702725
H	0.104960	0.340196	-2.269125
H	1.134660	2.548796	-1.361825
C	-0.217040	-1.829004	-0.209225
H	-0.756540	-1.829604	-1.144825
H	0.637460	-2.268304	-0.702525
H	-0.921040	-2.540004	0.197375
H	1.182160	2.650596	1.346775
$end

$rem
JOBTYPE		SP
EXCHANGE	HF
CORRELATION	pRIMP2
BASIS		cc-pvtz
METHOD		rimp2
AUX_BASIS	rimp2-cc-pvtz
SOLVENT_METHOD	PCM
PURECART	11111
SYMMETRY	false
MEM_TOTAL	110000
SCF_CONVERGENCE = 6
THRESH=10
GUI = 2
$end

$solvent
dielectric 4.90
$end
--------------------------------------------------------------

             Standard Nuclear Orientation (Angstroms)
    I     Atom           X                Y                Z
 ----------------------------------------------------------------
    1      C      -0.2170400000    -0.3508040000    -0.2092250000
    2      S       0.1179600000     0.3680960000     1.3712750000
    3      C       0.8100600000     1.8523960000     0.6956750000
    4      C       0.2045600000     0.5537960000    -1.1946250000
    5      C       0.7624600000     1.7502960000    -0.7027250000
    6      H       0.1049600000     0.3401960000    -2.2691250000
    7      H       1.1346600000     2.5487960000    -1.3618250000
    8      C      -0.2170400000    -1.8290040000    -0.2092250000
    9      H      -0.7565400000    -1.8296040000    -1.1448250000
   10      H       0.6374600000    -2.2683040000    -0.7025250000
   11      H      -0.9210400000    -2.5400040000     0.1973750000
   12      H       1.1821600000     2.6505960000     1.3467750000
 ----------------------------------------------------------------

   10    -590.3614939589      6.73e-07  Convergence criterion met
 Total energy in the final basis set =     -590.3614939589
        RIMP2         total energy =      -591.3663473353 a.u.

                    Orbital Energies (a.u.)
 --------------------------------------------------------------

 Alpha MOs
 -- Occupied --
-91.9741 -11.2819 -11.2702 -11.2436 -11.2419 -11.2224  -8.9744  -6.6552
 -6.6546  -6.6542  -1.1581  -1.0376  -0.9729  -0.9178  -0.7549  -0.7241
 -0.6714  -0.5967  -0.5687  -0.5603  -0.5403  -0.5005  -0.4657  -0.4370
 -0.3449  -0.3077

          Ground-State Mulliken Net Atomic Charges

     Atom                 Charge (a.u.)
  ----------------------------------------
      1 C                     0.012838
      2 S                    -0.003538
      3 C                    -0.222029
      4 C                    -0.223752
      5 C                    -0.193919
      6 H                     0.182046
      7 H                     0.186506
      8 C                    -0.364795
      9 H                     0.120497
     10 H                     0.136953
     11 H                     0.165951
     12 H                     0.203243
  ----------------------------------------
  Sum of atomic charges =     0.000000

                    Cartesian Multipole Moments
 -----------------------------------------------------------------
    Charge (ESU x 10^10)
                -0.0000
    Dipole Moment (Debye)
         X       0.2793      Y      -0.3616      Z      -1.7191
       Tot       1.7788
    Quadrupole Moments (Debye-Ang)
        XX     -45.9656     XY       4.4092     YY     -37.7501
        XZ       0.0574     YZ       1.7377     ZZ     -41.9286

 Total job time:  11.67s(wall), 581.64s(cpu)
        *  Thank you very much for using Q-Chem.  Have a nice day.  *
