 Q-Chem 5.4, Q-Chem, Inc., Pleasanton, CA (2021)
 Q-Chem 5.4.0 for Intel X86 EM64T Linux

User input:
--------------------------------------------------------------
$molecule
0 1
C	-0.137781	-0.381707	-0.218722
S	0.067319	0.384493	1.361778
C	0.491119	1.966393	0.686178
C	0.120319	0.582293	-1.204122
C	0.461919	1.857593	-0.712222
H	0.059419	0.354693	-2.278622
H	0.689919	2.708493	-1.371322
C	-0.137781	-1.859907	-0.218722
H	0.689219	-1.860507	0.475878
H	-0.771981	-2.299207	0.537078
H	0.384719	-2.570907	-0.841622
H	0.719019	2.817093	1.337278
$end

$rem
JOBTYPE		SP
EXCHANGE	HF
CORRELATION	pRIMP2
BASIS		cc-pvtz
METHOD		rimp2
AUX_BASIS	rimp2-cc-pvtz
SOLVENT_METHOD	PCM
PURECART	11111
SYMMETRY	false
MEM_TOTAL	110000
SCF_CONVERGENCE = 6
THRESH=10
GUI = 2
$end

$solvent
dielectric 4.90
$end
--------------------------------------------------------------

             Standard Nuclear Orientation (Angstroms)
    I     Atom           X                Y                Z
 ----------------------------------------------------------------
    1      C      -0.1377810000    -0.3817070000    -0.2187220000
    2      S       0.0673190000     0.3844930000     1.3617780000
    3      C       0.4911190000     1.9663930000     0.6861780000
    4      C       0.1203190000     0.5822930000    -1.2041220000
    5      C       0.4619190000     1.8575930000    -0.7122220000
    6      H       0.0594190000     0.3546930000    -2.2786220000
    7      H       0.6899190000     2.7084930000    -1.3713220000
    8      C      -0.1377810000    -1.8599070000    -0.2187220000
    9      H       0.6892190000    -1.8605070000     0.4758780000
   10      H      -0.7719810000    -2.2992070000     0.5370780000
   11      H       0.3847190000    -2.5709070000    -0.8416220000
   12      H       0.7190190000     2.8170930000     1.3372780000
 ----------------------------------------------------------------

   10    -590.3687746566      6.25e-07  Convergence criterion met
 Total energy in the final basis set =     -590.3687746566
        RIMP2         total energy =      -591.3696640755 a.u.

                    Orbital Energies (a.u.)
 --------------------------------------------------------------

 Alpha MOs
 -- Occupied --
-91.9779 -11.2872 -11.2672 -11.2427 -11.2341 -11.2255  -8.9781  -6.6590
 -6.6585  -6.6579  -1.1585  -1.0406  -0.9722  -0.9180  -0.7570  -0.7211
 -0.6717  -0.5964  -0.5674  -0.5628  -0.5334  -0.5014  -0.4696  -0.4550
 -0.3468  -0.3024

          Ground-State Mulliken Net Atomic Charges

     Atom                 Charge (a.u.)
  ----------------------------------------
      1 C                     0.026268
      2 S                    -0.004349
      3 C                    -0.238863
      4 C                    -0.248682
      5 C                    -0.180823
      6 H                     0.184092
      7 H                     0.186206
      8 C                    -0.358306
      9 H                     0.131063
     10 H                     0.134400
     11 H                     0.164004
     12 H                     0.204990
  ----------------------------------------
  Sum of atomic charges =     0.000000

                    Cartesian Multipole Moments
 -----------------------------------------------------------------
    Charge (ESU x 10^10)
                -0.0000
    Dipole Moment (Debye)
         X       0.8561      Y      -0.5412      Z      -0.6344
       Tot       1.1951
    Quadrupole Moments (Debye-Ang)
        XX     -47.5068     XY       1.0474     YY     -36.5833
        XZ      -0.3546     YZ       0.1350     ZZ     -42.1047

 Total job time:  10.43s(wall), 566.16s(cpu)
        *  Thank you very much for using Q-Chem.  Have a nice day.  *
