 Q-Chem 5.4, Q-Chem, Inc., Pleasanton, CA (2021)
 Q-Chem 5.4.0 for Intel X86 EM64T Linux

User input:
--------------------------------------------------------------
$molecule
0 1
C	-0.224341	-0.350804	-0.216317
S	0.110659	0.368096	1.364183
C	0.802759	1.852396	0.688583
C	0.197259	0.553796	-1.201717
C	0.755159	1.750296	-0.709817
H	0.097659	0.340196	-2.276217
H	1.127359	2.548796	-1.368917
C	-0.224341	-1.829004	-0.216317
H	0.839159	-1.829604	-0.028217
H	-0.395741	-2.268304	0.755283
H	-0.083341	-2.540004	-1.017017
H	1.174859	2.650596	1.339683
$end

$rem
JOBTYPE		SP
EXCHANGE	HF
CORRELATION	pRIMP2
BASIS		cc-pvtz
METHOD		rimp2
AUX_BASIS	rimp2-cc-pvtz
SOLVENT_METHOD	PCM
PURECART	11111
SYMMETRY	false
MEM_TOTAL	110000
SCF_CONVERGENCE = 6
THRESH=10
GUI = 2
$end

$solvent
dielectric 4.90
$end
--------------------------------------------------------------

             Standard Nuclear Orientation (Angstroms)
    I     Atom           X                Y                Z
 ----------------------------------------------------------------
    1      C      -0.2243410000    -0.3508040000    -0.2163170000
    2      S       0.1106590000     0.3680960000     1.3641830000
    3      C       0.8027590000     1.8523960000     0.6885830000
    4      C       0.1972590000     0.5537960000    -1.2017170000
    5      C       0.7551590000     1.7502960000    -0.7098170000
    6      H       0.0976590000     0.3401960000    -2.2762170000
    7      H       1.1273590000     2.5487960000    -1.3689170000
    8      C      -0.2243410000    -1.8290040000    -0.2163170000
    9      H       0.8391590000    -1.8296040000    -0.0282170000
   10      H      -0.3957410000    -2.2683040000     0.7552830000
   11      H      -0.0833410000    -2.5400040000    -1.0170170000
   12      H       1.1748590000     2.6505960000     1.3396830000
 ----------------------------------------------------------------

   10    -590.3645921972      6.49e-07  Convergence criterion met
 Total energy in the final basis set =     -590.3645921972
        RIMP2         total energy =      -591.3664042046 a.u.

                    Orbital Energies (a.u.)
 --------------------------------------------------------------

 Alpha MOs
 -- Occupied --
-91.9782 -11.2888 -11.2659 -11.2433 -11.2321 -11.2280  -8.9783  -6.6592
 -6.6587  -6.6581  -1.1597  -1.0407  -0.9722  -0.9167  -0.7563  -0.7222
 -0.6716  -0.5964  -0.5670  -0.5595  -0.5369  -0.4984  -0.4751  -0.4565
 -0.3472  -0.2973

          Ground-State Mulliken Net Atomic Charges

     Atom                 Charge (a.u.)
  ----------------------------------------
      1 C                     0.023281
      2 S                    -0.002624
      3 C                    -0.246162
      4 C                    -0.251786
      5 C                    -0.177500
      6 H                     0.179922
      7 H                     0.186869
      8 C                    -0.357928
      9 H                     0.146798
     10 H                     0.130803
     11 H                     0.163704
     12 H                     0.204624
  ----------------------------------------
  Sum of atomic charges =     0.000000

                    Cartesian Multipole Moments
 -----------------------------------------------------------------
    Charge (ESU x 10^10)
                -0.0000
    Dipole Moment (Debye)
         X       1.2057      Y      -0.7556      Z      -0.9550
       Tot       1.7137
    Quadrupole Moments (Debye-Ang)
        XX     -47.0456     XY       2.1163     YY     -37.6097
        XZ      -0.0644     YZ       0.8367     ZZ     -41.7740

 Total job time:  11.06s(wall), 607.61s(cpu)
        *  Thank you very much for using Q-Chem.  Have a nice day.  *
