 Q-Chem 5.4, Q-Chem, Inc., Pleasanton, CA (2021)
 Q-Chem 5.4.0 for Intel X86 EM64T Linux

User input:
--------------------------------------------------------------
$molecule
0 1
C	-0.172433	-0.368118	-0.217353
S	0.098667	0.377282	1.363147
C	0.658767	1.916282	0.687547
C	0.168767	0.569782	-1.202753
C	0.620167	1.810382	-0.710853
H	0.088167	0.348282	-2.277253
H	0.921467	2.638182	-1.369953
C	-0.172433	-1.846318	-0.217353
H	-1.000133	-1.846918	0.476447
H	-0.806633	-2.285618	-0.973153
H	0.350267	-2.557318	0.405347
H	0.959867	2.743882	1.338647
$end

$rem
JOBTYPE		SP
EXCHANGE	HF
CORRELATION	pRIMP2
BASIS		cc-pvtz
METHOD		rimp2
AUX_BASIS	rimp2-cc-pvtz
SOLVENT_METHOD	PCM
PURECART	11111
SYMMETRY	false
MEM_TOTAL	110000
SCF_CONVERGENCE = 6
THRESH=10
GUI = 2
$end

$solvent
dielectric 4.90
$end
--------------------------------------------------------------

             Standard Nuclear Orientation (Angstroms)
    I     Atom           X                Y                Z
 ----------------------------------------------------------------
    1      C      -0.1724330000    -0.3681180000    -0.2173530000
    2      S       0.0986670000     0.3772820000     1.3631470000
    3      C       0.6587670000     1.9162820000     0.6875470000
    4      C       0.1687670000     0.5697820000    -1.2027530000
    5      C       0.6201670000     1.8103820000    -0.7108530000
    6      H       0.0881670000     0.3482820000    -2.2772530000
    7      H       0.9214670000     2.6381820000    -1.3699530000
    8      C      -0.1724330000    -1.8463180000    -0.2173530000
    9      H      -1.0001330000    -1.8469180000     0.4764470000
   10      H      -0.8066330000    -2.2856180000    -0.9731530000
   11      H       0.3502670000    -2.5573180000     0.4053470000
   12      H       0.9598670000     2.7438820000     1.3386470000
 ----------------------------------------------------------------

   10    -590.3632059469      6.30e-07  Convergence criterion met
 Total energy in the final basis set =     -590.3632059469
        RIMP2         total energy =      -591.3663799742 a.u.

                    Orbital Energies (a.u.)
 --------------------------------------------------------------

 Alpha MOs
 -- Occupied --
-91.9784 -11.2824 -11.2699 -11.2432 -11.2371 -11.2232  -8.9784  -6.6593
 -6.6588  -6.6582  -1.1580  -1.0387  -0.9728  -0.9187  -0.7576  -0.7211
 -0.6708  -0.5968  -0.5661  -0.5605  -0.5437  -0.4877  -0.4689  -0.4537
 -0.3464  -0.3043

          Ground-State Mulliken Net Atomic Charges

     Atom                 Charge (a.u.)
  ----------------------------------------
      1 C                    -0.014340
      2 S                    -0.007185
      3 C                    -0.222324
      4 C                    -0.200670
      5 C                    -0.197038
      6 H                     0.184277
      7 H                     0.185610
      8 C                    -0.349308
      9 H                     0.123308
     10 H                     0.129327
     11 H                     0.163153
     12 H                     0.205189
  ----------------------------------------
  Sum of atomic charges =     0.000000

                    Cartesian Multipole Moments
 -----------------------------------------------------------------
    Charge (ESU x 10^10)
                -0.0000
    Dipole Moment (Debye)
         X      -0.0329      Y      -0.3222      Z      -0.6779
       Tot       0.7513
    Quadrupole Moments (Debye-Ang)
        XX     -46.7798     XY       3.8729     YY     -37.1082
        XZ       0.6672     YZ      -0.1562     ZZ     -41.9906

 Total job time:  11.60s(wall), 590.71s(cpu)
        *  Thank you very much for using Q-Chem.  Have a nice day.  *
