 Q-Chem 5.4, Q-Chem, Inc., Pleasanton, CA (2021)
 Q-Chem 5.4.0 for Intel X86 EM64T Linux

User input:
--------------------------------------------------------------
$molecule
0 1
C	-0.138357	-0.381707	-0.210801
S	0.066743	0.384493	1.369699
C	0.490543	1.966393	0.694099
C	0.119743	0.582293	-1.196201
C	0.461343	1.857593	-0.704301
H	0.058843	0.354693	-2.270701
H	0.689343	2.708493	-1.363401
C	-0.138357	-1.859907	-0.210801
H	0.556243	-1.860507	-1.037801
H	0.617443	-2.299207	0.423399
H	-0.761257	-2.570907	-0.733301
H	0.718443	2.817093	1.345199
$end

$rem
JOBTYPE		SP
EXCHANGE	HF
CORRELATION	pRIMP2
BASIS		cc-pvtz
METHOD		rimp2
AUX_BASIS	rimp2-cc-pvtz
SOLVENT_METHOD	PCM
PURECART	11111
SYMMETRY	false
MEM_TOTAL	110000
SCF_CONVERGENCE = 6
THRESH=10
GUI = 2
$end

$solvent
dielectric 4.90
$end
--------------------------------------------------------------

             Standard Nuclear Orientation (Angstroms)
    I     Atom           X                Y                Z
 ----------------------------------------------------------------
    1      C      -0.1383570000    -0.3817070000    -0.2108010000
    2      S       0.0667430000     0.3844930000     1.3696990000
    3      C       0.4905430000     1.9663930000     0.6940990000
    4      C       0.1197430000     0.5822930000    -1.1962010000
    5      C       0.4613430000     1.8575930000    -0.7043010000
    6      H       0.0588430000     0.3546930000    -2.2707010000
    7      H       0.6893430000     2.7084930000    -1.3634010000
    8      C      -0.1383570000    -1.8599070000    -0.2108010000
    9      H       0.5562430000    -1.8605070000    -1.0378010000
   10      H       0.6174430000    -2.2992070000     0.4233990000
   11      H      -0.7612570000    -2.5709070000    -0.7333010000
   12      H       0.7184430000     2.8170930000     1.3451990000
 ----------------------------------------------------------------

   10    -590.3696058489      5.94e-07  Convergence criterion met
 Total energy in the final basis set =     -590.3696058489
        RIMP2         total energy =      -591.3719098394 a.u.

                    Orbital Energies (a.u.)
 --------------------------------------------------------------

 Alpha MOs
 -- Occupied --
-91.9775 -11.2871 -11.2660 -11.2429 -11.2363 -11.2244  -8.9774  -6.6583
 -6.6577  -6.6572  -1.1576  -1.0387  -0.9725  -0.9180  -0.7546  -0.7236
 -0.6718  -0.5973  -0.5681  -0.5565  -0.5429  -0.4964  -0.4696  -0.4476
 -0.3450  -0.3052

          Ground-State Mulliken Net Atomic Charges

     Atom                 Charge (a.u.)
  ----------------------------------------
      1 C                     0.029442
      2 S                    -0.004065
      3 C                    -0.234537
      4 C                    -0.227437
      5 C                    -0.194520
      6 H                     0.181294
      7 H                     0.186250
      8 C                    -0.367399
      9 H                     0.133478
     10 H                     0.138351
     11 H                     0.155635
     12 H                     0.203509
  ----------------------------------------
  Sum of atomic charges =     0.000000

                    Cartesian Multipole Moments
 -----------------------------------------------------------------
    Charge (ESU x 10^10)
                -0.0000
    Dipole Moment (Debye)
         X       0.7846      Y      -0.5390      Z      -1.6056
       Tot       1.8666
    Quadrupole Moments (Debye-Ang)
        XX     -47.3800     XY       1.4064     YY     -36.7864
        XZ       0.4765     YZ       1.9703     ZZ     -41.7832

 Total job time:  23.46s(wall), 558.02s(cpu)
        *  Thank you very much for using Q-Chem.  Have a nice day.  *
