 Q-Chem 5.4, Q-Chem, Inc., Pleasanton, CA (2021)
 Q-Chem 5.4.0 for Intel X86 EM64T Linux

User input:
--------------------------------------------------------------
$molecule
0 1
C	-0.128493	-0.381707	-0.214556
S	0.076607	0.384493	1.365944
C	0.500407	1.966393	0.690344
C	0.129607	0.582293	-1.199956
C	0.471207	1.857593	-0.708056
H	0.068707	0.354693	-2.274456
H	0.699207	2.708493	-1.367156
C	-0.128493	-1.859907	-0.214556
H	-1.192193	-1.860507	-0.027556
H	-0.299793	-2.299207	-1.186156
H	0.012807	-2.570907	0.586044
H	0.728307	2.817093	1.341444
$end

$rem
JOBTYPE		SP
EXCHANGE	HF
CORRELATION	pRIMP2
BASIS		cc-pvtz
METHOD		rimp2
AUX_BASIS	rimp2-cc-pvtz
SOLVENT_METHOD	PCM
PURECART	11111
SYMMETRY	false
MEM_TOTAL	110000
SCF_CONVERGENCE = 6
THRESH=10
GUI = 2
$end

$solvent
dielectric 4.90
$end
--------------------------------------------------------------

             Standard Nuclear Orientation (Angstroms)
    I     Atom           X                Y                Z
 ----------------------------------------------------------------
    1      C      -0.1284930000    -0.3817070000    -0.2145560000
    2      S       0.0766070000     0.3844930000     1.3659440000
    3      C       0.5004070000     1.9663930000     0.6903440000
    4      C       0.1296070000     0.5822930000    -1.1999560000
    5      C       0.4712070000     1.8575930000    -0.7080560000
    6      H       0.0687070000     0.3546930000    -2.2744560000
    7      H       0.6992070000     2.7084930000    -1.3671560000
    8      C      -0.1284930000    -1.8599070000    -0.2145560000
    9      H      -1.1921930000    -1.8605070000    -0.0275560000
   10      H      -0.2997930000    -2.2992070000    -1.1861560000
   11      H       0.0128070000    -2.5709070000     0.5860440000
   12      H       0.7283070000     2.8170930000     1.3414440000
 ----------------------------------------------------------------

   10    -590.3668829591      6.15e-07  Convergence criterion met
 Total energy in the final basis set =     -590.3668829591
        RIMP2         total energy =      -591.3686063187 a.u.

                    Orbital Energies (a.u.)
 --------------------------------------------------------------

 Alpha MOs
 -- Occupied --
-91.9771 -11.2890 -11.2644 -11.2429 -11.2338 -11.2262  -8.9771  -6.6580
 -6.6575  -6.6569  -1.1570  -1.0398  -0.9714  -0.9198  -0.7552  -0.7215
 -0.6703  -0.5980  -0.5646  -0.5562  -0.5484  -0.4922  -0.4724  -0.4545
 -0.3461  -0.2980

          Ground-State Mulliken Net Atomic Charges

     Atom                 Charge (a.u.)
  ----------------------------------------
      1 C                     0.009452
      2 S                    -0.008643
      3 C                    -0.239850
      4 C                    -0.224255
      5 C                    -0.191545
      6 H                     0.183568
      7 H                     0.185210
      8 C                    -0.361013
      9 H                     0.137144
     10 H                     0.133848
     11 H                     0.171514
     12 H                     0.204570
  ----------------------------------------
  Sum of atomic charges =     0.000000

                    Cartesian Multipole Moments
 -----------------------------------------------------------------
    Charge (ESU x 10^10)
                -0.0000
    Dipole Moment (Debye)
         X      -0.4323      Y      -0.7327      Z      -0.9661
       Tot       1.2873
    Quadrupole Moments (Debye-Ang)
        XX     -47.5550     XY       3.6542     YY     -36.5196
        XZ       0.4284     YZ       0.3253     ZZ     -41.7797

 Total job time:  10.56s(wall), 548.44s(cpu)
        *  Thank you very much for using Q-Chem.  Have a nice day.  *
