 Q-Chem 5.4, Q-Chem, Inc., Pleasanton, CA (2021)
 Q-Chem 5.4.0 for Intel X86 EM64T Linux

User input:
--------------------------------------------------------------
$molecule
0 1
C	-0.392875	-0.214208	-0.218146
S	0.214625	0.295792	1.362354
C	1.469125	1.348492	0.686754
C	0.371525	0.427392	-1.203546
C	1.382825	1.276092	-0.711646
H	0.191025	0.275892	-2.278046
H	2.057625	1.842392	-1.370746
C	-0.392875	-1.692408	-0.218146
H	-1.087475	-1.693008	0.608854
H	-1.148675	-2.131708	-0.852346
H	0.230025	-2.403408	0.304354
H	2.143725	1.914692	1.337854
$end

$rem
JOBTYPE		SP
EXCHANGE	HF
CORRELATION	pRIMP2
BASIS		cc-pvtz
METHOD		rimp2
AUX_BASIS	rimp2-cc-pvtz
SOLVENT_METHOD	PCM
PURECART	11111
SYMMETRY	false
MEM_TOTAL	110000
SCF_CONVERGENCE = 6
THRESH=10
GUI = 2
$end

$solvent
dielectric 4.90
$end
--------------------------------------------------------------

             Standard Nuclear Orientation (Angstroms)
    I     Atom           X                Y                Z
 ----------------------------------------------------------------
    1      C      -0.3928750000    -0.2142080000    -0.2181460000
    2      S       0.2146250000     0.2957920000     1.3623540000
    3      C       1.4691250000     1.3484920000     0.6867540000
    4      C       0.3715250000     0.4273920000    -1.2035460000
    5      C       1.3828250000     1.2760920000    -0.7116460000
    6      H       0.1910250000     0.2758920000    -2.2780460000
    7      H       2.0576250000     1.8423920000    -1.3707460000
    8      C      -0.3928750000    -1.6924080000    -0.2181460000
    9      H      -1.0874750000    -1.6930080000     0.6088540000
   10      H      -1.1486750000    -2.1317080000    -0.8523460000
   11      H       0.2300250000    -2.4034080000     0.3043540000
   12      H       2.1437250000     1.9146920000     1.3378540000
 ----------------------------------------------------------------

   11    -590.3208660966      5.47e-07  Convergence criterion met
 Total energy in the final basis set =     -590.3208660966
        RIMP2         total energy =      -591.3319735515 a.u.

                    Orbital Energies (a.u.)
 --------------------------------------------------------------

 Alpha MOs
 -- Occupied --
-91.9780 -11.2877 -11.2562 -11.2511 -11.2443 -11.2147  -8.9784  -6.6592
 -6.6584  -6.6581  -1.1646  -1.0359  -0.9778  -0.9114  -0.7638  -0.7248
 -0.6708  -0.5928  -0.5677  -0.5605  -0.5486  -0.4757  -0.4520  -0.4500
 -0.3452  -0.3081

          Ground-State Mulliken Net Atomic Charges

     Atom                 Charge (a.u.)
  ----------------------------------------
      1 C                    -0.099339
      2 S                     0.007183
      3 C                    -0.173122
      4 C                    -0.115759
      5 C                    -0.220929
      6 H                     0.186191
      7 H                     0.185873
      8 C                    -0.361942
      9 H                     0.112298
     10 H                     0.117279
     11 H                     0.154415
     12 H                     0.207852
  ----------------------------------------
  Sum of atomic charges =     0.000000

                    Cartesian Multipole Moments
 -----------------------------------------------------------------
    Charge (ESU x 10^10)
                -0.0000
    Dipole Moment (Debye)
         X       1.5125      Y       0.2202      Z      -0.7045
       Tot       1.6830
    Quadrupole Moments (Debye-Ang)
        XX     -42.4353     XY       5.3897     YY     -42.0454
        XZ       0.9677     YZ      -0.2186     ZZ     -41.4763

 Total job time:  11.97s(wall), 649.28s(cpu)
        *  Thank you very much for using Q-Chem.  Have a nice day.  *
