 Q-Chem 5.4, Q-Chem, Inc., Pleasanton, CA (2021)
 Q-Chem 5.4.0 for Intel X86 EM64T Linux

User input:
--------------------------------------------------------------
$molecule
0 1
C	-0.443662	-0.140188	-0.212630
S	0.243138	0.256612	1.367870
C	1.661438	1.075412	0.692270
C	0.420538	0.358912	-1.198030
C	1.563838	1.019112	-0.706130
H	0.216438	0.241112	-2.272530
H	2.326738	1.459712	-1.365230
C	-0.443662	-1.618388	-0.212630
H	-1.507162	-1.618988	-0.400730
H	-0.272262	-2.057688	-1.184230
H	-0.584662	-2.329388	0.588070
H	2.424038	1.515912	1.343370
$end

$rem
JOBTYPE		SP
EXCHANGE	HF
CORRELATION	pRIMP2
BASIS		cc-pvtz
METHOD		rimp2
AUX_BASIS	rimp2-cc-pvtz
SOLVENT_METHOD	PCM
PURECART	11111
SYMMETRY	false
MEM_TOTAL	110000
SCF_CONVERGENCE = 6
THRESH=10
GUI = 2
$end

$solvent
dielectric 4.90
$end
--------------------------------------------------------------

             Standard Nuclear Orientation (Angstroms)
    I     Atom           X                Y                Z
 ----------------------------------------------------------------
    1      C      -0.4436620000    -0.1401880000    -0.2126300000
    2      S       0.2431380000     0.2566120000     1.3678700000
    3      C       1.6614380000     1.0754120000     0.6922700000
    4      C       0.4205380000     0.3589120000    -1.1980300000
    5      C       1.5638380000     1.0191120000    -0.7061300000
    6      H       0.2164380000     0.2411120000    -2.2725300000
    7      H       2.3267380000     1.4597120000    -1.3652300000
    8      C      -0.4436620000    -1.6183880000    -0.2126300000
    9      H      -1.5071620000    -1.6189880000    -0.4007300000
   10      H      -0.2722620000    -2.0576880000    -1.1842300000
   11      H      -0.5846620000    -2.3293880000     0.5880700000
   12      H       2.4240380000     1.5159120000     1.3433700000
 ----------------------------------------------------------------

   11    -590.2895969901      8.06e-07  Convergence criterion met
 Total energy in the final basis set =     -590.2895969901
        RIMP2         total energy =      -591.3059530122 a.u.

                    Orbital Energies (a.u.)
 --------------------------------------------------------------

 Alpha MOs
 -- Occupied --
-91.9738 -11.2907 -11.2572 -11.2483 -11.2447 -11.2096  -8.9746  -6.6553
 -6.6544  -6.6542  -1.1670  -1.0352  -0.9781  -0.9087  -0.7630  -0.7282
 -0.6697  -0.5916  -0.5662  -0.5560  -0.5462  -0.4981  -0.4592  -0.4254
 -0.3430  -0.2924

          Ground-State Mulliken Net Atomic Charges

     Atom                 Charge (a.u.)
  ----------------------------------------
      1 C                    -0.113381
      2 S                     0.011934
      3 C                    -0.159754
      4 C                    -0.096468
      5 C                    -0.235954
      6 H                     0.188052
      7 H                     0.185666
      8 C                    -0.390414
      9 H                     0.124114
     10 H                     0.123923
     11 H                     0.155393
     12 H                     0.206888
  ----------------------------------------
  Sum of atomic charges =     0.000000

                    Cartesian Multipole Moments
 -----------------------------------------------------------------
    Charge (ESU x 10^10)
                 0.0000
    Dipole Moment (Debye)
         X       1.7050      Y      -0.1188      Z      -1.2647
       Tot       2.1261
    Quadrupole Moments (Debye-Ang)
        XX     -41.3223     XY       5.4663     YY     -43.8837
        XZ       0.6884     YZ       0.3393     ZZ     -40.6313

 Total job time:  12.37s(wall), 616.73s(cpu)
        *  Thank you very much for using Q-Chem.  Have a nice day.  *
