 Q-Chem 5.4, Q-Chem, Inc., Pleasanton, CA (2021)
 Q-Chem 5.4.0 for Intel X86 EM64T Linux

User input:
--------------------------------------------------------------
$molecule
0 1
C	-0.336089	-0.278098	-0.219296
S	0.173611	0.329602	1.361204
C	1.226311	1.584202	0.685604
C	0.305311	0.486502	-1.204696
C	1.153811	1.497902	-0.712796
H	0.153811	0.306002	-2.279196
H	1.720011	2.172802	-1.371896
C	-0.336089	-1.756298	-0.219296
H	0.357711	-1.756898	0.608404
H	-1.091889	-2.195598	0.414904
H	0.286611	-2.467298	-0.741996
H	1.792311	2.258902	1.336704
$end

$rem
JOBTYPE		SP
EXCHANGE	HF
CORRELATION	pRIMP2
BASIS		cc-pvtz
METHOD		rimp2
AUX_BASIS	rimp2-cc-pvtz
SOLVENT_METHOD	PCM
PURECART	11111
SYMMETRY	false
MEM_TOTAL	110000
SCF_CONVERGENCE = 6
THRESH=10
GUI = 2
$end

$solvent
dielectric 4.90
$end
--------------------------------------------------------------

             Standard Nuclear Orientation (Angstroms)
    I     Atom           X                Y                Z
 ----------------------------------------------------------------
    1      C      -0.3360890000    -0.2780980000    -0.2192960000
    2      S       0.1736110000     0.3296020000     1.3612040000
    3      C       1.2263110000     1.5842020000     0.6856040000
    4      C       0.3053110000     0.4865020000    -1.2046960000
    5      C       1.1538110000     1.4979020000    -0.7127960000
    6      H       0.1538110000     0.3060020000    -2.2791960000
    7      H       1.7200110000     2.1728020000    -1.3718960000
    8      C      -0.3360890000    -1.7562980000    -0.2192960000
    9      H       0.3577110000    -1.7568980000     0.6084040000
   10      H      -1.0918890000    -2.1955980000     0.4149040000
   11      H       0.2866110000    -2.4672980000    -0.7419960000
   12      H       1.7923110000     2.2589020000     1.3367040000
 ----------------------------------------------------------------

   10    -590.3359556494      6.87e-07  Convergence criterion met
 Total energy in the final basis set =     -590.3359556494
        RIMP2         total energy =      -591.3435581632 a.u.

                    Orbital Energies (a.u.)
 --------------------------------------------------------------

 Alpha MOs
 -- Occupied --
-91.9743 -11.2780 -11.2736 -11.2444 -11.2430 -11.2176  -8.9754  -6.6562
 -6.6555  -6.6551  -1.1637  -1.0389  -0.9755  -0.9116  -0.7616  -0.7228
 -0.6718  -0.5922  -0.5714  -0.5641  -0.5329  -0.4964  -0.4633  -0.4487
 -0.3449  -0.3028

          Ground-State Mulliken Net Atomic Charges

     Atom                 Charge (a.u.)
  ----------------------------------------
      1 C                    -0.021134
      2 S                    -0.006017
      3 C                    -0.203877
      4 C                    -0.194709
      5 C                    -0.202619
      6 H                     0.184198
      7 H                     0.187123
      8 C                    -0.367391
      9 H                     0.134278
     10 H                     0.122209
     11 H                     0.162295
     12 H                     0.205643
  ----------------------------------------
  Sum of atomic charges =     0.000000

                    Cartesian Multipole Moments
 -----------------------------------------------------------------
    Charge (ESU x 10^10)
                 0.0000
    Dipole Moment (Debye)
         X       1.6357      Y      -0.1722      Z      -0.6429
       Tot       1.7659
    Quadrupole Moments (Debye-Ang)
        XX     -44.5325     XY       3.5399     YY     -40.3139
        XZ      -0.0493     YZ      -0.1718     ZZ     -41.8499

 Total job time:  21.38s(wall), 596.80s(cpu)
        *  Thank you very much for using Q-Chem.  Have a nice day.  *
