 Q-Chem 5.4, Q-Chem, Inc., Pleasanton, CA (2021)
 Q-Chem 5.4.0 for Intel X86 EM64T Linux

User input:
--------------------------------------------------------------
$molecule
0 1
C	-0.222710	-0.350804	-0.218722
S	0.112290	0.368096	1.361778
C	0.804390	1.852396	0.686178
C	0.198890	0.553796	-1.204122
C	0.756790	1.750296	-0.712222
H	0.099290	0.340196	-2.278622
H	1.128990	2.548796	-1.371322
C	-0.222710	-1.829004	-0.218722
H	0.604290	-1.829604	0.475878
H	-0.856910	-2.268304	0.537078
H	0.299790	-2.540004	-0.841622
H	1.176490	2.650596	1.337278
$end

$rem
JOBTYPE		SP
EXCHANGE	HF
CORRELATION	pRIMP2
BASIS		cc-pvtz
METHOD		rimp2
AUX_BASIS	rimp2-cc-pvtz
SOLVENT_METHOD	PCM
PURECART	11111
SYMMETRY	false
MEM_TOTAL	110000
SCF_CONVERGENCE = 6
THRESH=10
GUI = 2
$end

$solvent
dielectric 4.90
$end
--------------------------------------------------------------

             Standard Nuclear Orientation (Angstroms)
    I     Atom           X                Y                Z
 ----------------------------------------------------------------
    1      C      -0.2227100000    -0.3508040000    -0.2187220000
    2      S       0.1122900000     0.3680960000     1.3617780000
    3      C       0.8043900000     1.8523960000     0.6861780000
    4      C       0.1988900000     0.5537960000    -1.2041220000
    5      C       0.7567900000     1.7502960000    -0.7122220000
    6      H       0.0992900000     0.3401960000    -2.2786220000
    7      H       1.1289900000     2.5487960000    -1.3713220000
    8      C      -0.2227100000    -1.8290040000    -0.2187220000
    9      H       0.6042900000    -1.8296040000     0.4758780000
   10      H      -0.8569100000    -2.2683040000     0.5370780000
   11      H       0.2997900000    -2.5400040000    -0.8416220000
   12      H       1.1764900000     2.6505960000     1.3372780000
 ----------------------------------------------------------------

   10    -590.3602770238      6.37e-07  Convergence criterion met
 Total energy in the final basis set =     -590.3602770238
        RIMP2         total energy =      -591.3629494610 a.u.

                    Orbital Energies (a.u.)
 --------------------------------------------------------------

 Alpha MOs
 -- Occupied --
-91.9766 -11.2842 -11.2698 -11.2429 -11.2364 -11.2238  -8.9771  -6.6580
 -6.6575  -6.6569  -1.1600  -1.0401  -0.9729  -0.9161  -0.7580  -0.7215
 -0.6717  -0.5952  -0.5683  -0.5632  -0.5324  -0.5014  -0.4675  -0.4541
 -0.3467  -0.3018

          Ground-State Mulliken Net Atomic Charges

     Atom                 Charge (a.u.)
  ----------------------------------------
      1 C                     0.019144
      2 S                    -0.005522
      3 C                    -0.232004
      4 C                    -0.245793
      5 C                    -0.181284
      6 H                     0.183425
      7 H                     0.186801
      8 C                    -0.360819
      9 H                     0.134945
     10 H                     0.131224
     11 H                     0.164943
     12 H                     0.204940
  ----------------------------------------
  Sum of atomic charges =     0.000000

                    Cartesian Multipole Moments
 -----------------------------------------------------------------
    Charge (ESU x 10^10)
                -0.0000
    Dipole Moment (Debye)
         X       1.1193      Y      -0.4630      Z      -0.6644
       Tot       1.3816
    Quadrupole Moments (Debye-Ang)
        XX     -46.6320     XY       2.2999     YY     -37.7435
        XZ      -0.2455     YZ       0.1106     ZZ     -42.0321

 Total job time:  10.51s(wall), 563.35s(cpu)
        *  Thank you very much for using Q-Chem.  Have a nice day.  *
