 Q-Chem 5.4, Q-Chem, Inc., Pleasanton, CA (2021)
 Q-Chem 5.4.0 for Intel X86 EM64T Linux

User input:
--------------------------------------------------------------
$molecule
0 1
C	-0.044210	-0.397395	-0.220018
S	0.024690	0.392805	1.360482
C	0.167390	2.024305	0.684882
C	0.042590	0.596805	-1.205418
C	0.157590	1.912005	-0.713518
H	0.022090	0.362105	-2.279918
H	0.234290	2.789605	-1.372618
C	-0.044210	-1.875595	-0.220018
H	-0.044710	-1.876195	0.859982
H	-1.030810	-2.314895	-0.220018
H	0.768790	-2.586595	-0.220118
H	0.244090	2.901605	1.335982
$end

$rem
JOBTYPE		SP
EXCHANGE	HF
CORRELATION	pRIMP2
BASIS		cc-pvtz
METHOD		rimp2
AUX_BASIS	rimp2-cc-pvtz
SOLVENT_METHOD	PCM
PURECART	11111
SYMMETRY	false
MEM_TOTAL	110000
SCF_CONVERGENCE = 6
THRESH=10
GUI = 2
$end

$solvent
dielectric 4.90
$end
--------------------------------------------------------------

             Standard Nuclear Orientation (Angstroms)
    I     Atom           X                Y                Z
 ----------------------------------------------------------------
    1      C      -0.0442100000    -0.3973950000    -0.2200180000
    2      S       0.0246900000     0.3928050000     1.3604820000
    3      C       0.1673900000     2.0243050000     0.6848820000
    4      C       0.0425900000     0.5968050000    -1.2054180000
    5      C       0.1575900000     1.9120050000    -0.7135180000
    6      H       0.0220900000     0.3621050000    -2.2799180000
    7      H       0.2342900000     2.7896050000    -1.3726180000
    8      C      -0.0442100000    -1.8755950000    -0.2200180000
    9      H      -0.0447100000    -1.8761950000     0.8599820000
   10      H      -1.0308100000    -2.3148950000    -0.2200180000
   11      H       0.7687900000    -2.5865950000    -0.2201180000
   12      H       0.2440900000     2.9016050000     1.3359820000
 ----------------------------------------------------------------

   10    -590.3697463353      5.92e-07  Convergence criterion met
 Total energy in the final basis set =     -590.3697463353
        RIMP2         total energy =      -591.3718918761 a.u.

                    Orbital Energies (a.u.)
 --------------------------------------------------------------

 Alpha MOs
 -- Occupied --
-91.9809 -11.2824 -11.2696 -11.2431 -11.2364 -11.2234  -8.9807  -6.6616
 -6.6610  -6.6605  -1.1581  -1.0398  -0.9733  -0.9183  -0.7590  -0.7203
 -0.6719  -0.5968  -0.5693  -0.5626  -0.5356  -0.5000  -0.4626  -0.4488
 -0.3466  -0.3124

          Ground-State Mulliken Net Atomic Charges

     Atom                 Charge (a.u.)
  ----------------------------------------
      1 C                     0.025634
      2 S                    -0.005397
      3 C                    -0.235463
      4 C                    -0.213359
      5 C                    -0.190570
      6 H                     0.185251
      7 H                     0.185959
      8 C                    -0.346171
      9 H                     0.110997
     10 H                     0.126819
     11 H                     0.149624
     12 H                     0.206675
  ----------------------------------------
  Sum of atomic charges =     0.000000

                    Cartesian Multipole Moments
 -----------------------------------------------------------------
    Charge (ESU x 10^10)
                -0.0000
    Dipole Moment (Debye)
         X       0.1054      Y      -0.1813      Z      -0.4320
       Tot       0.4802
    Quadrupole Moments (Debye-Ang)
        XX     -47.3799     XY       0.5949     YY     -36.1511
        XZ       0.0508     YZ      -0.3937     ZZ     -42.4116

 Total job time:  11.34s(wall), 597.18s(cpu)
        *  Thank you very much for using Q-Chem.  Have a nice day.  *
