 Q-Chem 5.4, Q-Chem, Inc., Pleasanton, CA (2021)
 Q-Chem 5.4.0 for Intel X86 EM64T Linux

User input:
--------------------------------------------------------------
$molecule
0 1
C	-0.221916	-0.350804	-0.219296
S	0.113084	0.368096	1.361204
C	0.805184	1.852396	0.685604
C	0.199684	0.553796	-1.204696
C	0.757584	1.750296	-0.712796
H	0.100084	0.340196	-2.279196
H	1.129784	2.548796	-1.371896
C	-0.221916	-1.829004	-0.219296
H	0.471884	-1.829604	0.608404
H	-0.977716	-2.268304	0.414904
H	0.400784	-2.540004	-0.741996
H	1.177284	2.650596	1.336704
$end

$rem
JOBTYPE		SP
EXCHANGE	HF
CORRELATION	pRIMP2
BASIS		cc-pvtz
METHOD		rimp2
AUX_BASIS	rimp2-cc-pvtz
SOLVENT_METHOD	PCM
PURECART	11111
SYMMETRY	false
MEM_TOTAL	110000
SCF_CONVERGENCE = 6
THRESH=10
GUI = 2
$end

$solvent
dielectric 4.90
$end
--------------------------------------------------------------

             Standard Nuclear Orientation (Angstroms)
    I     Atom           X                Y                Z
 ----------------------------------------------------------------
    1      C      -0.2219160000    -0.3508040000    -0.2192960000
    2      S       0.1130840000     0.3680960000     1.3612040000
    3      C       0.8051840000     1.8523960000     0.6856040000
    4      C       0.1996840000     0.5537960000    -1.2046960000
    5      C       0.7575840000     1.7502960000    -0.7127960000
    6      H       0.1000840000     0.3401960000    -2.2791960000
    7      H       1.1297840000     2.5487960000    -1.3718960000
    8      C      -0.2219160000    -1.8290040000    -0.2192960000
    9      H       0.4718840000    -1.8296040000     0.6084040000
   10      H      -0.9777160000    -2.2683040000     0.4149040000
   11      H       0.4007840000    -2.5400040000    -0.7419960000
   12      H       1.1772840000     2.6505960000     1.3367040000
 ----------------------------------------------------------------

   10    -590.3583437253      6.25e-07  Convergence criterion met
 Total energy in the final basis set =     -590.3583437253
        RIMP2         total energy =      -591.3616277543 a.u.

                    Orbital Energies (a.u.)
 --------------------------------------------------------------

 Alpha MOs
 -- Occupied --
-91.9769 -11.2821 -11.2710 -11.2429 -11.2378 -11.2222  -8.9774  -6.6582
 -6.6577  -6.6571  -1.1600  -1.0397  -0.9734  -0.9159  -0.7587  -0.7213
 -0.6717  -0.5948  -0.5690  -0.5634  -0.5328  -0.5003  -0.4650  -0.4528
 -0.3461  -0.3042

          Ground-State Mulliken Net Atomic Charges

     Atom                 Charge (a.u.)
  ----------------------------------------
      1 C                     0.014440
      2 S                    -0.005102
      3 C                    -0.227308
      4 C                    -0.236120
      5 C                    -0.184707
      6 H                     0.184045
      7 H                     0.186613
      8 C                    -0.361007
      9 H                     0.129758
     10 H                     0.130146
     11 H                     0.164051
     12 H                     0.205190
  ----------------------------------------
  Sum of atomic charges =     0.000000

                    Cartesian Multipole Moments
 -----------------------------------------------------------------
    Charge (ESU x 10^10)
                -0.0000
    Dipole Moment (Debye)
         X       1.0591      Y      -0.3371      Z      -0.5834
       Tot       1.2552
    Quadrupole Moments (Debye-Ang)
        XX     -46.4487     XY       2.4258     YY     -37.8294
        XZ      -0.2348     YZ      -0.0860     ZZ     -42.0968

 Total job time:  10.69s(wall), 560.32s(cpu)
        *  Thank you very much for using Q-Chem.  Have a nice day.  *
