 Q-Chem 5.4, Q-Chem, Inc., Pleasanton, CA (2021)
 Q-Chem 5.4.0 for Intel X86 EM64T Linux

User input:
--------------------------------------------------------------
$molecule
0 1
C	-0.334266	-0.278098	-0.219989
S	0.175434	0.329602	1.360511
C	1.228134	1.584202	0.684911
C	0.307134	0.486502	-1.205389
C	1.155634	1.497902	-0.713489
H	0.155634	0.306002	-2.279889
H	1.721834	2.172802	-1.372589
C	-0.334266	-1.756298	-0.219989
H	0.034634	-1.756898	0.795011
H	-1.261366	-2.195598	0.117411
H	0.429634	-2.467298	-0.498189
H	1.794134	2.258902	1.336011
$end

$rem
JOBTYPE		SP
EXCHANGE	HF
CORRELATION	pRIMP2
BASIS		cc-pvtz
METHOD		rimp2
AUX_BASIS	rimp2-cc-pvtz
SOLVENT_METHOD	PCM
PURECART	11111
SYMMETRY	false
MEM_TOTAL	110000
SCF_CONVERGENCE = 6
THRESH=10
GUI = 2
$end

$solvent
dielectric 4.90
$end
--------------------------------------------------------------

             Standard Nuclear Orientation (Angstroms)
    I     Atom           X                Y                Z
 ----------------------------------------------------------------
    1      C      -0.3342660000    -0.2780980000    -0.2199890000
    2      S       0.1754340000     0.3296020000     1.3605110000
    3      C       1.2281340000     1.5842020000     0.6849110000
    4      C       0.3071340000     0.4865020000    -1.2053890000
    5      C       1.1556340000     1.4979020000    -0.7134890000
    6      H       0.1556340000     0.3060020000    -2.2798890000
    7      H       1.7218340000     2.1728020000    -1.3725890000
    8      C      -0.3342660000    -1.7562980000    -0.2199890000
    9      H       0.0346340000    -1.7568980000     0.7950110000
   10      H      -1.2613660000    -2.1955980000     0.1174110000
   11      H       0.4296340000    -2.4672980000    -0.4981890000
   12      H       1.7941340000     2.2589020000     1.3360110000
 ----------------------------------------------------------------

   10    -590.3331351784      6.62e-07  Convergence criterion met
 Total energy in the final basis set =     -590.3331351784
        RIMP2         total energy =      -591.3417737887 a.u.

                    Orbital Energies (a.u.)
 --------------------------------------------------------------

 Alpha MOs
 -- Occupied --
-91.9759 -11.2798 -11.2689 -11.2462 -11.2429 -11.2154  -8.9768  -6.6575
 -6.6568  -6.6564  -1.1633  -1.0383  -0.9762  -0.9114  -0.7629  -0.7226
 -0.6716  -0.5914  -0.5721  -0.5633  -0.5370  -0.4892  -0.4623  -0.4453
 -0.3425  -0.3088

          Ground-State Mulliken Net Atomic Charges

     Atom                 Charge (a.u.)
  ----------------------------------------
      1 C                    -0.036780
      2 S                    -0.002489
      3 C                    -0.200522
      4 C                    -0.176709
      5 C                    -0.203820
      6 H                     0.184518
      7 H                     0.186676
      8 C                    -0.360844
      9 H                     0.125018
     10 H                     0.117899
     11 H                     0.160593
     12 H                     0.206459
  ----------------------------------------
  Sum of atomic charges =     0.000000

                    Cartesian Multipole Moments
 -----------------------------------------------------------------
    Charge (ESU x 10^10)
                 0.0000
    Dipole Moment (Debye)
         X       1.5142      Y       0.0274      Z      -0.5123
       Tot       1.5988
    Quadrupole Moments (Debye-Ang)
        XX     -44.1817     XY       3.8440     YY     -40.4288
        XZ       0.0633     YZ      -0.4406     ZZ     -41.9112

 Total job time:  12.10s(wall), 601.02s(cpu)
        *  Thank you very much for using Q-Chem.  Have a nice day.  *
