 Q-Chem 5.4, Q-Chem, Inc., Pleasanton, CA (2021)
 Q-Chem 5.4.0 for Intel X86 EM64T Linux

User input:
--------------------------------------------------------------
$molecule
0 1
C	-0.259242	-0.329934	-0.220089
S	0.137158	0.357066	1.360411
C	0.955958	1.775366	0.684811
C	0.239558	0.534466	-1.205489
C	0.899658	1.677866	-0.713589
H	0.121758	0.330366	-2.279989
H	1.340058	2.440766	-1.372689
C	-0.259242	-1.808134	-0.220089
H	-0.072242	-1.808734	0.843611
H	-1.230842	-2.247434	-0.048789
H	0.541358	-2.519134	-0.361389
H	1.396258	2.538166	1.335911
$end

$rem
JOBTYPE		SP
EXCHANGE	HF
CORRELATION	pRIMP2
BASIS		cc-pvtz
METHOD		rimp2
AUX_BASIS	rimp2-cc-pvtz
SOLVENT_METHOD	PCM
PURECART	11111
SYMMETRY	false
MEM_TOTAL	110000
SCF_CONVERGENCE = 6
THRESH=10
GUI = 2
$end

$solvent
dielectric 4.90
$end
--------------------------------------------------------------

             Standard Nuclear Orientation (Angstroms)
    I     Atom           X                Y                Z
 ----------------------------------------------------------------
    1      C      -0.2592420000    -0.3299340000    -0.2200890000
    2      S       0.1371580000     0.3570660000     1.3604110000
    3      C       0.9559580000     1.7753660000     0.6848110000
    4      C       0.2395580000     0.5344660000    -1.2054890000
    5      C       0.8996580000     1.6778660000    -0.7135890000
    6      H       0.1217580000     0.3303660000    -2.2799890000
    7      H       1.3400580000     2.4407660000    -1.3726890000
    8      C      -0.2592420000    -1.8081340000    -0.2200890000
    9      H      -0.0722420000    -1.8087340000     0.8436110000
   10      H      -1.2308420000    -2.2474340000    -0.0487890000
   11      H       0.5413580000    -2.5191340000    -0.3613890000
   12      H       1.3962580000     2.5381660000     1.3359110000
 ----------------------------------------------------------------

   10    -590.3495244013      6.86e-07  Convergence criterion met
 Total energy in the final basis set =     -590.3495244013
        RIMP2         total energy =      -591.3555737016 a.u.

                    Orbital Energies (a.u.)
 --------------------------------------------------------------

 Alpha MOs
 -- Occupied --
-91.9784 -11.2754 -11.2741 -11.2432 -11.2416 -11.2188  -8.9788  -6.6596
 -6.6589  -6.6584  -1.1606  -1.0385  -0.9748  -0.9146  -0.7611  -0.7213
 -0.6716  -0.5935  -0.5705  -0.5628  -0.5375  -0.4918  -0.4622  -0.4465
 -0.3443  -0.3115

          Ground-State Mulliken Net Atomic Charges

     Atom                 Charge (a.u.)
  ----------------------------------------
      1 C                    -0.011500
      2 S                    -0.003374
      3 C                    -0.217454
      4 C                    -0.202683
      5 C                    -0.191161
      6 H                     0.184299
      7 H                     0.186395
      8 C                    -0.348232
      9 H                     0.116658
     10 H                     0.120926
     11 H                     0.159567
     12 H                     0.206559
  ----------------------------------------
  Sum of atomic charges =     0.000000

                    Cartesian Multipole Moments
 -----------------------------------------------------------------
    Charge (ESU x 10^10)
                 0.0000
    Dipole Moment (Debye)
         X       0.9860      Y      -0.0074      Z      -0.4679
       Tot       1.0914
    Quadrupole Moments (Debye-Ang)
        XX     -45.4003     XY       3.4881     YY     -38.6929
        XZ       0.0787     YZ      -0.4130     ZZ     -42.1499

 Total job time:  12.40s(wall), 614.33s(cpu)
        *  Thank you very much for using Q-Chem.  Have a nice day.  *
