 Q-Chem 5.4, Q-Chem, Inc., Pleasanton, CA (2021)
 Q-Chem 5.4.0 for Intel X86 EM64T Linux

User input:
--------------------------------------------------------------
$molecule
0 1
C	-0.333292	-0.278098	-0.220089
S	0.176408	0.329602	1.360411
C	1.229108	1.584202	0.684811
C	0.308108	0.486502	-1.205489
C	1.156608	1.497902	-0.713589
H	0.156608	0.306002	-2.279989
H	1.722808	2.172802	-1.372689
C	-0.333292	-1.756298	-0.220089
H	-0.146292	-1.756898	0.843611
H	-1.304892	-2.195598	-0.048789
H	0.467308	-2.467298	-0.361389
H	1.795108	2.258902	1.335911
$end

$rem
JOBTYPE		SP
EXCHANGE	HF
CORRELATION	pRIMP2
BASIS		cc-pvtz
METHOD		rimp2
AUX_BASIS	rimp2-cc-pvtz
SOLVENT_METHOD	PCM
PURECART	11111
SYMMETRY	false
MEM_TOTAL	110000
SCF_CONVERGENCE = 6
THRESH=10
GUI = 2
$end

$solvent
dielectric 4.90
$end
--------------------------------------------------------------

             Standard Nuclear Orientation (Angstroms)
    I     Atom           X                Y                Z
 ----------------------------------------------------------------
    1      C      -0.3332920000    -0.2780980000    -0.2200890000
    2      S       0.1764080000     0.3296020000     1.3604110000
    3      C       1.2291080000     1.5842020000     0.6848110000
    4      C       0.3081080000     0.4865020000    -1.2054890000
    5      C       1.1566080000     1.4979020000    -0.7135890000
    6      H       0.1566080000     0.3060020000    -2.2799890000
    7      H       1.7228080000     2.1728020000    -1.3726890000
    8      C      -0.3332920000    -1.7562980000    -0.2200890000
    9      H      -0.1462920000    -1.7568980000     0.8436110000
   10      H      -1.3048920000    -2.1955980000    -0.0487890000
   11      H       0.4673080000    -2.4672980000    -0.3613890000
   12      H       1.7951080000     2.2589020000     1.3359110000
 ----------------------------------------------------------------

   10    -590.3335675977      7.86e-07  Convergence criterion met
 Total energy in the final basis set =     -590.3335675977
        RIMP2         total energy =      -591.3424694152 a.u.

                    Orbital Energies (a.u.)
 --------------------------------------------------------------

 Alpha MOs
 -- Occupied --
-91.9769 -11.2804 -11.2671 -11.2465 -11.2430 -11.2156  -8.9776  -6.6584
 -6.6576  -6.6572  -1.1630  -1.0380  -0.9764  -0.9117  -0.7631  -0.7225
 -0.6716  -0.5916  -0.5719  -0.5628  -0.5390  -0.4857  -0.4621  -0.4442
 -0.3422  -0.3115

          Ground-State Mulliken Net Atomic Charges

     Atom                 Charge (a.u.)
  ----------------------------------------
      1 C                    -0.042852
      2 S                    -0.000793
      3 C                    -0.200917
      4 C                    -0.172741
      5 C                    -0.202060
      6 H                     0.184508
      7 H                     0.186523
      8 C                    -0.352511
      9 H                     0.119047
     10 H                     0.116212
     11 H                     0.158638
     12 H                     0.206946
  ----------------------------------------
  Sum of atomic charges =     0.000000

                    Cartesian Multipole Moments
 -----------------------------------------------------------------
    Charge (ESU x 10^10)
                 0.0000
    Dipole Moment (Debye)
         X       1.4277      Y       0.0920      Z      -0.4891
       Tot       1.5119
    Quadrupole Moments (Debye-Ang)
        XX     -44.0444     XY       4.0724     YY     -40.4145
        XZ       0.1764     YZ      -0.4770     ZZ     -41.9388

 Total job time:  11.63s(wall), 598.65s(cpu)
        *  Thank you very much for using Q-Chem.  Have a nice day.  *
