 Q-Chem 5.4, Q-Chem, Inc., Pleasanton, CA (2021)
 Q-Chem 5.4.0 for Intel X86 EM64T Linux

User input:
--------------------------------------------------------------
$molecule
0 1
C	-0.338725	-0.278098	-0.213418
S	0.170975	0.329602	1.367082
C	1.223675	1.584202	0.691482
C	0.302675	0.486502	-1.198818
C	1.151175	1.497902	-0.706918
H	0.151175	0.306002	-2.273318
H	1.717375	2.172802	-1.366018
C	-0.338725	-1.756298	-0.213418
H	0.676275	-1.756898	-0.582318
H	-0.001325	-2.195598	0.713682
H	-0.616925	-2.467298	-0.977318
H	1.789675	2.258902	1.342582
$end

$rem
JOBTYPE		SP
EXCHANGE	HF
CORRELATION	pRIMP2
BASIS		cc-pvtz
METHOD		rimp2
AUX_BASIS	rimp2-cc-pvtz
SOLVENT_METHOD	PCM
PURECART	11111
SYMMETRY	false
MEM_TOTAL	110000
SCF_CONVERGENCE = 6
THRESH=10
GUI = 2
$end

$solvent
dielectric 4.90
$end
--------------------------------------------------------------

             Standard Nuclear Orientation (Angstroms)
    I     Atom           X                Y                Z
 ----------------------------------------------------------------
    1      C      -0.3387250000    -0.2780980000    -0.2134180000
    2      S       0.1709750000     0.3296020000     1.3670820000
    3      C       1.2236750000     1.5842020000     0.6914820000
    4      C       0.3026750000     0.4865020000    -1.1988180000
    5      C       1.1511750000     1.4979020000    -0.7069180000
    6      H       0.1511750000     0.3060020000    -2.2733180000
    7      H       1.7173750000     2.1728020000    -1.3660180000
    8      C      -0.3387250000    -1.7562980000    -0.2134180000
    9      H       0.6762750000    -1.7568980000    -0.5823180000
   10      H      -0.0013250000    -2.1955980000     0.7136820000
   11      H      -0.6169250000    -2.4672980000    -0.9773180000
   12      H       1.7896750000     2.2589020000     1.3425820000
 ----------------------------------------------------------------

   10    -590.3424092036      7.92e-07  Convergence criterion met
 Total energy in the final basis set =     -590.3424092036
        RIMP2         total energy =      -591.3502389824 a.u.

                    Orbital Energies (a.u.)
 --------------------------------------------------------------

 Alpha MOs
 -- Occupied --
-91.9795 -11.2807 -11.2712 -11.2442 -11.2362 -11.2227  -8.9795  -6.6603
 -6.6597  -6.6593  -1.1632  -1.0389  -0.9745  -0.9120  -0.7581  -0.7242
 -0.6714  -0.5961  -0.5669  -0.5562  -0.5437  -0.4869  -0.4713  -0.4568
 -0.3456  -0.2968

          Ground-State Mulliken Net Atomic Charges

     Atom                 Charge (a.u.)
  ----------------------------------------
      1 C                    -0.023927
      2 S                     0.009817
      3 C                    -0.223181
      4 C                    -0.188624
      5 C                    -0.206091
      6 H                     0.178457
      7 H                     0.187212
      8 C                    -0.363861
      9 H                     0.144628
     10 H                     0.132056
     11 H                     0.148597
     12 H                     0.204917
  ----------------------------------------
  Sum of atomic charges =     0.000000

                    Cartesian Multipole Moments
 -----------------------------------------------------------------
    Charge (ESU x 10^10)
                 0.0000
    Dipole Moment (Debye)
         X       1.6113      Y      -0.5358      Z      -1.2634
       Tot       2.1165
    Quadrupole Moments (Debye-Ang)
        XX     -45.1603     XY       3.4093     YY     -40.2696
        XZ       0.5014     YZ       1.4066     ZZ     -41.2991

 Total job time:  11.17s(wall), 583.75s(cpu)
        *  Thank you very much for using Q-Chem.  Have a nice day.  *
