 Q-Chem 5.4, Q-Chem, Inc., Pleasanton, CA (2021)
 Q-Chem 5.4.0 for Intel X86 EM64T Linux

User input:
--------------------------------------------------------------
$molecule
0 1
C	-0.135165	-0.381707	-0.219989
S	0.069935	0.384493	1.360511
C	0.493735	1.966393	0.684911
C	0.122935	0.582293	-1.205389
C	0.464535	1.857593	-0.713489
H	0.062035	0.354693	-2.279889
H	0.692535	2.708493	-1.372589
C	-0.135165	-1.859907	-0.219989
H	0.233735	-1.860507	0.795011
H	-1.062265	-2.299207	0.117411
H	0.628735	-2.570907	-0.498189
H	0.721635	2.817093	1.336011
$end

$rem
JOBTYPE		SP
EXCHANGE	HF
CORRELATION	pRIMP2
BASIS		cc-pvtz
METHOD		rimp2
AUX_BASIS	rimp2-cc-pvtz
SOLVENT_METHOD	PCM
PURECART	11111
SYMMETRY	false
MEM_TOTAL	110000
SCF_CONVERGENCE = 6
THRESH=10
GUI = 2
$end

$solvent
dielectric 4.90
$end
--------------------------------------------------------------

             Standard Nuclear Orientation (Angstroms)
    I     Atom           X                Y                Z
 ----------------------------------------------------------------
    1      C      -0.1351650000    -0.3817070000    -0.2199890000
    2      S       0.0699350000     0.3844930000     1.3605110000
    3      C       0.4937350000     1.9663930000     0.6849110000
    4      C       0.1229350000     0.5822930000    -1.2053890000
    5      C       0.4645350000     1.8575930000    -0.7134890000
    6      H       0.0620350000     0.3546930000    -2.2798890000
    7      H       0.6925350000     2.7084930000    -1.3725890000
    8      C      -0.1351650000    -1.8599070000    -0.2199890000
    9      H       0.2337350000    -1.8605070000     0.7950110000
   10      H      -1.0622650000    -2.2992070000     0.1174110000
   11      H       0.6287350000    -2.5709070000    -0.4981890000
   12      H       0.7216350000     2.8170930000     1.3360110000
 ----------------------------------------------------------------

   10    -590.3652711280      5.99e-07  Convergence criterion met
 Total energy in the final basis set =     -590.3652711280
        RIMP2         total energy =      -591.3678584420 a.u.

                    Orbital Energies (a.u.)
 --------------------------------------------------------------

 Alpha MOs
 -- Occupied --
-91.9794 -11.2819 -11.2703 -11.2429 -11.2370 -11.2225  -8.9796  -6.6604
 -6.6599  -6.6593  -1.1587  -1.0397  -0.9733  -0.9174  -0.7589  -0.7206
 -0.6718  -0.5958  -0.5692  -0.5631  -0.5346  -0.4997  -0.4630  -0.4506
 -0.3460  -0.3098

          Ground-State Mulliken Net Atomic Charges

     Atom                 Charge (a.u.)
  ----------------------------------------
      1 C                     0.018051
      2 S                    -0.005009
      3 C                    -0.231020
      4 C                    -0.221710
      5 C                    -0.187864
      6 H                     0.184979
      7 H                     0.185945
      8 C                    -0.350969
      9 H                     0.117038
     10 H                     0.127738
     11 H                     0.156707
     12 H                     0.206113
  ----------------------------------------
  Sum of atomic charges =     0.000000

                    Cartesian Multipole Moments
 -----------------------------------------------------------------
    Charge (ESU x 10^10)
                -0.0000
    Dipole Moment (Debye)
         X       0.5872      Y      -0.2114      Z      -0.4600
       Tot       0.7753
    Quadrupole Moments (Debye-Ang)
        XX     -47.0277     XY       1.5864     YY     -36.7583
        XZ      -0.1740     YZ      -0.2998     ZZ     -42.3065

 Total job time:  10.02s(wall), 544.91s(cpu)
        *  Thank you very much for using Q-Chem.  Have a nice day.  *
