 Q-Chem 5.4, Q-Chem, Inc., Pleasanton, CA (2021)
 Q-Chem 5.4.0 for Intel X86 EM64T Linux

User input:
--------------------------------------------------------------
$molecule
0 1
C	-0.337565	-0.278098	-0.218020
S	0.172135	0.329602	1.362480
C	1.224835	1.584202	0.686880
C	0.303835	0.486502	-1.203420
C	1.152335	1.497902	-0.711520
H	0.152335	0.306002	-2.277920
H	1.718535	2.172802	-1.370620
C	-0.337565	-1.756298	-0.218020
H	0.597435	-1.756898	0.322480
H	-0.830865	-2.195598	0.636380
H	0.068835	-2.467298	-0.922120
H	1.790835	2.258902	1.337980
$end

$rem
JOBTYPE		SP
EXCHANGE	HF
CORRELATION	pRIMP2
BASIS		cc-pvtz
METHOD		rimp2
AUX_BASIS	rimp2-cc-pvtz
SOLVENT_METHOD	PCM
PURECART	11111
SYMMETRY	false
MEM_TOTAL	110000
SCF_CONVERGENCE = 6
THRESH=10
GUI = 2
$end

$solvent
dielectric 4.90
$end
--------------------------------------------------------------

             Standard Nuclear Orientation (Angstroms)
    I     Atom           X                Y                Z
 ----------------------------------------------------------------
    1      C      -0.3375650000    -0.2780980000    -0.2180200000
    2      S       0.1721350000     0.3296020000     1.3624800000
    3      C       1.2248350000     1.5842020000     0.6868800000
    4      C       0.3038350000     0.4865020000    -1.2034200000
    5      C       1.1523350000     1.4979020000    -0.7115200000
    6      H       0.1523350000     0.3060020000    -2.2779200000
    7      H       1.7185350000     2.1728020000    -1.3706200000
    8      C      -0.3375650000    -1.7562980000    -0.2180200000
    9      H       0.5974350000    -1.7568980000     0.3224800000
   10      H      -0.8308650000    -2.1955980000     0.6363800000
   11      H       0.0688350000    -2.4672980000    -0.9221200000
   12      H       1.7908350000     2.2589020000     1.3379800000
 ----------------------------------------------------------------

   10    -590.3416303338      6.75e-07  Convergence criterion met
 Total energy in the final basis set =     -590.3416303338
        RIMP2         total energy =      -591.3481960738 a.u.

                    Orbital Energies (a.u.)
 --------------------------------------------------------------

 Alpha MOs
 -- Occupied --
-91.9747 -11.2783 -11.2755 -11.2440 -11.2406 -11.2221  -8.9756  -6.6564
 -6.6558  -6.6553  -1.1639  -1.0397  -0.9747  -0.9123  -0.7601  -0.7233
 -0.6721  -0.5938  -0.5697  -0.5640  -0.5307  -0.5011  -0.4659  -0.4521
 -0.3469  -0.2987

          Ground-State Mulliken Net Atomic Charges

     Atom                 Charge (a.u.)
  ----------------------------------------
      1 C                    -0.008362
      2 S                    -0.007111
      3 C                    -0.215129
      4 C                    -0.214348
      5 C                    -0.193418
      6 H                     0.182568
      7 H                     0.187555
      8 C                    -0.360976
      9 H                     0.139449
     10 H                     0.123406
     11 H                     0.160867
     12 H                     0.205499
  ----------------------------------------
  Sum of atomic charges =     0.000000

                    Cartesian Multipole Moments
 -----------------------------------------------------------------
    Charge (ESU x 10^10)
                 0.0000
    Dipole Moment (Debye)
         X       1.6723      Y      -0.3993      Z      -0.8272
       Tot       1.9080
    Quadrupole Moments (Debye-Ang)
        XX     -44.9022     XY       3.4443     YY     -40.0890
        XZ      -0.0146     YZ       0.3046     ZZ     -41.7511

 Total job time:  11.53s(wall), 593.49s(cpu)
        *  Thank you very much for using Q-Chem.  Have a nice day.  *
