 Q-Chem 5.4, Q-Chem, Inc., Pleasanton, CA (2021)
 Q-Chem 5.4.0 for Intel X86 EM64T Linux

User input:
--------------------------------------------------------------
$molecule
0 1
C	-0.215365	-0.350804	-0.210225
S	0.119635	0.368096	1.370275
C	0.811735	1.852396	0.694675
C	0.206235	0.553796	-1.195625
C	0.764135	1.750296	-0.703725
H	0.106635	0.340196	-2.270125
H	1.136335	2.548796	-1.362825
C	-0.215365	-1.829004	-0.210225
H	-1.042365	-1.829604	-0.904825
H	0.418835	-2.268304	-0.966025
H	-0.737865	-2.540004	0.412675
H	1.183835	2.650596	1.345775
$end

$rem
JOBTYPE		SP
EXCHANGE	HF
CORRELATION	pRIMP2
BASIS		cc-pvtz
METHOD		rimp2
AUX_BASIS	rimp2-cc-pvtz
SOLVENT_METHOD	PCM
PURECART	11111
SYMMETRY	false
MEM_TOTAL	110000
SCF_CONVERGENCE = 6
THRESH=10
GUI = 2
$end

$solvent
dielectric 4.90
$end
--------------------------------------------------------------

             Standard Nuclear Orientation (Angstroms)
    I     Atom           X                Y                Z
 ----------------------------------------------------------------
    1      C      -0.2153650000    -0.3508040000    -0.2102250000
    2      S       0.1196350000     0.3680960000     1.3702750000
    3      C       0.8117350000     1.8523960000     0.6946750000
    4      C       0.2062350000     0.5537960000    -1.1956250000
    5      C       0.7641350000     1.7502960000    -0.7037250000
    6      H       0.1066350000     0.3401960000    -2.2701250000
    7      H       1.1363350000     2.5487960000    -1.3628250000
    8      C      -0.2153650000    -1.8290040000    -0.2102250000
    9      H      -1.0423650000    -1.8296040000    -0.9048250000
   10      H       0.4188350000    -2.2683040000    -0.9660250000
   11      H      -0.7378650000    -2.5400040000     0.4126750000
   12      H       1.1838350000     2.6505960000     1.3457750000
 ----------------------------------------------------------------

   10    -590.3589269246      6.72e-07  Convergence criterion met
 Total energy in the final basis set =     -590.3589269246
        RIMP2         total energy =      -591.3638320080 a.u.

                    Orbital Energies (a.u.)
 --------------------------------------------------------------

 Alpha MOs
 -- Occupied --
-91.9749 -11.2839 -11.2676 -11.2434 -11.2392 -11.2229  -8.9751  -6.6559
 -6.6553  -6.6548  -1.1576  -1.0380  -0.9722  -0.9183  -0.7546  -0.7233
 -0.6706  -0.5967  -0.5643  -0.5606  -0.5439  -0.5008  -0.4647  -0.4428
 -0.3451  -0.3017

          Ground-State Mulliken Net Atomic Charges

     Atom                 Charge (a.u.)
  ----------------------------------------
      1 C                     0.018212
      2 S                    -0.000165
      3 C                    -0.231376
      4 C                    -0.237459
      5 C                    -0.184871
      6 H                     0.180311
      7 H                     0.186788
      8 C                    -0.372213
      9 H                     0.129042
     10 H                     0.140276
     11 H                     0.169112
     12 H                     0.202343
  ----------------------------------------
  Sum of atomic charges =     0.000000

                    Cartesian Multipole Moments
 -----------------------------------------------------------------
    Charge (ESU x 10^10)
                -0.0000
    Dipole Moment (Debye)
         X       0.0165      Y      -0.5346      Z      -1.5749
       Tot       1.6632
    Quadrupole Moments (Debye-Ang)
        XX     -46.1906     XY       4.7216     YY     -37.7628
        XZ       0.0014     YZ       1.3907     ZZ     -41.7504

 Total job time:  10.52s(wall), 568.48s(cpu)
        *  Thank you very much for using Q-Chem.  Have a nice day.  *
