 Q-Chem 5.4, Q-Chem, Inc., Pleasanton, CA (2021)
 Q-Chem 5.4.0 for Intel X86 EM64T Linux

User input:
--------------------------------------------------------------
$molecule
0 1
C	-0.193158	-0.369053	-0.215368
S	0.077942	0.376347	1.365132
C	0.638042	1.915347	0.689532
C	0.148042	0.568847	-1.200768
C	0.599442	1.809447	-0.708868
H	0.067442	0.347347	-2.275268
H	0.900742	2.637247	-1.367968
C	-0.064358	-1.841653	-0.215368
H	1.011642	-1.748153	-0.214868
H	-0.026058	-2.279253	0.771232
H	-0.002458	-2.549853	-1.028368
H	0.939142	2.742947	1.340632
$end

$rem
JOBTYPE		SP
EXCHANGE	HF
CORRELATION	pRIMP2
BASIS		cc-pvtz
METHOD		rimp2
AUX_BASIS	rimp2-cc-pvtz
SOLVENT_METHOD	PCM
PURECART	11111
SYMMETRY	false
MEM_TOTAL	110000
SCF_CONVERGENCE = 6
THRESH=10
GUI = 2
$end

$solvent
dielectric 4.90
$end
--------------------------------------------------------------

             Standard Nuclear Orientation (Angstroms)
    I     Atom           X                Y                Z
 ----------------------------------------------------------------
    1      C      -0.1931580000    -0.3690530000    -0.2153680000
    2      S       0.0779420000     0.3763470000     1.3651320000
    3      C       0.6380420000     1.9153470000     0.6895320000
    4      C       0.1480420000     0.5688470000    -1.2007680000
    5      C       0.5994420000     1.8094470000    -0.7088680000
    6      H       0.0674420000     0.3473470000    -2.2752680000
    7      H       0.9007420000     2.6372470000    -1.3679680000
    8      C      -0.0643580000    -1.8416530000    -0.2153680000
    9      H       1.0116420000    -1.7481530000    -0.2148680000
   10      H      -0.0260580000    -2.2792530000     0.7712320000
   11      H      -0.0024580000    -2.5498530000    -1.0283680000
   12      H       0.9391420000     2.7429470000     1.3406320000
 ----------------------------------------------------------------

   10    -590.3646634264      6.42e-07  Convergence criterion met
 Total energy in the final basis set =     -590.3646634264
        RIMP2         total energy =      -591.3666607110 a.u.

                    Orbital Energies (a.u.)
 --------------------------------------------------------------

 Alpha MOs
 -- Occupied --
-91.9789 -11.2892 -11.2650 -11.2434 -11.2314 -11.2281  -8.9789  -6.6598
 -6.6593  -6.6587  -1.1596  -1.0406  -0.9721  -0.9166  -0.7560  -0.7224
 -0.6715  -0.5967  -0.5666  -0.5577  -0.5398  -0.4957  -0.4763  -0.4569
 -0.3470  -0.2969

          Ground-State Mulliken Net Atomic Charges

     Atom                 Charge (a.u.)
  ----------------------------------------
      1 C                     0.020567
      2 S                     0.000232
      3 C                    -0.247037
      4 C                    -0.244817
      5 C                    -0.181364
      6 H                     0.178910
      7 H                     0.186738
      8 C                    -0.359933
      9 H                     0.148494
     10 H                     0.131590
     11 H                     0.162193
     12 H                     0.204427
  ----------------------------------------
  Sum of atomic charges =     0.000000

                    Cartesian Multipole Moments
 -----------------------------------------------------------------
    Charge (ESU x 10^10)
                -0.0000
    Dipole Moment (Debye)
         X       1.2702      Y      -0.6828      Z      -1.0604
       Tot       1.7900
    Quadrupole Moments (Debye-Ang)
        XX     -47.3838     XY       1.2530     YY     -37.3576
        XZ      -0.0452     YZ       1.0779     ZZ     -41.6836

 Total job time:  11.65s(wall), 587.97s(cpu)
        *  Thank you very much for using Q-Chem.  Have a nice day.  *
