 Q-Chem 5.4, Q-Chem, Inc., Pleasanton, CA (2021)
 Q-Chem 5.4.0 for Intel X86 EM64T Linux

User input:
--------------------------------------------------------------
$molecule
0 1
C	-0.046160	-0.397395	-0.219989
S	0.022740	0.392805	1.360511
C	0.165440	2.024305	0.684911
C	0.040640	0.596805	-1.205389
C	0.155640	1.912005	-0.713489
H	0.020140	0.362105	-2.279889
H	0.232340	2.789605	-1.372589
C	-0.046160	-1.875595	-0.219989
H	0.322740	-1.876195	0.795011
H	-0.973260	-2.314895	0.117411
H	0.717740	-2.586595	-0.498189
H	0.242140	2.901605	1.336011
$end

$rem
JOBTYPE		SP
EXCHANGE	HF
CORRELATION	pRIMP2
BASIS		cc-pvtz
METHOD		rimp2
AUX_BASIS	rimp2-cc-pvtz
SOLVENT_METHOD	PCM
PURECART	11111
SYMMETRY	false
MEM_TOTAL	110000
SCF_CONVERGENCE = 6
THRESH=10
GUI = 2
$end

$solvent
dielectric 4.90
$end
--------------------------------------------------------------

             Standard Nuclear Orientation (Angstroms)
    I     Atom           X                Y                Z
 ----------------------------------------------------------------
    1      C      -0.0461600000    -0.3973950000    -0.2199890000
    2      S       0.0227400000     0.3928050000     1.3605110000
    3      C       0.1654400000     2.0243050000     0.6849110000
    4      C       0.0406400000     0.5968050000    -1.2053890000
    5      C       0.1556400000     1.9120050000    -0.7134890000
    6      H       0.0201400000     0.3621050000    -2.2798890000
    7      H       0.2323400000     2.7896050000    -1.3725890000
    8      C      -0.0461600000    -1.8755950000    -0.2199890000
    9      H       0.3227400000    -1.8761950000     0.7950110000
   10      H      -0.9732600000    -2.3148950000     0.1174110000
   11      H       0.7177400000    -2.5865950000    -0.4981890000
   12      H       0.2421400000     2.9016050000     1.3360110000
 ----------------------------------------------------------------

   10    -590.3702599719      5.86e-07  Convergence criterion met
 Total energy in the final basis set =     -590.3702599719
        RIMP2         total energy =      -591.3718883576 a.u.

                    Orbital Energies (a.u.)
 --------------------------------------------------------------

 Alpha MOs
 -- Occupied --
-91.9803 -11.2838 -11.2690 -11.2429 -11.2357 -11.2238  -8.9802  -6.6611
 -6.6606  -6.6600  -1.1581  -1.0401  -0.9730  -0.9184  -0.7584  -0.7204
 -0.6719  -0.5968  -0.5687  -0.5630  -0.5344  -0.5011  -0.4634  -0.4514
 -0.3465  -0.3101

          Ground-State Mulliken Net Atomic Charges

     Atom                 Charge (a.u.)
  ----------------------------------------
      1 C                     0.024738
      2 S                    -0.004879
      3 C                    -0.234971
      4 C                    -0.219120
      5 C                    -0.189564
      6 H                     0.185384
      7 H                     0.185846
      8 C                    -0.350766
      9 H                     0.114449
     10 H                     0.127774
     11 H                     0.154868
     12 H                     0.206240
  ----------------------------------------
  Sum of atomic charges =     0.000000

                    Cartesian Multipole Moments
 -----------------------------------------------------------------
    Charge (ESU x 10^10)
                -0.0000
    Dipole Moment (Debye)
         X       0.3265      Y      -0.2585      Z      -0.4535
       Tot       0.6157
    Quadrupole Moments (Debye-Ang)
        XX     -47.4974     XY       0.1134     YY     -36.1148
        XZ      -0.2475     YZ      -0.2713     ZZ     -42.3618

 Total job time:  11.38s(wall), 576.42s(cpu)
        *  Thank you very much for using Q-Chem.  Have a nice day.  *
