 Q-Chem 5.4, Q-Chem, Inc., Pleasanton, CA (2021)
 Q-Chem 5.4.0 for Intel X86 EM64T Linux

User input:
--------------------------------------------------------------
$molecule
0 1
C	-0.254338	-0.329934	-0.217353
S	0.142062	0.357066	1.363147
C	0.960862	1.775366	0.687547
C	0.244462	0.534466	-1.202753
C	0.904562	1.677866	-0.710853
H	0.126662	0.330366	-2.277253
H	1.344962	2.440766	-1.369953
C	-0.254338	-1.808134	-0.217353
H	-1.082038	-1.808734	0.476447
H	-0.888538	-2.247434	-0.973153
H	0.268362	-2.519134	0.405347
H	1.401162	2.538166	1.338647
$end

$rem
JOBTYPE		SP
EXCHANGE	HF
CORRELATION	pRIMP2
BASIS		cc-pvtz
METHOD		rimp2
AUX_BASIS	rimp2-cc-pvtz
SOLVENT_METHOD	PCM
PURECART	11111
SYMMETRY	false
MEM_TOTAL	110000
SCF_CONVERGENCE = 6
THRESH=10
GUI = 2
$end

$solvent
dielectric 4.90
$end
--------------------------------------------------------------

             Standard Nuclear Orientation (Angstroms)
    I     Atom           X                Y                Z
 ----------------------------------------------------------------
    1      C      -0.2543380000    -0.3299340000    -0.2173530000
    2      S       0.1420620000     0.3570660000     1.3631470000
    3      C       0.9608620000     1.7753660000     0.6875470000
    4      C       0.2444620000     0.5344660000    -1.2027530000
    5      C       0.9045620000     1.6778660000    -0.7108530000
    6      H       0.1266620000     0.3303660000    -2.2772530000
    7      H       1.3449620000     2.4407660000    -1.3699530000
    8      C      -0.2543380000    -1.8081340000    -0.2173530000
    9      H      -1.0820380000    -1.8087340000     0.4764470000
   10      H      -0.8885380000    -2.2474340000    -0.9731530000
   11      H       0.2683620000    -2.5191340000     0.4053470000
   12      H       1.4011620000     2.5381660000     1.3386470000
 ----------------------------------------------------------------

   10    -590.3523941948      7.54e-07  Convergence criterion met
 Total energy in the final basis set =     -590.3523941948
        RIMP2         total energy =      -591.3580647588 a.u.

                    Orbital Energies (a.u.)
 --------------------------------------------------------------

 Alpha MOs
 -- Occupied --
-91.9783 -11.2763 -11.2738 -11.2435 -11.2400 -11.2206  -8.9784  -6.6592
 -6.6587  -6.6582  -1.1592  -1.0375  -0.9738  -0.9172  -0.7587  -0.7217
 -0.6705  -0.5955  -0.5652  -0.5608  -0.5458  -0.4838  -0.4650  -0.4535
 -0.3462  -0.3043

          Ground-State Mulliken Net Atomic Charges

     Atom                 Charge (a.u.)
  ----------------------------------------
      1 C                    -0.035525
      2 S                    -0.003535
      3 C                    -0.211840
      4 C                    -0.184120
      5 C                    -0.198458
      6 H                     0.184324
      7 H                     0.185914
      8 C                    -0.355676
      9 H                     0.122280
     10 H                     0.126324
     11 H                     0.164812
     12 H                     0.205499
  ----------------------------------------
  Sum of atomic charges =     0.000000

                    Cartesian Multipole Moments
 -----------------------------------------------------------------
    Charge (ESU x 10^10)
                 0.0000
    Dipole Moment (Debye)
         X       0.3277      Y      -0.1516      Z      -0.7045
       Tot       0.7916
    Quadrupole Moments (Debye-Ang)
        XX     -45.5526     XY       4.8807     YY     -38.4882
        XZ       0.7663     YZ      -0.1311     ZZ     -41.8502

 Total job time:  11.27s(wall), 571.38s(cpu)
        *  Thank you very much for using Q-Chem.  Have a nice day.  *
