 Q-Chem 5.4, Q-Chem, Inc., Pleasanton, CA (2021)
 Q-Chem 5.4.0 for Intel X86 EM64T Linux

User input:
--------------------------------------------------------------
$molecule
0 1
C	-0.042225	-0.397395	-0.209652
S	0.026675	0.392805	1.370848
C	0.169375	2.024305	0.695248
C	0.044575	0.596805	-1.195052
C	0.159575	1.912005	-0.703152
H	0.024075	0.362105	-2.269552
H	0.236275	2.789605	-1.362252
C	-0.042225	-1.875595	-0.209652
H	-0.736025	-1.876195	-1.037352
H	0.713575	-2.314895	-0.843852
H	-0.664925	-2.586595	0.313048
H	0.246075	2.901605	1.346348
$end

$rem
JOBTYPE		SP
EXCHANGE	HF
CORRELATION	pRIMP2
BASIS		cc-pvtz
METHOD		rimp2
AUX_BASIS	rimp2-cc-pvtz
SOLVENT_METHOD	PCM
PURECART	11111
SYMMETRY	false
MEM_TOTAL	110000
SCF_CONVERGENCE = 6
THRESH=10
GUI = 2
$end

$solvent
dielectric 4.90
$end
--------------------------------------------------------------

             Standard Nuclear Orientation (Angstroms)
    I     Atom           X                Y                Z
 ----------------------------------------------------------------
    1      C      -0.0422250000    -0.3973950000    -0.2096520000
    2      S       0.0266750000     0.3928050000     1.3708480000
    3      C       0.1693750000     2.0243050000     0.6952480000
    4      C       0.0445750000     0.5968050000    -1.1950520000
    5      C       0.1595750000     1.9120050000    -0.7031520000
    6      H       0.0240750000     0.3621050000    -2.2695520000
    7      H       0.2362750000     2.7896050000    -1.3622520000
    8      C      -0.0422250000    -1.8755950000    -0.2096520000
    9      H      -0.7360250000    -1.8761950000    -1.0373520000
   10      H       0.7135750000    -2.3148950000    -0.8438520000
   11      H      -0.6649250000    -2.5865950000     0.3130480000
   12      H       0.2460750000     2.9016050000     1.3463480000
 ----------------------------------------------------------------

   10    -590.3719863381      5.99e-07  Convergence criterion met
 Total energy in the final basis set =     -590.3719863381
        RIMP2         total energy =      -591.3739245830 a.u.

                    Orbital Energies (a.u.)
 --------------------------------------------------------------

 Alpha MOs
 -- Occupied --
-91.9759 -11.2888 -11.2647 -11.2431 -11.2371 -11.2252  -8.9759  -6.6567
 -6.6562  -6.6557  -1.1566  -1.0389  -0.9718  -0.9196  -0.7537  -0.7233
 -0.6716  -0.5983  -0.5661  -0.5610  -0.5435  -0.4988  -0.4676  -0.4443
 -0.3452  -0.3050

          Ground-State Mulliken Net Atomic Charges

     Atom                 Charge (a.u.)
  ----------------------------------------
      1 C                     0.037684
      2 S                    -0.004580
      3 C                    -0.241686
      4 C                    -0.237514
      5 C                    -0.189018
      6 H                     0.181894
      7 H                     0.185890
      8 C                    -0.367767
      9 H                     0.128817
     10 H                     0.131683
     11 H                     0.171743
     12 H                     0.202855
  ----------------------------------------
  Sum of atomic charges =     0.000000

                    Cartesian Multipole Moments
 -----------------------------------------------------------------
    Charge (ESU x 10^10)
                -0.0000
    Dipole Moment (Debye)
         X      -0.3536      Y      -0.6201      Z      -1.6478
       Tot       1.7958
    Quadrupole Moments (Debye-Ang)
        XX     -47.6974     XY       1.9259     YY     -36.0663
        XZ      -0.2340     YZ       1.6814     ZZ     -41.9256

 Total job time:  11.33s(wall), 583.43s(cpu)
        *  Thank you very much for using Q-Chem.  Have a nice day.  *
