 Q-Chem 5.4, Q-Chem, Inc., Pleasanton, CA (2021)
 Q-Chem 5.4.0 for Intel X86 EM64T Linux

User input:
--------------------------------------------------------------
$molecule
0 1
C	-0.139012	-0.381707	-0.217210
S	0.066088	0.384493	1.363290
C	0.489888	1.966393	0.687690
C	0.119088	0.582293	-1.202610
C	0.460688	1.857593	-0.710710
H	0.058188	0.354693	-2.277110
H	0.688688	2.708493	-1.369810
C	-0.139012	-1.859907	-0.217210
H	0.875688	-1.860507	0.152690
H	-0.476512	-2.299207	0.709890
H	0.138888	-2.570907	-0.981210
H	0.717788	2.817093	1.338790
$end

$rem
JOBTYPE		SP
EXCHANGE	HF
CORRELATION	pRIMP2
BASIS		cc-pvtz
METHOD		rimp2
AUX_BASIS	rimp2-cc-pvtz
SOLVENT_METHOD	PCM
PURECART	11111
SYMMETRY	false
MEM_TOTAL	110000
SCF_CONVERGENCE = 6
THRESH=10
GUI = 2
$end

$solvent
dielectric 4.90
$end
--------------------------------------------------------------

             Standard Nuclear Orientation (Angstroms)
    I     Atom           X                Y                Z
 ----------------------------------------------------------------
    1      C      -0.1390120000    -0.3817070000    -0.2172100000
    2      S       0.0660880000     0.3844930000     1.3632900000
    3      C       0.4898880000     1.9663930000     0.6876900000
    4      C       0.1190880000     0.5822930000    -1.2026100000
    5      C       0.4606880000     1.8575930000    -0.7107100000
    6      H       0.0581880000     0.3546930000    -2.2771100000
    7      H       0.6886880000     2.7084930000    -1.3698100000
    8      C      -0.1390120000    -1.8599070000    -0.2172100000
    9      H       0.8756880000    -1.8605070000     0.1526900000
   10      H      -0.4765120000    -2.2992070000     0.7098900000
   11      H       0.1388880000    -2.5709070000    -0.9812100000
   12      H       0.7177880000     2.8170930000     1.3387900000
 ----------------------------------------------------------------

   10    -590.3712382606      6.52e-07  Convergence criterion met
 Total energy in the final basis set =     -590.3712382606
        RIMP2         total energy =      -591.3713524775 a.u.

                    Orbital Energies (a.u.)
 --------------------------------------------------------------

 Alpha MOs
 -- Occupied --
-91.9783 -11.2904 -11.2646 -11.2428 -11.2315 -11.2282  -8.9783  -6.6593
 -6.6588  -6.6581  -1.1583  -1.0411  -0.9716  -0.9184  -0.7558  -0.7216
 -0.6716  -0.5969  -0.5666  -0.5605  -0.5361  -0.4997  -0.4756  -0.4562
 -0.3471  -0.2987

          Ground-State Mulliken Net Atomic Charges

     Atom                 Charge (a.u.)
  ----------------------------------------
      1 C                     0.028036
      2 S                    -0.004194
      3 C                    -0.247602
      4 C                    -0.255271
      5 C                    -0.177970
      6 H                     0.181972
      7 H                     0.186106
      8 C                    -0.358757
      9 H                     0.141880
     10 H                     0.134469
     11 H                     0.166707
     12 H                     0.204625
  ----------------------------------------
  Sum of atomic charges =     0.000000

                    Cartesian Multipole Moments
 -----------------------------------------------------------------
    Charge (ESU x 10^10)
                -0.0000
    Dipole Moment (Debye)
         X       0.9675      Y      -0.7654      Z      -0.8256
       Tot       1.4844
    Quadrupole Moments (Debye-Ang)
        XX     -47.8004     XY       0.8596     YY     -36.4809
        XZ      -0.2666     YZ       0.5940     ZZ     -41.9218

 Total job time:  10.30s(wall), 549.38s(cpu)
        *  Thank you very much for using Q-Chem.  Have a nice day.  *
