 Q-Chem 5.4, Q-Chem, Inc., Pleasanton, CA (2021)
 Q-Chem 5.4.0 for Intel X86 EM64T Linux

User input:
--------------------------------------------------------------
$molecule
0 1
C	-0.047101	-0.397395	-0.219723
S	0.021799	0.392805	1.360777
C	0.164499	2.024305	0.685177
C	0.039699	0.596805	-1.205123
C	0.154699	1.912005	-0.713223
H	0.019199	0.362105	-2.279623
H	0.231399	2.789605	-1.372323
C	-0.047101	-1.875595	-0.219723
H	0.492399	-1.876195	0.715877
H	-0.901601	-2.314895	0.273577
H	0.656899	-2.586595	-0.626323
H	0.241199	2.901605	1.336277
$end

$rem
JOBTYPE		SP
EXCHANGE	HF
CORRELATION	pRIMP2
BASIS		cc-pvtz
METHOD		rimp2
AUX_BASIS	rimp2-cc-pvtz
SOLVENT_METHOD	PCM
PURECART	11111
SYMMETRY	false
MEM_TOTAL	110000
SCF_CONVERGENCE = 6
THRESH=10
GUI = 2
$end

$solvent
dielectric 4.90
$end
--------------------------------------------------------------

             Standard Nuclear Orientation (Angstroms)
    I     Atom           X                Y                Z
 ----------------------------------------------------------------
    1      C      -0.0471010000    -0.3973950000    -0.2197230000
    2      S       0.0217990000     0.3928050000     1.3607770000
    3      C       0.1644990000     2.0243050000     0.6851770000
    4      C       0.0396990000     0.5968050000    -1.2051230000
    5      C       0.1546990000     1.9120050000    -0.7132230000
    6      H       0.0191990000     0.3621050000    -2.2796230000
    7      H       0.2313990000     2.7896050000    -1.3723230000
    8      C      -0.0471010000    -1.8755950000    -0.2197230000
    9      H       0.4923990000    -1.8761950000     0.7158770000
   10      H      -0.9016010000    -2.3148950000     0.2735770000
   11      H       0.6568990000    -2.5865950000    -0.6263230000
   12      H       0.2411990000     2.9016050000     1.3362770000
 ----------------------------------------------------------------

   10    -590.3709641728      5.87e-07  Convergence criterion met
 Total energy in the final basis set =     -590.3709641728
        RIMP2         total energy =      -591.3721231406 a.u.

                    Orbital Energies (a.u.)
 --------------------------------------------------------------

 Alpha MOs
 -- Occupied --
-91.9797 -11.2852 -11.2683 -11.2428 -11.2350 -11.2243  -8.9797  -6.6606
 -6.6601  -6.6595  -1.1580  -1.0403  -0.9727  -0.9185  -0.7578  -0.7205
 -0.6718  -0.5969  -0.5681  -0.5632  -0.5341  -0.5011  -0.4649  -0.4532
 -0.3466  -0.3079

          Ground-State Mulliken Net Atomic Charges

     Atom                 Charge (a.u.)
  ----------------------------------------
      1 C                     0.024529
      2 S                    -0.004202
      3 C                    -0.235577
      4 C                    -0.225544
      5 C                    -0.188526
      6 H                     0.185302
      7 H                     0.185819
      8 C                    -0.353077
      9 H                     0.117477
     10 H                     0.130350
     11 H                     0.157610
     12 H                     0.205840
  ----------------------------------------
  Sum of atomic charges =     0.000000

                    Cartesian Multipole Moments
 -----------------------------------------------------------------
    Charge (ESU x 10^10)
                -0.0000
    Dipole Moment (Debye)
         X       0.4350      Y      -0.3418      Z      -0.4911
       Tot       0.7397
    Quadrupole Moments (Debye-Ang)
        XX     -47.6210     XY      -0.1014     YY     -36.0736
        XZ      -0.3585     YZ      -0.1647     ZZ     -42.3002

 Total job time:  10.80s(wall), 552.54s(cpu)
        *  Thank you very much for using Q-Chem.  Have a nice day.  *
