 Q-Chem 5.4, Q-Chem, Inc., Pleasanton, CA (2021)
 Q-Chem 5.4.0 for Intel X86 EM64T Linux

User input:
--------------------------------------------------------------
$molecule
0 1
C	-0.138931	-0.381707	-0.211595
S	0.066169	0.384493	1.368905
C	0.489969	1.966393	0.693305
C	0.119169	0.582293	-1.196995
C	0.460769	1.857593	-0.705095
H	0.058269	0.354693	-2.271495
H	0.688769	2.708493	-1.364195
C	-0.138931	-1.859907	-0.211595
H	0.688769	-1.860507	-0.905395
H	0.495269	-2.299207	0.544205
H	-0.661631	-2.570907	-0.834295
H	0.717869	2.817093	1.344405
$end

$rem
JOBTYPE		SP
EXCHANGE	HF
CORRELATION	pRIMP2
BASIS		cc-pvtz
METHOD		rimp2
AUX_BASIS	rimp2-cc-pvtz
SOLVENT_METHOD	PCM
PURECART	11111
SYMMETRY	false
MEM_TOTAL	110000
SCF_CONVERGENCE = 6
THRESH=10
GUI = 2
$end

$solvent
dielectric 4.90
$end
--------------------------------------------------------------

             Standard Nuclear Orientation (Angstroms)
    I     Atom           X                Y                Z
 ----------------------------------------------------------------
    1      C      -0.1389310000    -0.3817070000    -0.2115950000
    2      S       0.0661690000     0.3844930000     1.3689050000
    3      C       0.4899690000     1.9663930000     0.6933050000
    4      C       0.1191690000     0.5822930000    -1.1969950000
    5      C       0.4607690000     1.8575930000    -0.7050950000
    6      H       0.0582690000     0.3546930000    -2.2714950000
    7      H       0.6887690000     2.7084930000    -1.3641950000
    8      C      -0.1389310000    -1.8599070000    -0.2115950000
    9      H       0.6887690000    -1.8605070000    -0.9053950000
   10      H       0.4952690000    -2.2992070000     0.5442050000
   11      H      -0.6616310000    -2.5709070000    -0.8342950000
   12      H       0.7178690000     2.8170930000     1.3444050000
 ----------------------------------------------------------------

   10    -590.3697534055      6.01e-07  Convergence criterion met
 Total energy in the final basis set =     -590.3697534055
        RIMP2         total energy =      -591.3717057294 a.u.

                    Orbital Energies (a.u.)
 --------------------------------------------------------------

 Alpha MOs
 -- Occupied --
-91.9785 -11.2885 -11.2645 -11.2430 -11.2341 -11.2254  -8.9783  -6.6591
 -6.6586  -6.6581  -1.1576  -1.0392  -0.9722  -0.9180  -0.7545  -0.7232
 -0.6716  -0.5974  -0.5671  -0.5554  -0.5443  -0.4956  -0.4710  -0.4513
 -0.3454  -0.3024

          Ground-State Mulliken Net Atomic Charges

     Atom                 Charge (a.u.)
  ----------------------------------------
      1 C                     0.028611
      2 S                    -0.001593
      3 C                    -0.238764
      4 C                    -0.230072
      5 C                    -0.193323
      6 H                     0.180442
      7 H                     0.186002
      8 C                    -0.368303
      9 H                     0.138190
     10 H                     0.137589
     11 H                     0.157792
     12 H                     0.203429
  ----------------------------------------
  Sum of atomic charges =     0.000000

                    Cartesian Multipole Moments
 -----------------------------------------------------------------
    Charge (ESU x 10^10)
                -0.0000
    Dipole Moment (Debye)
         X       0.8583      Y      -0.6461      Z      -1.5121
       Tot       1.8549
    Quadrupole Moments (Debye-Ang)
        XX     -47.5535     XY       1.1995     YY     -36.7727
        XZ       0.4216     YZ       1.8558     ZZ     -41.7033

 Total job time:  10.16s(wall), 554.14s(cpu)
        *  Thank you very much for using Q-Chem.  Have a nice day.  *
