 Q-Chem 5.4, Q-Chem, Inc., Pleasanton, CA (2021)
 Q-Chem 5.4.0 for Intel X86 EM64T Linux

User input:
--------------------------------------------------------------
$molecule
0 1
C	-0.116092	-0.394274	-0.215368
S	0.021408	0.386926	1.365132
C	0.305808	1.999726	0.689532
C	0.057008	0.588626	-1.200768
C	0.286208	1.888826	-0.708868
H	0.016108	0.356526	-2.275268
H	0.439108	2.756326	-1.367968
C	0.140608	-1.850074	-0.215368
H	1.204308	-1.663074	-0.214868
H	0.216808	-2.282674	0.771232
H	0.263908	-2.550174	-1.028368
H	0.458608	2.867026	1.340632
$end

$rem
JOBTYPE		SP
EXCHANGE	HF
CORRELATION	pRIMP2
BASIS		cc-pvtz
METHOD		rimp2
AUX_BASIS	rimp2-cc-pvtz
SOLVENT_METHOD	PCM
PURECART	11111
SYMMETRY	false
MEM_TOTAL	110000
SCF_CONVERGENCE = 6
THRESH=10
GUI = 2
$end

$solvent
dielectric 4.90
$end
--------------------------------------------------------------

             Standard Nuclear Orientation (Angstroms)
    I     Atom           X                Y                Z
 ----------------------------------------------------------------
    1      C      -0.1160920000    -0.3942740000    -0.2153680000
    2      S       0.0214080000     0.3869260000     1.3651320000
    3      C       0.3058080000     1.9997260000     0.6895320000
    4      C       0.0570080000     0.5886260000    -1.2007680000
    5      C       0.2862080000     1.8888260000    -0.7088680000
    6      H       0.0161080000     0.3565260000    -2.2752680000
    7      H       0.4391080000     2.7563260000    -1.3679680000
    8      C       0.1406080000    -1.8500740000    -0.2153680000
    9      H       1.2043080000    -1.6630740000    -0.2148680000
   10      H       0.2168080000    -2.2826740000     0.7712320000
   11      H       0.2639080000    -2.5501740000    -1.0283680000
   12      H       0.4586080000     2.8670260000     1.3406320000
 ----------------------------------------------------------------

   10    -590.3688553726      6.50e-07  Convergence criterion met
 Total energy in the final basis set =     -590.3688553726
        RIMP2         total energy =      -591.3698064012 a.u.

                    Orbital Energies (a.u.)
 --------------------------------------------------------------

 Alpha MOs
 -- Occupied --
-91.9791 -11.2907 -11.2636 -11.2432 -11.2305 -11.2287  -8.9790  -6.6599
 -6.6594  -6.6588  -1.1587  -1.0409  -0.9717  -0.9176  -0.7555  -0.7222
 -0.6714  -0.5970  -0.5664  -0.5572  -0.5404  -0.4960  -0.4775  -0.4569
 -0.3470  -0.2971

          Ground-State Mulliken Net Atomic Charges

     Atom                 Charge (a.u.)
  ----------------------------------------
      1 C                     0.024449
      2 S                    -0.000051
      3 C                    -0.249825
      4 C                    -0.248010
      5 C                    -0.181366
      6 H                     0.179131
      7 H                     0.186383
      8 C                    -0.360777
      9 H                     0.148219
     10 H                     0.133154
     11 H                     0.164393
     12 H                     0.204300
  ----------------------------------------
  Sum of atomic charges =     0.000000

                    Cartesian Multipole Moments
 -----------------------------------------------------------------
    Charge (ESU x 10^10)
                -0.0000
    Dipole Moment (Debye)
         X       1.2292      Y      -0.6359      Z      -1.0544
       Tot       1.7398
    Quadrupole Moments (Debye-Ang)
        XX     -47.7512     XY      -0.3988     YY     -36.8320
        XZ      -0.1913     YZ       1.0660     ZZ     -41.7203

 Total job time:  13.11s(wall), 596.45s(cpu)
        *  Thank you very much for using Q-Chem.  Have a nice day.  *
