 Q-Chem 5.4, Q-Chem, Inc., Pleasanton, CA (2021)
 Q-Chem 5.4.0 for Intel X86 EM64T Linux

User input:
--------------------------------------------------------------
$molecule
0 1
C	-0.335207	-0.278098	-0.219723
S	0.174493	0.329602	1.360777
C	1.227193	1.584202	0.685177
C	0.306193	0.486502	-1.205123
C	1.154693	1.497902	-0.713223
H	0.154693	0.306002	-2.279623
H	1.720893	2.172802	-1.372323
C	-0.335207	-1.756298	-0.219723
H	0.204293	-1.756898	0.715877
H	-1.189707	-2.195598	0.273577
H	0.368793	-2.467298	-0.626323
H	1.793193	2.258902	1.336277
$end

$rem
JOBTYPE		SP
EXCHANGE	HF
CORRELATION	pRIMP2
BASIS		cc-pvtz
METHOD		rimp2
AUX_BASIS	rimp2-cc-pvtz
SOLVENT_METHOD	PCM
PURECART	11111
SYMMETRY	false
MEM_TOTAL	110000
SCF_CONVERGENCE = 6
THRESH=10
GUI = 2
$end

$solvent
dielectric 4.90
$end
--------------------------------------------------------------

             Standard Nuclear Orientation (Angstroms)
    I     Atom           X                Y                Z
 ----------------------------------------------------------------
    1      C      -0.3352070000    -0.2780980000    -0.2197230000
    2      S       0.1744930000     0.3296020000     1.3607770000
    3      C       1.2271930000     1.5842020000     0.6851770000
    4      C       0.3061930000     0.4865020000    -1.2051230000
    5      C       1.1546930000     1.4979020000    -0.7132230000
    6      H       0.1546930000     0.3060020000    -2.2796230000
    7      H       1.7208930000     2.1728020000    -1.3723230000
    8      C      -0.3352070000    -1.7562980000    -0.2197230000
    9      H       0.2042930000    -1.7568980000     0.7158770000
   10      H      -1.1897070000    -2.1955980000     0.2735770000
   11      H       0.3687930000    -2.4672980000    -0.6263230000
   12      H       1.7931930000     2.2589020000     1.3362770000
 ----------------------------------------------------------------

   10    -590.3339467825      6.99e-07  Convergence criterion met
 Total energy in the final basis set =     -590.3339467825
        RIMP2         total energy =      -591.3421265387 a.u.

                    Orbital Energies (a.u.)
 --------------------------------------------------------------

 Alpha MOs
 -- Occupied --
-91.9749 -11.2790 -11.2711 -11.2455 -11.2430 -11.2160  -8.9760  -6.6567
 -6.6560  -6.6556  -1.1635  -1.0386  -0.9759  -0.9114  -0.7623  -0.7227
 -0.6717  -0.5916  -0.5719  -0.5638  -0.5349  -0.4928  -0.4626  -0.4469
 -0.3436  -0.3057

          Ground-State Mulliken Net Atomic Charges

     Atom                 Charge (a.u.)
  ----------------------------------------
      1 C                    -0.029277
      2 S                    -0.004246
      3 C                    -0.201163
      4 C                    -0.184258
      5 C                    -0.204414
      6 H                     0.184469
      7 H                     0.186891
      8 C                    -0.366252
      9 H                     0.130156
     10 H                     0.120281
     11 H                     0.161839
     12 H                     0.205974
  ----------------------------------------
  Sum of atomic charges =     0.000000

                    Cartesian Multipole Moments
 -----------------------------------------------------------------
    Charge (ESU x 10^10)
                 0.0000
    Dipole Moment (Debye)
         X       1.5849      Y      -0.0621      Z      -0.5652
       Tot       1.6839
    Quadrupole Moments (Debye-Ang)
        XX     -44.3482     XY       3.6632     YY     -40.3962
        XZ      -0.0135     YZ      -0.3400     ZZ     -41.8814

 Total job time:  11.21s(wall), 594.59s(cpu)
        *  Thank you very much for using Q-Chem.  Have a nice day.  *
