 Q-Chem 5.4, Q-Chem, Inc., Pleasanton, CA (2021)
 Q-Chem 5.4.0 for Intel X86 EM64T Linux

User input:
--------------------------------------------------------------
$molecule
0 1
C	-0.040749	-0.397395	-0.210927
S	0.028151	0.392805	1.369573
C	0.170851	2.024305	0.693973
C	0.046051	0.596805	-1.196327
C	0.161051	1.912005	-0.704427
H	0.025551	0.362105	-2.270827
H	0.237751	2.789605	-1.363527
C	-0.040749	-1.875595	-0.210927
H	-0.975749	-1.876195	-0.751427
H	0.452551	-2.314895	-1.065327
H	-0.447149	-2.586595	0.493173
H	0.247551	2.901605	1.345073
$end

$rem
JOBTYPE		SP
EXCHANGE	HF
CORRELATION	pRIMP2
BASIS		cc-pvtz
METHOD		rimp2
AUX_BASIS	rimp2-cc-pvtz
SOLVENT_METHOD	PCM
PURECART	11111
SYMMETRY	false
MEM_TOTAL	110000
SCF_CONVERGENCE = 6
THRESH=10
GUI = 2
$end

$solvent
dielectric 4.90
$end
--------------------------------------------------------------

             Standard Nuclear Orientation (Angstroms)
    I     Atom           X                Y                Z
 ----------------------------------------------------------------
    1      C      -0.0407490000    -0.3973950000    -0.2109270000
    2      S       0.0281510000     0.3928050000     1.3695730000
    3      C       0.1708510000     2.0243050000     0.6939730000
    4      C       0.0460510000     0.5968050000    -1.1963270000
    5      C       0.1610510000     1.9120050000    -0.7044270000
    6      H       0.0255510000     0.3621050000    -2.2708270000
    7      H       0.2377510000     2.7896050000    -1.3635270000
    8      C      -0.0407490000    -1.8755950000    -0.2109270000
    9      H      -0.9757490000    -1.8761950000    -0.7514270000
   10      H       0.4525510000    -2.3148950000    -1.0653270000
   11      H      -0.4471490000    -2.5865950000     0.4931730000
   12      H       0.2475510000     2.9016050000     1.3450730000
 ----------------------------------------------------------------

   10    -590.3717070758      6.27e-07  Convergence criterion met
 Total energy in the final basis set =     -590.3717070758
        RIMP2         total energy =      -591.3729889972 a.u.

                    Orbital Energies (a.u.)
 --------------------------------------------------------------

 Alpha MOs
 -- Occupied --
-91.9768 -11.2913 -11.2621 -11.2431 -11.2339 -11.2269  -8.9767  -6.6576
 -6.6570  -6.6565  -1.1564  -1.0399  -0.9712  -0.9199  -0.7535  -0.7225
 -0.6710  -0.5987  -0.5638  -0.5592  -0.5474  -0.4971  -0.4694  -0.4504
 -0.3456  -0.3000

          Ground-State Mulliken Net Atomic Charges

     Atom                 Charge (a.u.)
  ----------------------------------------
      1 C                     0.042411
      2 S                    -0.002145
      3 C                    -0.251150
      4 C                    -0.249888
      5 C                    -0.183104
      6 H                     0.180036
      7 H                     0.186054
      8 C                    -0.372279
      9 H                     0.136113
     10 H                     0.136099
     11 H                     0.175265
     12 H                     0.202587
  ----------------------------------------
  Sum of atomic charges =     0.000000

                    Cartesian Multipole Moments
 -----------------------------------------------------------------
    Charge (ESU x 10^10)
                -0.0000
    Dipole Moment (Debye)
         X      -0.5522      Y      -0.8239      Z      -1.4556
       Tot       1.7614
    Quadrupole Moments (Debye-Ang)
        XX     -47.9819     XY       2.2013     YY     -36.0166
        XZ      -0.1430     YZ       1.2780     ZZ     -41.7925

 Total job time:  10.71s(wall), 553.20s(cpu)
        *  Thank you very much for using Q-Chem.  Have a nice day.  *
