 Q-Chem 5.4, Q-Chem, Inc., Pleasanton, CA (2021)
 Q-Chem 5.4.0 for Intel X86 EM64T Linux

User input:
--------------------------------------------------------------
$molecule
0 1
C	-0.214133	-0.350804	-0.211737
S	0.120867	0.368096	1.368763
C	0.812967	1.852396	0.693163
C	0.207467	0.553796	-1.197137
C	0.765367	1.750296	-0.705237
H	0.107867	0.340196	-2.271637
H	1.137567	2.548796	-1.364337
C	-0.214133	-1.829004	-0.211737
H	-1.228833	-1.829604	-0.581637
H	0.123367	-2.268304	-1.138837
H	-0.492033	-2.540004	0.552263
H	1.185067	2.650596	1.344263
$end

$rem
JOBTYPE		SP
EXCHANGE	HF
CORRELATION	pRIMP2
BASIS		cc-pvtz
METHOD		rimp2
AUX_BASIS	rimp2-cc-pvtz
SOLVENT_METHOD	PCM
PURECART	11111
SYMMETRY	false
MEM_TOTAL	110000
SCF_CONVERGENCE = 6
THRESH=10
GUI = 2
$end

$solvent
dielectric 4.90
$end
--------------------------------------------------------------

             Standard Nuclear Orientation (Angstroms)
    I     Atom           X                Y                Z
 ----------------------------------------------------------------
    1      C      -0.2141330000    -0.3508040000    -0.2117370000
    2      S       0.1208670000     0.3680960000     1.3687630000
    3      C       0.8129670000     1.8523960000     0.6931630000
    4      C       0.2074670000     0.5537960000    -1.1971370000
    5      C       0.7653670000     1.7502960000    -0.7052370000
    6      H       0.1078670000     0.3401960000    -2.2716370000
    7      H       1.1375670000     2.5487960000    -1.3643370000
    8      C      -0.2141330000    -1.8290040000    -0.2117370000
    9      H      -1.2288330000    -1.8296040000    -0.5816370000
   10      H       0.1233670000    -2.2683040000    -1.1388370000
   11      H      -0.4920330000    -2.5400040000     0.5522630000
   12      H       1.1850670000     2.6505960000     1.3442630000
 ----------------------------------------------------------------

   10    -590.3570738145      6.59e-07  Convergence criterion met
 Total energy in the final basis set =     -590.3570738145
        RIMP2         total energy =      -591.3617180815 a.u.

                    Orbital Energies (a.u.)
 --------------------------------------------------------------

 Alpha MOs
 -- Occupied --
-91.9757 -11.2853 -11.2660 -11.2432 -11.2368 -11.2235  -8.9758  -6.6567
 -6.6561  -6.6556  -1.1574  -1.0385  -0.9718  -0.9186  -0.7548  -0.7225
 -0.6700  -0.5966  -0.5621  -0.5580  -0.5485  -0.4992  -0.4645  -0.4489
 -0.3453  -0.2974

          Ground-State Mulliken Net Atomic Charges

     Atom                 Charge (a.u.)
  ----------------------------------------
      1 C                     0.018427
      2 S                     0.001330
      3 C                    -0.239855
      4 C                    -0.238724
      5 C                    -0.183014
      6 H                     0.180029
      7 H                     0.187167
      8 C                    -0.371377
      9 H                     0.132969
     10 H                     0.139970
     11 H                     0.170208
     12 H                     0.202871
  ----------------------------------------
  Sum of atomic charges =     0.000000

                    Cartesian Multipole Moments
 -----------------------------------------------------------------
    Charge (ESU x 10^10)
                -0.0000
    Dipole Moment (Debye)
         X      -0.1640      Y      -0.6579      Z      -1.3559
       Tot       1.5160
    Quadrupole Moments (Debye-Ang)
        XX     -46.4202     XY       4.8810     YY     -37.7432
        XZ       0.1415     YZ       0.9614     ZZ     -41.6182

 Total job time:  14.55s(wall), 559.52s(cpu)
        *  Thank you very much for using Q-Chem.  Have a nice day.  *
