 Q-Chem 5.4, Q-Chem, Inc., Pleasanton, CA (2021)
 Q-Chem 5.4.0 for Intel X86 EM64T Linux

User input:
--------------------------------------------------------------
$molecule
0 1
C	0.003752	-0.399361	-0.210225
S	0.003552	0.393839	1.370275
C	0.003552	2.031539	0.694675
C	0.003552	0.598639	-1.195625
C	0.003452	1.918839	-0.703725
H	0.003652	0.362939	-2.270125
H	0.003452	2.799839	-1.362825
C	0.003752	-1.877561	-0.210225
H	-0.823248	-1.878161	-0.904825
H	0.637952	-2.316861	-0.966025
H	-0.518748	-2.588561	0.412675
H	0.003452	2.912239	1.345775
$end

$rem
JOBTYPE		SP
EXCHANGE	HF
CORRELATION	pRIMP2
BASIS		cc-pvtz
METHOD		rimp2
AUX_BASIS	rimp2-cc-pvtz
SOLVENT_METHOD	PCM
PURECART	11111
SYMMETRY	false
MEM_TOTAL	110000
SCF_CONVERGENCE = 6
THRESH=10
GUI = 2
$end

$solvent
dielectric 4.90
$end
--------------------------------------------------------------

             Standard Nuclear Orientation (Angstroms)
    I     Atom           X                Y                Z
 ----------------------------------------------------------------
    1      C       0.0037520000    -0.3993610000    -0.2102250000
    2      S       0.0035520000     0.3938390000     1.3702750000
    3      C       0.0035520000     2.0315390000     0.6946750000
    4      C       0.0035520000     0.5986390000    -1.1956250000
    5      C       0.0034520000     1.9188390000    -0.7037250000
    6      H       0.0036520000     0.3629390000    -2.2701250000
    7      H       0.0034520000     2.7998390000    -1.3628250000
    8      C       0.0037520000    -1.8775610000    -0.2102250000
    9      H      -0.8232480000    -1.8781610000    -0.9048250000
   10      H       0.6379520000    -2.3168610000    -0.9660250000
   11      H      -0.5187480000    -2.5885610000     0.4126750000
   12      H       0.0034520000     2.9122390000     1.3457750000
 ----------------------------------------------------------------

   10    -590.3723462438      6.12e-07  Convergence criterion met
 Total energy in the final basis set =     -590.3723462438
        RIMP2         total energy =      -591.3738158340 a.u.

                    Orbital Energies (a.u.)
 --------------------------------------------------------------

 Alpha MOs
 -- Occupied --
-91.9767 -11.2906 -11.2630 -11.2431 -11.2350 -11.2263  -8.9766  -6.6574
 -6.6569  -6.6564  -1.1565  -1.0395  -0.9715  -0.9197  -0.7535  -0.7229
 -0.6713  -0.5987  -0.5647  -0.5605  -0.5459  -0.4967  -0.4691  -0.4482
 -0.3454  -0.3023

          Ground-State Mulliken Net Atomic Charges

     Atom                 Charge (a.u.)
  ----------------------------------------
      1 C                     0.040920
      2 S                    -0.003976
      3 C                    -0.246852
      4 C                    -0.241219
      5 C                    -0.187637
      6 H                     0.180931
      7 H                     0.185874
      8 C                    -0.371204
      9 H                     0.133848
     10 H                     0.133880
     11 H                     0.172753
     12 H                     0.202681
  ----------------------------------------
  Sum of atomic charges =     0.000000

                    Cartesian Multipole Moments
 -----------------------------------------------------------------
    Charge (ESU x 10^10)
                -0.0000
    Dipole Moment (Debye)
         X      -0.5550      Y      -0.7435      Z      -1.5571
       Tot       1.8125
    Quadrupole Moments (Debye-Ang)
        XX     -47.9584     XY       1.3088     YY     -35.9858
        XZ      -0.2620     YZ       1.4991     ZZ     -41.8477

 Total job time:  10.28s(wall), 554.07s(cpu)
        *  Thank you very much for using Q-Chem.  Have a nice day.  *
