 Q-Chem 5.4, Q-Chem, Inc., Pleasanton, CA (2021)
 Q-Chem 5.4.0 for Intel X86 EM64T Linux

User input:
--------------------------------------------------------------
$molecule
0 1
C	-0.398017	-0.214208	-0.208929
S	0.209483	0.295792	1.371571
C	1.463983	1.348492	0.695971
C	0.366383	0.427392	-1.194329
C	1.377683	1.276092	-0.702429
H	0.185883	0.275892	-2.268829
H	2.052483	1.842392	-1.361529
C	-0.398017	-1.692408	-0.208929
H	-0.397517	-1.693008	-1.288929
H	0.588583	-2.131708	-0.208929
H	-1.211017	-2.403408	-0.208829
H	2.138583	1.914692	1.347071
$end

$rem
JOBTYPE		SP
EXCHANGE	HF
CORRELATION	pRIMP2
BASIS		cc-pvtz
METHOD		rimp2
AUX_BASIS	rimp2-cc-pvtz
SOLVENT_METHOD	PCM
PURECART	11111
SYMMETRY	false
MEM_TOTAL	110000
SCF_CONVERGENCE = 6
THRESH=10
GUI = 2
$end

$solvent
dielectric 4.90
$end
--------------------------------------------------------------

             Standard Nuclear Orientation (Angstroms)
    I     Atom           X                Y                Z
 ----------------------------------------------------------------
    1      C      -0.3980170000    -0.2142080000    -0.2089290000
    2      S       0.2094830000     0.2957920000     1.3715710000
    3      C       1.4639830000     1.3484920000     0.6959710000
    4      C       0.3663830000     0.4273920000    -1.1943290000
    5      C       1.3776830000     1.2760920000    -0.7024290000
    6      H       0.1858830000     0.2758920000    -2.2688290000
    7      H       2.0524830000     1.8423920000    -1.3615290000
    8      C      -0.3980170000    -1.6924080000    -0.2089290000
    9      H      -0.3975170000    -1.6930080000    -1.2889290000
   10      H       0.5885830000    -2.1317080000    -0.2089290000
   11      H      -1.2110170000    -2.4034080000    -0.2088290000
   12      H       2.1385830000     1.9146920000     1.3470710000
 ----------------------------------------------------------------

   11    -590.3278614089      4.54e-07  Convergence criterion met
 Total energy in the final basis set =     -590.3278614089
        RIMP2         total energy =      -591.3392863069 a.u.

                    Orbital Energies (a.u.)
 --------------------------------------------------------------

 Alpha MOs
 -- Occupied --
-91.9737 -11.2849 -11.2636 -11.2526 -11.2446 -11.2168  -8.9744  -6.6551
 -6.6544  -6.6541  -1.1655  -1.0371  -0.9772  -0.9098  -0.7598  -0.7283
 -0.6719  -0.5956  -0.5764  -0.5558  -0.5401  -0.4855  -0.4677  -0.4289
 -0.3416  -0.3142

          Ground-State Mulliken Net Atomic Charges

     Atom                 Charge (a.u.)
  ----------------------------------------
      1 C                    -0.061176
      2 S                     0.005225
      3 C                    -0.181116
      4 C                    -0.141712
      5 C                    -0.223332
      6 H                     0.182174
      7 H                     0.188147
      8 C                    -0.349756
      9 H                     0.106060
     10 H                     0.130810
     11 H                     0.138468
     12 H                     0.206207
  ----------------------------------------
  Sum of atomic charges =     0.000000

                    Cartesian Multipole Moments
 -----------------------------------------------------------------
    Charge (ESU x 10^10)
                 0.0000
    Dipole Moment (Debye)
         X       1.7550      Y      -0.0054      Z      -1.7496
       Tot       2.4781
    Quadrupole Moments (Debye-Ang)
        XX     -42.4050     XY       5.0006     YY     -42.0246
        XZ       0.8118     YZ       1.6546     ZZ     -41.5792

 Total job time:  11.48s(wall), 622.33s(cpu)
        *  Thank you very much for using Q-Chem.  Have a nice day.  *
