 Q-Chem 5.4, Q-Chem, Inc., Pleasanton, CA (2021)
 Q-Chem 5.4.0 for Intel X86 EM64T Linux

User input:
--------------------------------------------------------------
$molecule
0 1
C	-0.180802	-0.368118	-0.210119
S	0.090298	0.377282	1.370381
C	0.650398	1.916282	0.694781
C	0.160398	0.569782	-1.195519
C	0.611798	1.810382	-0.703619
H	0.079798	0.348282	-2.270019
H	0.913098	2.638182	-1.362719
C	-0.180802	-1.846318	-0.210119
H	0.359698	-1.846918	-1.145119
H	0.673598	-2.285618	0.283181
H	-0.884902	-2.557318	-0.616519
H	0.951498	2.743882	1.345881
$end

$rem
JOBTYPE		SP
EXCHANGE	HF
CORRELATION	pRIMP2
BASIS		cc-pvtz
METHOD		rimp2
AUX_BASIS	rimp2-cc-pvtz
SOLVENT_METHOD	PCM
PURECART	11111
SYMMETRY	false
MEM_TOTAL	110000
SCF_CONVERGENCE = 6
THRESH=10
GUI = 2
$end

$solvent
dielectric 4.90
$end
--------------------------------------------------------------

             Standard Nuclear Orientation (Angstroms)
    I     Atom           X                Y                Z
 ----------------------------------------------------------------
    1      C      -0.1808020000    -0.3681180000    -0.2101190000
    2      S       0.0902980000     0.3772820000     1.3703810000
    3      C       0.6503980000     1.9162820000     0.6947810000
    4      C       0.1603980000     0.5697820000    -1.1955190000
    5      C       0.6117980000     1.8103820000    -0.7036190000
    6      H       0.0797980000     0.3482820000    -2.2700190000
    7      H       0.9130980000     2.6381820000    -1.3627190000
    8      C      -0.1808020000    -1.8463180000    -0.2101190000
    9      H       0.3596980000    -1.8469180000    -1.1451190000
   10      H       0.6735980000    -2.2856180000     0.2831810000
   11      H      -0.8849020000    -2.5573180000    -0.6165190000
   12      H       0.9514980000     2.7438820000     1.3458810000
 ----------------------------------------------------------------

   10    -590.3663403212      6.09e-07  Convergence criterion met
 Total energy in the final basis set =     -590.3663403212
        RIMP2         total energy =      -591.3696383653 a.u.

                    Orbital Energies (a.u.)
 --------------------------------------------------------------

 Alpha MOs
 -- Occupied --
-91.9766 -11.2846 -11.2683 -11.2429 -11.2389 -11.2231  -8.9765  -6.6574
 -6.6568  -6.6563  -1.1582  -1.0381  -0.9730  -0.9172  -0.7550  -0.7241
 -0.6719  -0.5972  -0.5695  -0.5570  -0.5419  -0.4955  -0.4688  -0.4436
 -0.3445  -0.3080

          Ground-State Mulliken Net Atomic Charges

     Atom                 Charge (a.u.)
  ----------------------------------------
      1 C                     0.024763
      2 S                    -0.004845
      3 C                    -0.228910
      4 C                    -0.223586
      5 C                    -0.195504
      6 H                     0.181366
      7 H                     0.186900
      8 C                    -0.365855
      9 H                     0.129687
     10 H                     0.138965
     11 H                     0.153335
     12 H                     0.203686
  ----------------------------------------
  Sum of atomic charges =     0.000000

                    Cartesian Multipole Moments
 -----------------------------------------------------------------
    Charge (ESU x 10^10)
                -0.0000
    Dipole Moment (Debye)
         X       0.8230      Y      -0.4151      Z      -1.6789
       Tot       1.9153
    Quadrupole Moments (Debye-Ang)
        XX     -46.8154     XY       2.2995     YY     -37.2961
        XZ       0.5545     YZ       2.0237     ZZ     -41.8370

 Total job time:  11.30s(wall), 566.69s(cpu)
        *  Thank you very much for using Q-Chem.  Have a nice day.  *
