 Q-Chem 5.4, Q-Chem, Inc., Pleasanton, CA (2021)
 Q-Chem 5.4.0 for Intel X86 EM64T Linux

User input:
--------------------------------------------------------------
$molecule
0 1
C	-0.085044	-0.391505	-0.211737
S	0.052456	0.389695	1.368763
C	0.336856	2.002495	0.693163
C	0.088056	0.591395	-1.197137
C	0.317256	1.891595	-0.705237
H	0.047156	0.359295	-2.271637
H	0.470156	2.759095	-1.364337
C	-0.085044	-1.869705	-0.211737
H	-1.099744	-1.870305	-0.581637
H	0.252456	-2.309005	-1.138837
H	-0.362944	-2.580705	0.552263
H	0.489656	2.869795	1.344263
$end

$rem
JOBTYPE		SP
EXCHANGE	HF
CORRELATION	pRIMP2
BASIS		cc-pvtz
METHOD		rimp2
AUX_BASIS	rimp2-cc-pvtz
SOLVENT_METHOD	PCM
PURECART	11111
SYMMETRY	false
MEM_TOTAL	110000
SCF_CONVERGENCE = 6
THRESH=10
GUI = 2
$end

$solvent
dielectric 4.90
$end
--------------------------------------------------------------

             Standard Nuclear Orientation (Angstroms)
    I     Atom           X                Y                Z
 ----------------------------------------------------------------
    1      C      -0.0850440000    -0.3915050000    -0.2117370000
    2      S       0.0524560000     0.3896950000     1.3687630000
    3      C       0.3368560000     2.0024950000     0.6931630000
    4      C       0.0880560000     0.5913950000    -1.1971370000
    5      C       0.3172560000     1.8915950000    -0.7052370000
    6      H       0.0471560000     0.3592950000    -2.2716370000
    7      H       0.4701560000     2.7590950000    -1.3643370000
    8      C      -0.0850440000    -1.8697050000    -0.2117370000
    9      H      -1.0997440000    -1.8703050000    -0.5816370000
   10      H       0.2524560000    -2.3090050000    -1.1388370000
   11      H      -0.3629440000    -2.5807050000     0.5522630000
   12      H       0.4896560000     2.8697950000     1.3442630000
 ----------------------------------------------------------------

   10    -590.3697790566      6.34e-07  Convergence criterion met
 Total energy in the final basis set =     -590.3697790566
        RIMP2         total energy =      -591.3712178785 a.u.

                    Orbital Energies (a.u.)
 --------------------------------------------------------------

 Alpha MOs
 -- Occupied --
-91.9768 -11.2912 -11.2621 -11.2430 -11.2334 -11.2270  -8.9767  -6.6576
 -6.6570  -6.6565  -1.1565  -1.0400  -0.9711  -0.9199  -0.7538  -0.7222
 -0.6706  -0.5985  -0.5636  -0.5572  -0.5490  -0.4970  -0.4696  -0.4520
 -0.3457  -0.2983

          Ground-State Mulliken Net Atomic Charges

     Atom                 Charge (a.u.)
  ----------------------------------------
      1 C                     0.038663
      2 S                    -0.000861
      3 C                    -0.252473
      4 C                    -0.252235
      5 C                    -0.181402
      6 H                     0.179724
      7 H                     0.186394
      8 C                    -0.371393
      9 H                     0.137500
     10 H                     0.137977
     11 H                     0.175311
     12 H                     0.202794
  ----------------------------------------
  Sum of atomic charges =     0.000000

                    Cartesian Multipole Moments
 -----------------------------------------------------------------
    Charge (ESU x 10^10)
                 0.0000
    Dipole Moment (Debye)
         X      -0.5261      Y      -0.8522      Z      -1.3406
       Tot       1.6734
    Quadrupole Moments (Debye-Ang)
        XX     -47.8467     XY       3.0198     YY     -36.2062
        XZ       0.0035     YZ       1.0334     ZZ     -41.7446

 Total job time:  12.06s(wall), 605.79s(cpu)
        *  Thank you very much for using Q-Chem.  Have a nice day.  *
