 Q-Chem 5.4, Q-Chem, Inc., Pleasanton, CA (2021)
 Q-Chem 5.4.0 for Intel X86 EM64T Linux

User input:
--------------------------------------------------------------
$molecule
0 1
C	-0.331213	-0.278098	-0.209225
S	0.178487	0.329602	1.371275
C	1.231187	1.584202	0.695675
C	0.310187	0.486502	-1.194625
C	1.158687	1.497902	-0.702725
H	0.158687	0.306002	-2.269125
H	1.724887	2.172802	-1.361825
C	-0.331213	-1.756298	-0.209225
H	-0.870713	-1.756898	-1.144825
H	0.523287	-2.195598	-0.702525
H	-1.035213	-2.467298	0.197375
H	1.797187	2.258902	1.346775
$end

$rem
JOBTYPE		SP
EXCHANGE	HF
CORRELATION	pRIMP2
BASIS		cc-pvtz
METHOD		rimp2
AUX_BASIS	rimp2-cc-pvtz
SOLVENT_METHOD	PCM
PURECART	11111
SYMMETRY	false
MEM_TOTAL	110000
SCF_CONVERGENCE = 6
THRESH=10
GUI = 2
$end

$solvent
dielectric 4.90
$end
--------------------------------------------------------------

             Standard Nuclear Orientation (Angstroms)
    I     Atom           X                Y                Z
 ----------------------------------------------------------------
    1      C      -0.3312130000    -0.2780980000    -0.2092250000
    2      S       0.1784870000     0.3296020000     1.3712750000
    3      C       1.2311870000     1.5842020000     0.6956750000
    4      C       0.3101870000     0.4865020000    -1.1946250000
    5      C       1.1586870000     1.4979020000    -0.7027250000
    6      H       0.1586870000     0.3060020000    -2.2691250000
    7      H       1.7248870000     2.1728020000    -1.3618250000
    8      C      -0.3312130000    -1.7562980000    -0.2092250000
    9      H      -0.8707130000    -1.7568980000    -1.1448250000
   10      H       0.5232870000    -2.1955980000    -0.7025250000
   11      H      -1.0352130000    -2.4672980000     0.1973750000
   12      H       1.7971870000     2.2589020000     1.3467750000
 ----------------------------------------------------------------

   10    -590.3429803091      8.49e-07  Convergence criterion met
 Total energy in the final basis set =     -590.3429803091
        RIMP2         total energy =      -591.3519256198 a.u.

                    Orbital Energies (a.u.)
 --------------------------------------------------------------

 Alpha MOs
 -- Occupied --
-91.9732 -11.2771 -11.2724 -11.2474 -11.2441 -11.2191  -8.9737  -6.6545
 -6.6538  -6.6535  -1.1610  -1.0366  -0.9746  -0.9146  -0.7570  -0.7255
 -0.6711  -0.5950  -0.5711  -0.5589  -0.5395  -0.4983  -0.4647  -0.4313
 -0.3443  -0.3076

          Ground-State Mulliken Net Atomic Charges

     Atom                 Charge (a.u.)
  ----------------------------------------
      1 C                    -0.024876
      2 S                     0.000768
      3 C                    -0.199201
      4 C                    -0.185581
      5 C                    -0.208363
      6 H                     0.182743
      7 H                     0.187058
      8 C                    -0.367279
      9 H                     0.114475
     10 H                     0.139179
     11 H                     0.157055
     12 H                     0.204022
  ----------------------------------------
  Sum of atomic charges =     0.000000

                    Cartesian Multipole Moments
 -----------------------------------------------------------------
    Charge (ESU x 10^10)
                 0.0000
    Dipole Moment (Debye)
         X       0.8664      Y      -0.1692      Z      -1.7088
       Tot       1.9233
    Quadrupole Moments (Debye-Ang)
        XX     -43.8727     XY       5.4850     YY     -40.1314
        XZ       0.2697     YZ       1.5606     ZZ     -41.7312

 Total job time:  11.18s(wall), 592.53s(cpu)
        *  Thank you very much for using Q-Chem.  Have a nice day.  *
