 Q-Chem 5.4, Q-Chem, Inc., Pleasanton, CA (2021)
 Q-Chem 5.4.0 for Intel X86 EM64T Linux

User input:
--------------------------------------------------------------
$molecule
0 1
C	-0.174518	-0.368118	-0.219377
S	0.096582	0.377282	1.361123
C	0.656682	1.916282	0.685523
C	0.166682	0.569782	-1.204777
C	0.618082	1.810382	-0.712877
H	0.086082	0.348282	-2.279277
H	0.919382	2.638182	-1.371977
C	-0.174518	-1.846318	-0.219377
H	-0.544418	-1.846918	0.795323
H	-1.101618	-2.285618	-0.556877
H	0.589482	-2.557318	0.058523
H	0.957782	2.743882	1.336623
$end

$rem
JOBTYPE		SP
EXCHANGE	HF
CORRELATION	pRIMP2
BASIS		cc-pvtz
METHOD		rimp2
AUX_BASIS	rimp2-cc-pvtz
SOLVENT_METHOD	PCM
PURECART	11111
SYMMETRY	false
MEM_TOTAL	110000
SCF_CONVERGENCE = 6
THRESH=10
GUI = 2
$end

$solvent
dielectric 4.90
$end
--------------------------------------------------------------

             Standard Nuclear Orientation (Angstroms)
    I     Atom           X                Y                Z
 ----------------------------------------------------------------
    1      C      -0.1745180000    -0.3681180000    -0.2193770000
    2      S       0.0965820000     0.3772820000     1.3611230000
    3      C       0.6566820000     1.9162820000     0.6855230000
    4      C       0.1666820000     0.5697820000    -1.2047770000
    5      C       0.6180820000     1.8103820000    -0.7128770000
    6      H       0.0860820000     0.3482820000    -2.2792770000
    7      H       0.9193820000     2.6381820000    -1.3719770000
    8      C      -0.1745180000    -1.8463180000    -0.2193770000
    9      H      -0.5444180000    -1.8469180000     0.7953230000
   10      H      -1.1016180000    -2.2856180000    -0.5568770000
   11      H       0.5894820000    -2.5573180000     0.0585230000
   12      H       0.9577820000     2.7438820000     1.3366230000
 ----------------------------------------------------------------

   10    -590.3624114375      6.51e-07  Convergence criterion met
 Total energy in the final basis set =     -590.3624114375
        RIMP2         total energy =      -591.3663110894 a.u.

                    Orbital Energies (a.u.)
 --------------------------------------------------------------

 Alpha MOs
 -- Occupied --
-91.9801 -11.2785 -11.2723 -11.2434 -11.2387 -11.2220  -8.9800  -6.6608
 -6.6603  -6.6598  -1.1587  -1.0387  -0.9738  -0.9176  -0.7594  -0.7208
 -0.6715  -0.5959  -0.5688  -0.5621  -0.5399  -0.4912  -0.4632  -0.4494
 -0.3463  -0.3114

          Ground-State Mulliken Net Atomic Charges

     Atom                 Charge (a.u.)
  ----------------------------------------
      1 C                    -0.002004
      2 S                    -0.001966
      3 C                    -0.225765
      4 C                    -0.209116
      5 C                    -0.191011
      6 H                     0.184360
      7 H                     0.186450
      8 C                    -0.337513
      9 H                     0.109796
     10 H                     0.127443
     11 H                     0.153138
     12 H                     0.206189
  ----------------------------------------
  Sum of atomic charges =     0.000000

                    Cartesian Multipole Moments
 -----------------------------------------------------------------
    Charge (ESU x 10^10)
                -0.0000
    Dipole Moment (Debye)
         X       0.3136      Y      -0.0800      Z      -0.5041
       Tot       0.5990
    Quadrupole Moments (Debye-Ang)
        XX     -46.4672     XY       3.2173     YY     -37.2239
        XZ       0.4468     YZ      -0.3715     ZZ     -42.2464

 Total job time:  10.87s(wall), 575.53s(cpu)
        *  Thank you very much for using Q-Chem.  Have a nice day.  *
