 Q-Chem 5.4, Q-Chem, Inc., Pleasanton, CA (2021)
 Q-Chem 5.4.0 for Intel X86 EM64T Linux

User input:
--------------------------------------------------------------
$molecule
0 1
C	-0.338459	-0.278098	-0.212476
S	0.171241	0.329602	1.368024
C	1.223941	1.584202	0.692424
C	0.302941	0.486502	-1.197876
C	1.151441	1.497902	-0.705976
H	0.151441	0.306002	-2.272376
H	1.717641	2.172802	-1.365076
C	-0.338459	-1.756298	-0.212476
H	0.597141	-1.756898	-0.751976
H	0.154841	-2.195598	0.642024
H	-0.745059	-2.467298	-0.916476
H	1.789941	2.258902	1.343524
$end

$rem
JOBTYPE		SP
EXCHANGE	HF
CORRELATION	pRIMP2
BASIS		cc-pvtz
METHOD		rimp2
AUX_BASIS	rimp2-cc-pvtz
SOLVENT_METHOD	PCM
PURECART	11111
SYMMETRY	false
MEM_TOTAL	110000
SCF_CONVERGENCE = 6
THRESH=10
GUI = 2
$end

$solvent
dielectric 4.90
$end
--------------------------------------------------------------

             Standard Nuclear Orientation (Angstroms)
    I     Atom           X                Y                Z
 ----------------------------------------------------------------
    1      C      -0.3384590000    -0.2780980000    -0.2124760000
    2      S       0.1712410000     0.3296020000     1.3680240000
    3      C       1.2239410000     1.5842020000     0.6924240000
    4      C       0.3029410000     0.4865020000    -1.1978760000
    5      C       1.1514410000     1.4979020000    -0.7059760000
    6      H       0.1514410000     0.3060020000    -2.2723760000
    7      H       1.7176410000     2.1728020000    -1.3650760000
    8      C      -0.3384590000    -1.7562980000    -0.2124760000
    9      H       0.5971410000    -1.7568980000    -0.7519760000
   10      H       0.1548410000    -2.1955980000     0.6420240000
   11      H      -0.7450590000    -2.4672980000    -0.9164760000
   12      H       1.7899410000     2.2589020000     1.3435240000
 ----------------------------------------------------------------

   10    -590.3409129727      8.40e-07  Convergence criterion met
 Total energy in the final basis set =     -590.3409129727
        RIMP2         total energy =      -591.3492692719 a.u.

                    Orbital Energies (a.u.)
 --------------------------------------------------------------

 Alpha MOs
 -- Occupied --
-91.9794 -11.2793 -11.2717 -11.2439 -11.2374 -11.2211  -8.9793  -6.6601
 -6.6595  -6.6591  -1.1629  -1.0384  -0.9747  -0.9117  -0.7579  -0.7246
 -0.6712  -0.5962  -0.5673  -0.5544  -0.5460  -0.4842  -0.4714  -0.4550
 -0.3446  -0.2982

          Ground-State Mulliken Net Atomic Charges

     Atom                 Charge (a.u.)
  ----------------------------------------
      1 C                    -0.026519
      2 S                     0.009771
      3 C                    -0.218565
      4 C                    -0.182110
      5 C                    -0.210554
      6 H                     0.178826
      7 H                     0.187082
      8 C                    -0.366723
      9 H                     0.143406
     10 H                     0.134385
     11 H                     0.146403
     12 H                     0.204598
  ----------------------------------------
  Sum of atomic charges =     0.000000

                    Cartesian Multipole Moments
 -----------------------------------------------------------------
    Charge (ESU x 10^10)
                 0.0000
    Dipole Moment (Debye)
         X       1.5961      Y      -0.4740      Z      -1.3710
       Tot       2.1569
    Quadrupole Moments (Debye-Ang)
        XX     -45.0299     XY       3.4589     YY     -40.3773
        XZ       0.6333     YZ       1.5476     ZZ     -41.2774

 Total job time:  11.52s(wall), 605.84s(cpu)
        *  Thank you very much for using Q-Chem.  Have a nice day.  *
