 Q-Chem 5.4, Q-Chem, Inc., Pleasanton, CA (2021)
 Q-Chem 5.4.0 for Intel X86 EM64T Linux

User input:
--------------------------------------------------------------
$molecule
0 1
C	-0.329538	-0.278098	-0.210225
S	0.180162	0.329602	1.370275
C	1.232862	1.584202	0.694675
C	0.311862	0.486502	-1.195625
C	1.160362	1.497902	-0.703725
H	0.160362	0.306002	-2.270125
H	1.726562	2.172802	-1.362825
C	-0.329538	-1.756298	-0.210225
H	-1.156538	-1.756898	-0.904825
H	0.304662	-2.195598	-0.966025
H	-0.852038	-2.467298	0.412675
H	1.798862	2.258902	1.345775
$end

$rem
JOBTYPE		SP
EXCHANGE	HF
CORRELATION	pRIMP2
BASIS		cc-pvtz
METHOD		rimp2
AUX_BASIS	rimp2-cc-pvtz
SOLVENT_METHOD	PCM
PURECART	11111
SYMMETRY	false
MEM_TOTAL	110000
SCF_CONVERGENCE = 6
THRESH=10
GUI = 2
$end

$solvent
dielectric 4.90
$end
--------------------------------------------------------------

             Standard Nuclear Orientation (Angstroms)
    I     Atom           X                Y                Z
 ----------------------------------------------------------------
    1      C      -0.3295380000    -0.2780980000    -0.2102250000
    2      S       0.1801620000     0.3296020000     1.3702750000
    3      C       1.2328620000     1.5842020000     0.6946750000
    4      C       0.3118620000     0.4865020000    -1.1956250000
    5      C       1.1603620000     1.4979020000    -0.7037250000
    6      H       0.1603620000     0.3060020000    -2.2701250000
    7      H       1.7265620000     2.1728020000    -1.3628250000
    8      C      -0.3295380000    -1.7562980000    -0.2102250000
    9      H      -1.1565380000    -1.7568980000    -0.9048250000
   10      H       0.3046620000    -2.1955980000    -0.9660250000
   11      H      -0.8520380000    -2.4672980000     0.4126750000
   12      H       1.7988620000     2.2589020000     1.3457750000
 ----------------------------------------------------------------

   10    -590.3385732216      9.36e-07  Convergence criterion met
 Total energy in the final basis set =     -590.3385732216
        RIMP2         total energy =      -591.3480983877 a.u.

                    Orbital Energies (a.u.)
 --------------------------------------------------------------

 Alpha MOs
 -- Occupied --
-91.9736 -11.2748 -11.2736 -11.2453 -11.2438 -11.2186  -8.9741  -6.6549
 -6.6541  -6.6538  -1.1603  -1.0365  -0.9738  -0.9152  -0.7568  -0.7246
 -0.6702  -0.5944  -0.5664  -0.5593  -0.5423  -0.5008  -0.4628  -0.4357
 -0.3445  -0.3008

          Ground-State Mulliken Net Atomic Charges

     Atom                 Charge (a.u.)
  ----------------------------------------
      1 C                    -0.019644
      2 S                     0.002797
      3 C                    -0.206347
      4 C                    -0.197744
      5 C                    -0.199354
      6 H                     0.181502
      7 H                     0.187098
      8 C                    -0.377429
      9 H                     0.123775
     10 H                     0.140647
     11 H                     0.161809
     12 H                     0.202891
  ----------------------------------------
  Sum of atomic charges =     0.000000

                    Cartesian Multipole Moments
 -----------------------------------------------------------------
    Charge (ESU x 10^10)
                 0.0000
    Dipole Moment (Debye)
         X       0.5993      Y      -0.2997      Z      -1.5778
       Tot       1.7142
    Quadrupole Moments (Debye-Ang)
        XX     -44.0692     XY       5.7362     YY     -40.1700
        XZ       0.1786     YZ       1.2256     ZZ     -41.5313

 Total job time:  11.46s(wall), 606.79s(cpu)
        *  Thank you very much for using Q-Chem.  Have a nice day.  *
