 Q-Chem 5.4, Q-Chem, Inc., Pleasanton, CA (2021)
 Q-Chem 5.4.0 for Intel X86 EM64T Linux

User input:
--------------------------------------------------------------
$molecule
0 1
C	-0.261157	-0.329934	-0.219723
S	0.135243	0.357066	1.360777
C	0.954043	1.775366	0.685177
C	0.237643	0.534466	-1.205123
C	0.897743	1.677866	-0.713223
H	0.119843	0.330366	-2.279623
H	1.338143	2.440766	-1.372323
C	-0.261157	-1.808134	-0.219723
H	0.278343	-1.808734	0.715877
H	-1.115657	-2.247434	0.273577
H	0.442843	-2.519134	-0.626323
H	1.394343	2.538166	1.336277
$end

$rem
JOBTYPE		SP
EXCHANGE	HF
CORRELATION	pRIMP2
BASIS		cc-pvtz
METHOD		rimp2
AUX_BASIS	rimp2-cc-pvtz
SOLVENT_METHOD	PCM
PURECART	11111
SYMMETRY	false
MEM_TOTAL	110000
SCF_CONVERGENCE = 6
THRESH=10
GUI = 2
$end

$solvent
dielectric 4.90
$end
--------------------------------------------------------------

             Standard Nuclear Orientation (Angstroms)
    I     Atom           X                Y                Z
 ----------------------------------------------------------------
    1      C      -0.2611570000    -0.3299340000    -0.2197230000
    2      S       0.1352430000     0.3570660000     1.3607770000
    3      C       0.9540430000     1.7753660000     0.6851770000
    4      C       0.2376430000     0.5344660000    -1.2051230000
    5      C       0.8977430000     1.6778660000    -0.7132230000
    6      H       0.1198430000     0.3303660000    -2.2796230000
    7      H       1.3381430000     2.4407660000    -1.3723230000
    8      C      -0.2611570000    -1.8081340000    -0.2197230000
    9      H       0.2783430000    -1.8087340000     0.7158770000
   10      H      -1.1156570000    -2.2474340000     0.2735770000
   11      H       0.4428430000    -2.5191340000    -0.6263230000
   12      H       1.3943430000     2.5381660000     1.3362770000
 ----------------------------------------------------------------

   10    -590.3504121739      6.41e-07  Convergence criterion met
 Total energy in the final basis set =     -590.3504121739
        RIMP2         total energy =      -591.3555657926 a.u.

                    Orbital Energies (a.u.)
 --------------------------------------------------------------

 Alpha MOs
 -- Occupied --
-91.9767 -11.2776 -11.2739 -11.2430 -11.2405 -11.2195  -8.9773  -6.6581
 -6.6575  -6.6570  -1.1609  -1.0390  -0.9743  -0.9145  -0.7602  -0.7215
 -0.6716  -0.5935  -0.5701  -0.5635  -0.5342  -0.4969  -0.4630  -0.4499
 -0.3450  -0.3066

          Ground-State Mulliken Net Atomic Charges

     Atom                 Charge (a.u.)
  ----------------------------------------
      1 C                    -0.000542
      2 S                    -0.004947
      3 C                    -0.218172
      4 C                    -0.216502
      5 C                    -0.190774
      6 H                     0.184176
      7 H                     0.186615
      8 C                    -0.361080
      9 H                     0.126711
     10 H                     0.125640
     11 H                     0.163313
     12 H                     0.205561
  ----------------------------------------
  Sum of atomic charges =     0.000000

                    Cartesian Multipole Moments
 -----------------------------------------------------------------
    Charge (ESU x 10^10)
                 0.0000
    Dipole Moment (Debye)
         X       1.1597      Y      -0.1695      Z      -0.5328
       Tot       1.2874
    Quadrupole Moments (Debye-Ang)
        XX     -45.6886     XY       3.0598     YY     -38.6568
        XZ      -0.1307     YZ      -0.2646     ZZ     -42.0791

 Total job time:  12.87s(wall), 600.80s(cpu)
        *  Thank you very much for using Q-Chem.  Have a nice day.  *
