 Q-Chem 5.4, Q-Chem, Inc., Pleasanton, CA (2021)
 Q-Chem 5.4.0 for Intel X86 EM64T Linux

User input:
--------------------------------------------------------------
$molecule
0 1
C	-0.450963	-0.140188	-0.219723
S	0.235837	0.256612	1.360777
C	1.654137	1.075412	0.685177
C	0.413237	0.358912	-1.205123
C	1.556537	1.019112	-0.713223
H	0.209137	0.241112	-2.279623
H	2.319437	1.459712	-1.372323
C	-0.450963	-1.618388	-0.219723
H	0.088537	-1.618988	0.715877
H	-1.305463	-2.057688	0.273577
H	0.253037	-2.329388	-0.626323
H	2.416737	1.515912	1.336277
$end

$rem
JOBTYPE		SP
EXCHANGE	HF
CORRELATION	pRIMP2
BASIS		cc-pvtz
METHOD		rimp2
AUX_BASIS	rimp2-cc-pvtz
SOLVENT_METHOD	PCM
PURECART	11111
SYMMETRY	false
MEM_TOTAL	110000
SCF_CONVERGENCE = 6
THRESH=10
GUI = 2
$end

$solvent
dielectric 4.90
$end
--------------------------------------------------------------

             Standard Nuclear Orientation (Angstroms)
    I     Atom           X                Y                Z
 ----------------------------------------------------------------
    1      C      -0.4509630000    -0.1401880000    -0.2197230000
    2      S       0.2358370000     0.2566120000     1.3607770000
    3      C       1.6541370000     1.0754120000     0.6851770000
    4      C       0.4132370000     0.3589120000    -1.2051230000
    5      C       1.5565370000     1.0191120000    -0.7132230000
    6      H       0.2091370000     0.2411120000    -2.2796230000
    7      H       2.3194370000     1.4597120000    -1.3723230000
    8      C      -0.4509630000    -1.6183880000    -0.2197230000
    9      H       0.0885370000    -1.6189880000     0.7158770000
   10      H      -1.3054630000    -2.0576880000     0.2735770000
   11      H       0.2530370000    -2.3293880000    -0.6263230000
   12      H       2.4167370000     1.5159120000     1.3362770000
 ----------------------------------------------------------------

   11    -590.2850856452      3.45e-07  Convergence criterion met
 Total energy in the final basis set =     -590.2850856452
        RIMP2         total energy =      -591.2999660748 a.u.

                    Orbital Energies (a.u.)
 --------------------------------------------------------------

 Alpha MOs
 -- Occupied --
-91.9716 -11.2948 -11.2606 -11.2516 -11.2443 -11.2079  -8.9737  -6.6543
 -6.6533  -6.6532  -1.1733  -1.0396  -0.9822  -0.9029  -0.7696  -0.7280
 -0.6731  -0.5880  -0.5791  -0.5657  -0.5362  -0.4843  -0.4638  -0.4367
 -0.3384  -0.3027

          Ground-State Mulliken Net Atomic Charges

     Atom                 Charge (a.u.)
  ----------------------------------------
      1 C                    -0.117656
      2 S                    -0.000776
      3 C                    -0.149663
      4 C                    -0.078093
      5 C                    -0.251638
      6 H                     0.189941
      7 H                     0.187091
      8 C                    -0.376157
      9 H                     0.133814
     10 H                     0.105628
     11 H                     0.148180
     12 H                     0.209329
  ----------------------------------------
  Sum of atomic charges =     0.000000

                    Cartesian Multipole Moments
 -----------------------------------------------------------------
    Charge (ESU x 10^10)
                 0.0000
    Dipole Moment (Debye)
         X       2.7775      Y       0.0152      Z      -0.6373
       Tot       2.8497
    Quadrupole Moments (Debye-Ang)
        XX     -41.4925     XY       3.4831     YY     -44.1559
        XZ       0.2494     YZ      -0.6765     ZZ     -41.2486

 Total job time:  12.59s(wall), 628.53s(cpu)
        *  Thank you very much for using Q-Chem.  Have a nice day.  *
