 Q-Chem 5.4, Q-Chem, Inc., Pleasanton, CA (2021)
 Q-Chem 5.4.0 for Intel X86 EM64T Linux

User input:
--------------------------------------------------------------
$molecule
0 1
C	-0.399121	-0.214208	-0.219723
S	0.208379	0.295792	1.360777
C	1.462879	1.348492	0.685177
C	0.365279	0.427392	-1.205123
C	1.376579	1.276092	-0.713223
H	0.184779	0.275892	-2.279623
H	2.051379	1.842392	-1.372323
C	-0.399121	-1.692408	-0.219723
H	0.140379	-1.693008	0.715877
H	-1.253621	-2.131708	0.273577
H	0.304879	-2.403408	-0.626323
H	2.137479	1.914692	1.336277
$end

$rem
JOBTYPE		SP
EXCHANGE	HF
CORRELATION	pRIMP2
BASIS		cc-pvtz
METHOD		rimp2
AUX_BASIS	rimp2-cc-pvtz
SOLVENT_METHOD	PCM
PURECART	11111
SYMMETRY	false
MEM_TOTAL	110000
SCF_CONVERGENCE = 6
THRESH=10
GUI = 2
$end

$solvent
dielectric 4.90
$end
--------------------------------------------------------------

             Standard Nuclear Orientation (Angstroms)
    I     Atom           X                Y                Z
 ----------------------------------------------------------------
    1      C      -0.3991210000    -0.2142080000    -0.2197230000
    2      S       0.2083790000     0.2957920000     1.3607770000
    3      C       1.4628790000     1.3484920000     0.6851770000
    4      C       0.3652790000     0.4273920000    -1.2051230000
    5      C       1.3765790000     1.2760920000    -0.7132230000
    6      H       0.1847790000     0.2758920000    -2.2796230000
    7      H       2.0513790000     1.8423920000    -1.3723230000
    8      C      -0.3991210000    -1.6924080000    -0.2197230000
    9      H       0.1403790000    -1.6930080000     0.7158770000
   10      H      -1.2536210000    -2.1317080000     0.2735770000
   11      H       0.3048790000    -2.4034080000    -0.6263230000
   12      H       2.1374790000     1.9146920000     1.3362770000
 ----------------------------------------------------------------

   10    -590.3123061578      9.43e-07  Convergence criterion met
 Total energy in the final basis set =     -590.3123061578
        RIMP2         total energy =      -591.3239069736 a.u.

                    Orbital Energies (a.u.)
 --------------------------------------------------------------

 Alpha MOs
 -- Occupied --
-91.9731 -11.2860 -11.2625 -11.2519 -11.2436 -11.2120  -8.9746  -6.6554
 -6.6545  -6.6542  -1.1675  -1.0386  -0.9785  -0.9075  -0.7654  -0.7247
 -0.6720  -0.5896  -0.5748  -0.5644  -0.5357  -0.4882  -0.4628  -0.4425
 -0.3414  -0.3045

          Ground-State Mulliken Net Atomic Charges

     Atom                 Charge (a.u.)
  ----------------------------------------
      1 C                    -0.069673
      2 S                    -0.002670
      3 C                    -0.177699
      4 C                    -0.135551
      5 C                    -0.226284
      6 H                     0.186174
      7 H                     0.187095
      8 C                    -0.371031
      9 H                     0.132543
     10 H                     0.113487
     11 H                     0.156419
     12 H                     0.207190
  ----------------------------------------
  Sum of atomic charges =     0.000000

                    Cartesian Multipole Moments
 -----------------------------------------------------------------
    Charge (ESU x 10^10)
                 0.0000
    Dipole Moment (Debye)
         X       2.1238      Y       0.0191      Z      -0.6011
       Tot       2.2073
    Quadrupole Moments (Debye-Ang)
        XX     -42.9004     XY       3.7986     YY     -42.2905
        XZ       0.1175     YZ      -0.4673     ZZ     -41.6078

 Total job time:  11.33s(wall), 576.49s(cpu)
        *  Thank you very much for using Q-Chem.  Have a nice day.  *
