 Q-Chem 5.4, Q-Chem, Inc., Pleasanton, CA (2021)
 Q-Chem 5.4.0 for Intel X86 EM64T Linux

User input:
--------------------------------------------------------------
$molecule
0 1
C	-0.328856	-0.278098	-0.210927
S	0.180844	0.329602	1.369573
C	1.233544	1.584202	0.693973
C	0.312544	0.486502	-1.196327
C	1.161044	1.497902	-0.704427
H	0.161044	0.306002	-2.270827
H	1.727244	2.172802	-1.363527
C	-0.328856	-1.756298	-0.210927
H	-1.263856	-1.756898	-0.751427
H	0.164444	-2.195598	-1.065327
H	-0.735256	-2.467298	0.493173
H	1.799544	2.258902	1.345073
$end

$rem
JOBTYPE		SP
EXCHANGE	HF
CORRELATION	pRIMP2
BASIS		cc-pvtz
METHOD		rimp2
AUX_BASIS	rimp2-cc-pvtz
SOLVENT_METHOD	PCM
PURECART	11111
SYMMETRY	false
MEM_TOTAL	110000
SCF_CONVERGENCE = 6
THRESH=10
GUI = 2
$end

$solvent
dielectric 4.90
$end
--------------------------------------------------------------

             Standard Nuclear Orientation (Angstroms)
    I     Atom           X                Y                Z
 ----------------------------------------------------------------
    1      C      -0.3288560000    -0.2780980000    -0.2109270000
    2      S       0.1808440000     0.3296020000     1.3695730000
    3      C       1.2335440000     1.5842020000     0.6939730000
    4      C       0.3125440000     0.4865020000    -1.1963270000
    5      C       1.1610440000     1.4979020000    -0.7044270000
    6      H       0.1610440000     0.3060020000    -2.2708270000
    7      H       1.7272440000     2.1728020000    -1.3635270000
    8      C      -0.3288560000    -1.7562980000    -0.2109270000
    9      H      -1.2638560000    -1.7568980000    -0.7514270000
   10      H       0.1644440000    -2.1955980000    -1.0653270000
   11      H      -0.7352560000    -2.4672980000     0.4931730000
   12      H       1.7995440000     2.2589020000     1.3450730000
 ----------------------------------------------------------------

   10    -590.3364821619      9.55e-07  Convergence criterion met
 Total energy in the final basis set =     -590.3364821619
        RIMP2         total energy =      -591.3461714675 a.u.

                    Orbital Energies (a.u.)
 --------------------------------------------------------------

 Alpha MOs
 -- Occupied --
-91.9740 -11.2741 -11.2739 -11.2444 -11.2433 -11.2183  -8.9744  -6.6552
 -6.6545  -6.6541  -1.1600  -1.0365  -0.9736  -0.9154  -0.7568  -0.7241
 -0.6698  -0.5942  -0.5637  -0.5594  -0.5445  -0.5008  -0.4619  -0.4385
 -0.3445  -0.2980

          Ground-State Mulliken Net Atomic Charges

     Atom                 Charge (a.u.)
  ----------------------------------------
      1 C                    -0.017559
      2 S                     0.003696
      3 C                    -0.211358
      4 C                    -0.200966
      5 C                    -0.196292
      6 H                     0.181051
      7 H                     0.187309
      8 C                    -0.378568
      9 H                     0.126477
     10 H                     0.139984
     11 H                     0.163378
     12 H                     0.202850
  ----------------------------------------
  Sum of atomic charges =     0.000000

                    Cartesian Multipole Moments
 -----------------------------------------------------------------
    Charge (ESU x 10^10)
                 0.0000
    Dipole Moment (Debye)
         X       0.4917      Y      -0.3567      Z      -1.4830
       Tot       1.6026
    Quadrupole Moments (Debye-Ang)
        XX     -44.1879     XY       5.8049     YY     -40.1863
        XZ       0.2133     YZ       1.0295     ZZ     -41.4345

 Total job time:  11.49s(wall), 593.10s(cpu)
        *  Thank you very much for using Q-Chem.  Have a nice day.  *
