 Q-Chem 5.4, Q-Chem, Inc., Pleasanton, CA (2021)
 Q-Chem 5.4.0 for Intel X86 EM64T Linux

User input:
--------------------------------------------------------------
$molecule
0 1
C	-0.453870	-0.140188	-0.217210
S	0.232930	0.256612	1.363290
C	1.651230	1.075412	0.687690
C	0.410330	0.358912	-1.202610
C	1.553630	1.019112	-0.710710
H	0.206230	0.241112	-2.277110
H	2.316530	1.459712	-1.369810
C	-0.453870	-1.618388	-0.217210
H	0.560830	-1.618988	0.152690
H	-0.791370	-2.057688	0.709890
H	-0.175970	-2.329388	-0.981210
H	2.413830	1.515912	1.338790
$end

$rem
JOBTYPE		SP
EXCHANGE	HF
CORRELATION	pRIMP2
BASIS		cc-pvtz
METHOD		rimp2
AUX_BASIS	rimp2-cc-pvtz
SOLVENT_METHOD	PCM
PURECART	11111
SYMMETRY	false
MEM_TOTAL	110000
SCF_CONVERGENCE = 6
THRESH=10
GUI = 2
$end

$solvent
dielectric 4.90
$end
--------------------------------------------------------------

             Standard Nuclear Orientation (Angstroms)
    I     Atom           X                Y                Z
 ----------------------------------------------------------------
    1      C      -0.4538700000    -0.1401880000    -0.2172100000
    2      S       0.2329300000     0.2566120000     1.3632900000
    3      C       1.6512300000     1.0754120000     0.6876900000
    4      C       0.4103300000     0.3589120000    -1.2026100000
    5      C       1.5536300000     1.0191120000    -0.7107100000
    6      H       0.2062300000     0.2411120000    -2.2771100000
    7      H       2.3165300000     1.4597120000    -1.3698100000
    8      C      -0.4538700000    -1.6183880000    -0.2172100000
    9      H       0.5608300000    -1.6189880000     0.1526900000
   10      H      -0.7913700000    -2.0576880000     0.7098900000
   11      H      -0.1759700000    -2.3293880000    -0.9812100000
   12      H       2.4138300000     1.5159120000     1.3387900000
 ----------------------------------------------------------------

   11    -590.3012211449      4.81e-07  Convergence criterion met
 Total energy in the final basis set =     -590.3012211449
        RIMP2         total energy =      -591.3152684379 a.u.

                    Orbital Energies (a.u.)
 --------------------------------------------------------------

 Alpha MOs
 -- Occupied --
-91.9739 -11.2919 -11.2615 -11.2528 -11.2467 -11.2191  -8.9753  -6.6560
 -6.6553  -6.6550  -1.1744  -1.0407  -0.9804  -0.9048  -0.7665  -0.7287
 -0.6749  -0.5938  -0.5746  -0.5672  -0.5263  -0.5006  -0.4644  -0.4412
 -0.3470  -0.2981

          Ground-State Mulliken Net Atomic Charges

     Atom                 Charge (a.u.)
  ----------------------------------------
      1 C                    -0.094074
      2 S                     0.002187
      3 C                    -0.168076
      4 C                    -0.112380
      5 C                    -0.233103
      6 H                     0.186672
      7 H                     0.187460
      8 C                    -0.351208
      9 H                     0.113438
     10 H                     0.113016
     11 H                     0.147059
     12 H                     0.209010
  ----------------------------------------
  Sum of atomic charges =     0.000000

                    Cartesian Multipole Moments
 -----------------------------------------------------------------
    Charge (ESU x 10^10)
                 0.0000
    Dipole Moment (Debye)
         X       2.7107      Y      -0.2600      Z      -0.9996
       Tot       2.9008
    Quadrupole Moments (Debye-Ang)
        XX     -42.0696     XY       3.7652     YY     -43.6661
        XZ       0.3981     YZ       0.4285     ZZ     -41.0754

 Total job time:  12.59s(wall), 638.74s(cpu)
        *  Thank you very much for using Q-Chem.  Have a nice day.  *
