 Q-Chem 5.4, Q-Chem, Inc., Pleasanton, CA (2021)
 Q-Chem 5.4.0 for Intel X86 EM64T Linux

User input:
--------------------------------------------------------------
$molecule
0 1
C 0.0000 0.0000 0.0000
S -0.0002 0.7932 1.5805
C -0.0002 2.4309 0.9049
C -0.0002 0.9980 -0.9854
C -0.0003 2.3182 -0.4935
H -0.0001 0.7623 -2.0599
H -0.0003 3.1992 -1.1526
C -0.0000 -1.4782 -0.0000
H 1.0147 -1.4788 0.3699
H -0.3375 -1.9175 0.9271
H 0.2779 -2.1892 -0.7640
H -0.0003 3.3116 1.5560
$end

$rem
JOBTYPE         SP
EXCHANGE        HF
CORRELATION     pRIMP2
BASIS           cc-pvtz
METHOD          rimp2
AUX_BASIS       rimp2-cc-pvtz
SOLVENT_METHOD  PCM
PURECART        11111
SYMMETRY        false
MEM_TOTAL       110000
SCF_CONVERGENCE = 6
THRESH=10
GUI = 2
$end
--------------------------------------------------------------

             Standard Nuclear Orientation (Angstroms)
    I     Atom           X                Y                Z
 ----------------------------------------------------------------
    1      C       0.0000000000     0.0000000000     0.0000000000
    2      S      -0.0002000000     0.7932000000     1.5805000000
    3      C      -0.0002000000     2.4309000000     0.9049000000
    4      C      -0.0002000000     0.9980000000    -0.9854000000
    5      C      -0.0003000000     2.3182000000    -0.4935000000
    6      H      -0.0001000000     0.7623000000    -2.0599000000
    7      H      -0.0003000000     3.1992000000    -1.1526000000
    8      C       0.0000000000    -1.4782000000     0.0000000000
    9      H       1.0147000000    -1.4788000000     0.3699000000
   10      H      -0.3375000000    -1.9175000000     0.9271000000
   11      H       0.2779000000    -2.1892000000    -0.7640000000
   12      H      -0.0003000000     3.3116000000     1.5560000000
 ----------------------------------------------------------------

   10    -590.3756974295      6.40e-07  Convergence criterion met
 Total energy in the final basis set =     -590.3756974295
        RIMP2         total energy =      -591.3749275730 a.u.

                    Orbital Energies (a.u.)
 --------------------------------------------------------------

 Alpha MOs
 -- Occupied --
-91.9800 -11.2917 -11.2637 -11.2431 -11.2307 -11.2260  -8.9799  -6.6609
 -6.6604  -6.6598  -1.1579  -1.0405  -0.9719  -0.9194  -0.7555  -0.7210
 -0.6712  -0.5959  -0.5648  -0.5599  -0.5382  -0.4976  -0.4766  -0.4573
 -0.3483  -0.2997

          Ground-State Mulliken Net Atomic Charges

     Atom                 Charge (a.u.)
  ----------------------------------------
      1 C                     0.017069
      2 S                    -0.009691
      3 C                    -0.253322
      4 C                    -0.243750
      5 C                    -0.193893
      6 H                     0.190722
      7 H                     0.191965
      8 C                    -0.362309
      9 H                     0.139444
     10 H                     0.139696
     11 H                     0.171897
     12 H                     0.212170
  ----------------------------------------
  Sum of atomic charges =     0.000000

                    Cartesian Multipole Moments
 -----------------------------------------------------------------
    Charge (ESU x 10^10)
                -0.0000
    Dipole Moment (Debye)
         X       0.7353      Y      -0.8343      Z      -0.8583
       Tot       1.4048
    Quadrupole Moments (Debye-Ang)
        XX     -48.2584     XY      -1.2155     YY     -36.1601
        XZ      -0.2685     YZ       0.0549     ZZ     -42.2172

 Total job time:  12.39s(wall), 585.96s(cpu)
        *  Thank you very much for using Q-Chem.  Have a nice day.  *
