 Q-Chem 5.4, Q-Chem, Inc., Pleasanton, CA (2021)
 Q-Chem 5.4.0 for Intel X86 EM64T Linux

User input:
--------------------------------------------------------------
$molecule
0 1
C	-0.182770	-0.368118	-0.213418
S	0.088330	0.377282	1.367082
C	0.648430	1.916282	0.691482
C	0.158430	0.569782	-1.198818
C	0.609830	1.810382	-0.706918
H	0.077830	0.348282	-2.273318
H	0.911130	2.638182	-1.366018
C	-0.182770	-1.846318	-0.213418
H	0.832230	-1.846918	-0.582318
H	0.154630	-2.285618	0.713682
H	-0.460970	-2.557318	-0.977318
H	0.949530	2.743882	1.342582
$end

$rem
JOBTYPE		SP
EXCHANGE	HF
CORRELATION	pRIMP2
BASIS		cc-pvtz
METHOD		rimp2
AUX_BASIS	rimp2-cc-pvtz
SOLVENT_METHOD	PCM
PURECART	11111
SYMMETRY	false
MEM_TOTAL	110000
SCF_CONVERGENCE = 6
THRESH=10
GUI = 2
$end

$solvent
dielectric 4.90
$end
--------------------------------------------------------------

             Standard Nuclear Orientation (Angstroms)
    I     Atom           X                Y                Z
 ----------------------------------------------------------------
    1      C      -0.1827700000    -0.3681180000    -0.2134180000
    2      S       0.0883300000     0.3772820000     1.3670820000
    3      C       0.6484300000     1.9162820000     0.6914820000
    4      C       0.1584300000     0.5697820000    -1.1988180000
    5      C       0.6098300000     1.8103820000    -0.7069180000
    6      H       0.0778300000     0.3482820000    -2.2733180000
    7      H       0.9111300000     2.6381820000    -1.3660180000
    8      C      -0.1827700000    -1.8463180000    -0.2134180000
    9      H       0.8322300000    -1.8469180000    -0.5823180000
   10      H       0.1546300000    -2.2856180000     0.7136820000
   11      H      -0.4609700000    -2.5573180000    -0.9773180000
   12      H       0.9495300000     2.7438820000     1.3425820000
 ----------------------------------------------------------------

   10    -590.3676122361      6.27e-07  Convergence criterion met
 Total energy in the final basis set =     -590.3676122361
        RIMP2         total energy =      -591.3694056361 a.u.

                    Orbital Energies (a.u.)
 --------------------------------------------------------------

 Alpha MOs
 -- Occupied --
-91.9796 -11.2899 -11.2633 -11.2432 -11.2312 -11.2273  -8.9794  -6.6602
 -6.6598  -6.6592  -1.1584  -1.0401  -0.9720  -0.9174  -0.7550  -0.7227
 -0.6713  -0.5972  -0.5662  -0.5544  -0.5451  -0.4932  -0.4756  -0.4561
 -0.3462  -0.2982

          Ground-State Mulliken Net Atomic Charges

     Atom                 Charge (a.u.)
  ----------------------------------------
      1 C                     0.021200
      2 S                     0.002653
      3 C                    -0.244927
      4 C                    -0.233586
      5 C                    -0.190213
      6 H                     0.178620
      7 H                     0.186183
      8 C                    -0.366814
      9 H                     0.146998
     10 H                     0.135323
     11 H                     0.160760
     12 H                     0.203802
  ----------------------------------------
  Sum of atomic charges =     0.000000

                    Cartesian Multipole Moments
 -----------------------------------------------------------------
    Charge (ESU x 10^10)
                 0.0000
    Dipole Moment (Debye)
         X       1.0613      Y      -0.7915      Z      -1.2862
       Tot       1.8459
    Quadrupole Moments (Debye-Ang)
        XX     -47.4649     XY       1.5836     YY     -37.1779
        XZ       0.2582     YZ       1.5149     ZZ     -41.6141

 Total job time:  11.41s(wall), 588.37s(cpu)
        *  Thank you very much for using Q-Chem.  Have a nice day.  *
