 Q-Chem 5.4, Q-Chem, Inc., Pleasanton, CA (2021)
 Q-Chem 5.4.0 for Intel X86 EM64T Linux

User input:
--------------------------------------------------------------
$molecule
0 1
C	-0.172006	-0.368118	-0.216471
S	0.099094	0.377282	1.364029
C	0.659194	1.916282	0.688429
C	0.169194	0.569782	-1.201871
C	0.620594	1.810382	-0.709971
H	0.088594	0.348282	-2.276371
H	0.921894	2.638182	-1.369071
C	-0.172006	-1.846318	-0.216471
H	-1.107606	-1.846918	0.323029
H	-0.665306	-2.285618	-1.070971
H	0.234594	-2.557318	0.487529
H	0.960294	2.743882	1.339529
$end

$rem
JOBTYPE		SP
EXCHANGE	HF
CORRELATION	pRIMP2
BASIS		cc-pvtz
METHOD		rimp2
AUX_BASIS	rimp2-cc-pvtz
SOLVENT_METHOD	PCM
PURECART	11111
SYMMETRY	false
MEM_TOTAL	110000
SCF_CONVERGENCE = 6
THRESH=10
GUI = 2
$end

$solvent
dielectric 4.90
$end
--------------------------------------------------------------

             Standard Nuclear Orientation (Angstroms)
    I     Atom           X                Y                Z
 ----------------------------------------------------------------
    1      C      -0.1720060000    -0.3681180000    -0.2164710000
    2      S       0.0990940000     0.3772820000     1.3640290000
    3      C       0.6591940000     1.9162820000     0.6884290000
    4      C       0.1691940000     0.5697820000    -1.2018710000
    5      C       0.6205940000     1.8103820000    -0.7099710000
    6      H       0.0885940000     0.3482820000    -2.2763710000
    7      H       0.9218940000     2.6381820000    -1.3690710000
    8      C      -0.1720060000    -1.8463180000    -0.2164710000
    9      H      -1.1076060000    -1.8469180000     0.3230290000
   10      H      -0.6653060000    -2.2856180000    -1.0709710000
   11      H       0.2345940000    -2.5573180000     0.4875290000
   12      H       0.9602940000     2.7438820000     1.3395290000
 ----------------------------------------------------------------

   10    -590.3630241591      6.21e-07  Convergence criterion met
 Total energy in the final basis set =     -590.3630241591
        RIMP2         total energy =      -591.3660007203 a.u.

                    Orbital Energies (a.u.)
 --------------------------------------------------------------

 Alpha MOs
 -- Occupied --
-91.9778 -11.2841 -11.2685 -11.2431 -11.2363 -11.2238  -8.9778  -6.6588
 -6.6582  -6.6577  -1.1577  -1.0389  -0.9724  -0.9190  -0.7569  -0.7212
 -0.6705  -0.5971  -0.5653  -0.5593  -0.5453  -0.4881  -0.4704  -0.4543
 -0.3463  -0.3016

          Ground-State Mulliken Net Atomic Charges

     Atom                 Charge (a.u.)
  ----------------------------------------
      1 C                    -0.013605
      2 S                    -0.009613
      3 C                    -0.224242
      4 C                    -0.202104
      5 C                    -0.197077
      6 H                     0.184453
      7 H                     0.185161
      8 C                    -0.353852
      9 H                     0.129348
     10 H                     0.129631
     11 H                     0.166792
     12 H                     0.205106
  ----------------------------------------
  Sum of atomic charges =     0.000000

                    Cartesian Multipole Moments
 -----------------------------------------------------------------
    Charge (ESU x 10^10)
                -0.0000
    Dipole Moment (Debye)
         X      -0.1424      Y      -0.4425      Z      -0.7614
       Tot       0.8921
    Quadrupole Moments (Debye-Ang)
        XX     -46.9024     XY       4.0421     YY     -37.0767
        XZ       0.6453     YZ      -0.0293     ZZ     -41.8916

 Total job time:  17.94s(wall), 549.33s(cpu)
        *  Thank you very much for using Q-Chem.  Have a nice day.  *
