 Q-Chem 5.4, Q-Chem, Inc., Pleasanton, CA (2021)
 Q-Chem 5.4.0 for Intel X86 EM64T Linux

User input:
--------------------------------------------------------------
$molecule
0 1
C	-0.443451	-0.140188	-0.215530
S	0.243349	0.256612	1.364970
C	1.661649	1.075412	0.689370
C	0.420749	0.358912	-1.200930
C	1.564049	1.019112	-0.709030
H	0.216649	0.241112	-2.275430
H	2.326949	1.459712	-1.368130
C	-0.443451	-1.618388	-0.215530
H	-1.458451	-1.618988	0.153370
H	-0.780851	-2.057688	-1.142630
H	-0.165251	-2.329388	0.548370
H	2.424249	1.515912	1.340470
$end

$rem
JOBTYPE		SP
EXCHANGE	HF
CORRELATION	pRIMP2
BASIS		cc-pvtz
METHOD		rimp2
AUX_BASIS	rimp2-cc-pvtz
SOLVENT_METHOD	PCM
PURECART	11111
SYMMETRY	false
MEM_TOTAL	110000
SCF_CONVERGENCE = 6
THRESH=10
GUI = 2
$end

$solvent
dielectric 4.90
$end
--------------------------------------------------------------

             Standard Nuclear Orientation (Angstroms)
    I     Atom           X                Y                Z
 ----------------------------------------------------------------
    1      C      -0.4434510000    -0.1401880000    -0.2155300000
    2      S       0.2433490000     0.2566120000     1.3649700000
    3      C       1.6616490000     1.0754120000     0.6893700000
    4      C       0.4207490000     0.3589120000    -1.2009300000
    5      C       1.5640490000     1.0191120000    -0.7090300000
    6      H       0.2166490000     0.2411120000    -2.2754300000
    7      H       2.3269490000     1.4597120000    -1.3681300000
    8      C      -0.4434510000    -1.6183880000    -0.2155300000
    9      H      -1.4584510000    -1.6189880000     0.1533700000
   10      H      -0.7808510000    -2.0576880000    -1.1426300000
   11      H      -0.1652510000    -2.3293880000     0.5483700000
   12      H       2.4242490000     1.5159120000     1.3404700000
 ----------------------------------------------------------------

   11    -590.2931646967      7.61e-07  Convergence criterion met
 Total energy in the final basis set =     -590.2931646967
        RIMP2         total energy =      -591.3076868755 a.u.

                    Orbital Energies (a.u.)
 --------------------------------------------------------------

 Alpha MOs
 -- Occupied --
-91.9762 -11.2938 -11.2576 -11.2454 -11.2448 -11.2101  -8.9769  -6.6577
 -6.6568  -6.6566  -1.1678  -1.0351  -0.9794  -0.9086  -0.7651  -0.7279
 -0.6701  -0.5926  -0.5643  -0.5555  -0.5538  -0.4870  -0.4556  -0.4323
 -0.3444  -0.2974

          Ground-State Mulliken Net Atomic Charges

     Atom                 Charge (a.u.)
  ----------------------------------------
      1 C                    -0.141438
      2 S                     0.008241
      3 C                    -0.147715
      4 C                    -0.066661
      5 C                    -0.241950
      6 H                     0.190207
      7 H                     0.184490
      8 C                    -0.387067
      9 H                     0.124843
     10 H                     0.115964
     11 H                     0.151835
     12 H                     0.209250
  ----------------------------------------
  Sum of atomic charges =     0.000000

                    Cartesian Multipole Moments
 -----------------------------------------------------------------
    Charge (ESU x 10^10)
                 0.0000
    Dipole Moment (Debye)
         X       1.9185      Y       0.0702      Z      -0.9586
       Tot       2.1458
    Quadrupole Moments (Debye-Ang)
        XX     -41.2300     XY       5.3358     YY     -43.8876
        XZ       1.0926     YZ      -0.0238     ZZ     -40.7347

 Total job time:  13.85s(wall), 646.02s(cpu)
        *  Thank you very much for using Q-Chem.  Have a nice day.  *
