 Q-Chem 5.4, Q-Chem, Inc., Pleasanton, CA (2021)
 Q-Chem 5.4.0 for Intel X86 EM64T Linux

User input:
--------------------------------------------------------------
$molecule
0 1
C	-0.254806	-0.329934	-0.210927
S	0.141594	0.357066	1.369573
C	0.960394	1.775366	0.693973
C	0.243994	0.534466	-1.196327
C	0.904094	1.677866	-0.704427
H	0.126194	0.330366	-2.270827
H	1.344494	2.440766	-1.363527
C	-0.254806	-1.808134	-0.210927
H	-1.189806	-1.808734	-0.751427
H	0.238494	-2.247434	-1.065327
H	-0.661206	-2.519134	0.493173
H	1.400694	2.538166	1.345073
$end

$rem
JOBTYPE		SP
EXCHANGE	HF
CORRELATION	pRIMP2
BASIS		cc-pvtz
METHOD		rimp2
AUX_BASIS	rimp2-cc-pvtz
SOLVENT_METHOD	PCM
PURECART	11111
SYMMETRY	false
MEM_TOTAL	110000
SCF_CONVERGENCE = 6
THRESH=10
GUI = 2
$end

$solvent
dielectric 4.90
$end
--------------------------------------------------------------

             Standard Nuclear Orientation (Angstroms)
    I     Atom           X                Y                Z
 ----------------------------------------------------------------
    1      C      -0.2548060000    -0.3299340000    -0.2109270000
    2      S       0.1415940000     0.3570660000     1.3695730000
    3      C       0.9603940000     1.7753660000     0.6939730000
    4      C       0.2439940000     0.5344660000    -1.1963270000
    5      C       0.9040940000     1.6778660000    -0.7044270000
    6      H       0.1261940000     0.3303660000    -2.2708270000
    7      H       1.3444940000     2.4407660000    -1.3635270000
    8      C      -0.2548060000    -1.8081340000    -0.2109270000
    9      H      -1.1898060000    -1.8087340000    -0.7514270000
   10      H       0.2384940000    -2.2474340000    -1.0653270000
   11      H      -0.6612060000    -2.5191340000     0.4931730000
   12      H       1.4006940000     2.5381660000     1.3450730000
 ----------------------------------------------------------------

   10    -590.3517612964      7.25e-07  Convergence criterion met
 Total energy in the final basis set =     -590.3517612964
        RIMP2         total energy =      -591.3580269840 a.u.

                    Orbital Energies (a.u.)
 --------------------------------------------------------------

 Alpha MOs
 -- Occupied --
-91.9749 -11.2818 -11.2686 -11.2435 -11.2395 -11.2217  -8.9751  -6.6559
 -6.6553  -6.6548  -1.1581  -1.0377  -0.9723  -0.9176  -0.7552  -0.7231
 -0.6701  -0.5959  -0.5623  -0.5602  -0.5457  -0.5006  -0.4634  -0.4439
 -0.3450  -0.2988

          Ground-State Mulliken Net Atomic Charges

     Atom                 Charge (a.u.)
  ----------------------------------------
      1 C                     0.009555
      2 S                     0.001713
      3 C                    -0.229504
      4 C                    -0.230488
      5 C                    -0.185721
      6 H                     0.179935
      7 H                     0.187329
      8 C                    -0.374310
      9 H                     0.130118
     10 H                     0.141287
     11 H                     0.167671
     12 H                     0.202417
  ----------------------------------------
  Sum of atomic charges =     0.000000

                    Cartesian Multipole Moments
 -----------------------------------------------------------------
    Charge (ESU x 10^10)
                 0.0000
    Dipole Moment (Debye)
         X       0.0752      Y      -0.5295      Z      -1.4778
       Tot       1.5716
    Quadrupole Moments (Debye-Ang)
        XX     -45.6602     XY       5.2627     YY     -38.4927
        XZ       0.1015     YZ       1.1403     ZZ     -41.6105

 Total job time:  12.06s(wall), 592.43s(cpu)
        *  Thank you very much for using Q-Chem.  Have a nice day.  *
