 Q-Chem 5.4, Q-Chem, Inc., Pleasanton, CA (2021)
 Q-Chem 5.4.0 for Intel X86 EM64T Linux

User input:
--------------------------------------------------------------
$molecule
0 1
C	-0.359354	-0.280867	-0.215368
S	0.150346	0.326833	1.365132
C	1.203046	1.581433	0.689532
C	0.282046	0.483733	-1.200768
C	1.130546	1.495133	-0.708868
H	0.130546	0.303233	-2.275268
H	1.696746	2.170033	-1.367968
C	-0.102654	-1.736667	-0.215368
H	0.961046	-1.549667	-0.214868
H	-0.026454	-2.169267	0.771232
H	0.020646	-2.436767	-1.028368
H	1.769046	2.256133	1.340632
$end

$rem
JOBTYPE		SP
EXCHANGE	HF
CORRELATION	pRIMP2
BASIS		cc-pvtz
METHOD		rimp2
AUX_BASIS	rimp2-cc-pvtz
SOLVENT_METHOD	PCM
PURECART	11111
SYMMETRY	false
MEM_TOTAL	110000
SCF_CONVERGENCE = 6
THRESH=10
GUI = 2
$end

$solvent
dielectric 4.90
$end
--------------------------------------------------------------

             Standard Nuclear Orientation (Angstroms)
    I     Atom           X                Y                Z
 ----------------------------------------------------------------
    1      C      -0.3593540000    -0.2808670000    -0.2153680000
    2      S       0.1503460000     0.3268330000     1.3651320000
    3      C       1.2030460000     1.5814330000     0.6895320000
    4      C       0.2820460000     0.4837330000    -1.2007680000
    5      C       1.1305460000     1.4951330000    -0.7088680000
    6      H       0.1305460000     0.3032330000    -2.2752680000
    7      H       1.6967460000     2.1700330000    -1.3679680000
    8      C      -0.1026540000    -1.7366670000    -0.2153680000
    9      H       0.9610460000    -1.5496670000    -0.2148680000
   10      H      -0.0264540000    -2.1692670000     0.7712320000
   11      H       0.0206460000    -2.4367670000    -1.0283680000
   12      H       1.7690460000     2.2561330000     1.3406320000
 ----------------------------------------------------------------

   10    -590.3260168289      9.62e-07  Convergence criterion met
 Total energy in the final basis set =     -590.3260168289
        RIMP2         total energy =      -591.3368792514 a.u.

                    Orbital Energies (a.u.)
 --------------------------------------------------------------

 Alpha MOs
 -- Occupied --
-91.9777 -11.2798 -11.2736 -11.2455 -11.2416 -11.2224  -8.9782  -6.6590
 -6.6584  -6.6580  -1.1679  -1.0397  -0.9767  -0.9089  -0.7616  -0.7257
 -0.6728  -0.5953  -0.5681  -0.5632  -0.5346  -0.4946  -0.4654  -0.4545
 -0.3468  -0.2961

          Ground-State Mulliken Net Atomic Charges

     Atom                 Charge (a.u.)
  ----------------------------------------
      1 C                    -0.052106
      2 S                     0.009004
      3 C                    -0.204385
      4 C                    -0.162928
      5 C                    -0.212476
      6 H                     0.180623
      7 H                     0.187637
      8 C                    -0.353959
      9 H                     0.130924
     10 H                     0.123530
     11 H                     0.147253
     12 H                     0.206883
  ----------------------------------------
  Sum of atomic charges =     0.000000

                    Cartesian Multipole Moments
 -----------------------------------------------------------------
    Charge (ESU x 10^10)
                 0.0000
    Dipole Moment (Debye)
         X       2.1072      Y      -0.0397      Z      -1.0755
       Tot       2.3661
    Quadrupole Moments (Debye-Ang)
        XX     -45.0271     XY       3.2545     YY     -40.6297
        XZ       0.2306     YZ       1.0448     ZZ     -41.1898

 Total job time:  11.77s(wall), 606.14s(cpu)
        *  Thank you very much for using Q-Chem.  Have a nice day.  *
