 Q-Chem 5.4, Q-Chem, Inc., Pleasanton, CA (2021)
 Q-Chem 5.4.0 for Intel X86 EM64T Linux

User input:
--------------------------------------------------------------
$molecule
0 1
C	-0.039799	-0.397395	-0.212630
S	0.029101	0.392805	1.367870
C	0.171801	2.024305	0.692270
C	0.047001	0.596805	-1.198030
C	0.162001	1.912005	-0.706130
H	0.026501	0.362105	-2.272530
H	0.238701	2.789605	-1.365230
C	-0.039799	-1.875595	-0.212630
H	-1.103299	-1.876195	-0.400730
H	0.131601	-2.314895	-1.184230
H	-0.180799	-2.586595	0.588070
H	0.248501	2.901605	1.343370
$end

$rem
JOBTYPE		SP
EXCHANGE	HF
CORRELATION	pRIMP2
BASIS		cc-pvtz
METHOD		rimp2
AUX_BASIS	rimp2-cc-pvtz
SOLVENT_METHOD	PCM
PURECART	11111
SYMMETRY	false
MEM_TOTAL	110000
SCF_CONVERGENCE = 6
THRESH=10
GUI = 2
$end

$solvent
dielectric 4.90
$end
--------------------------------------------------------------

             Standard Nuclear Orientation (Angstroms)
    I     Atom           X                Y                Z
 ----------------------------------------------------------------
    1      C      -0.0397990000    -0.3973950000    -0.2126300000
    2      S       0.0291010000     0.3928050000     1.3678700000
    3      C       0.1718010000     2.0243050000     0.6922700000
    4      C       0.0470010000     0.5968050000    -1.1980300000
    5      C       0.1620010000     1.9120050000    -0.7061300000
    6      H       0.0265010000     0.3621050000    -2.2725300000
    7      H       0.2387010000     2.7896050000    -1.3652300000
    8      C      -0.0397990000    -1.8755950000    -0.2126300000
    9      H      -1.1032990000    -1.8761950000    -0.4007300000
   10      H       0.1316010000    -2.3148950000    -1.1842300000
   11      H      -0.1807990000    -2.5865950000     0.5880700000
   12      H       0.2485010000     2.9016050000     1.3433700000
 ----------------------------------------------------------------

   10    -590.3722154093      6.42e-07  Convergence criterion met
 Total energy in the final basis set =     -590.3722154093
        RIMP2         total energy =      -591.3727507809 a.u.

                    Orbital Energies (a.u.)
 --------------------------------------------------------------

 Alpha MOs
 -- Occupied --
-91.9771 -11.2926 -11.2614 -11.2430 -11.2322 -11.2282  -8.9771  -6.6580
 -6.6575  -6.6569  -1.1566  -1.0406  -0.9709  -0.9201  -0.7539  -0.7219
 -0.6706  -0.5989  -0.5645  -0.5553  -0.5500  -0.4946  -0.4732  -0.4538
 -0.3461  -0.2976

          Ground-State Mulliken Net Atomic Charges

     Atom                 Charge (a.u.)
  ----------------------------------------
      1 C                     0.036470
      2 S                    -0.003330
      3 C                    -0.253820
      4 C                    -0.248958
      5 C                    -0.184139
      6 H                     0.180328
      7 H                     0.185949
      8 C                    -0.370259
      9 H                     0.140956
     10 H                     0.137450
     11 H                     0.176057
     12 H                     0.203297
  ----------------------------------------
  Sum of atomic charges =     0.000000

                    Cartesian Multipole Moments
 -----------------------------------------------------------------
    Charge (ESU x 10^10)
                -0.0000
    Dipole Moment (Debye)
         X      -0.6566      Y      -0.9168      Z      -1.2108
       Tot       1.6546
    Quadrupole Moments (Debye-Ang)
        XX     -48.1739     XY       2.2943     YY     -35.9245
        XZ       0.0845     YZ       0.8046     ZZ     -41.7649

 Total job time:  11.40s(wall), 597.87s(cpu)
        *  Thank you very much for using Q-Chem.  Have a nice day.  *
