 Q-Chem 5.4, Q-Chem, Inc., Pleasanton, CA (2021)
 Q-Chem 5.4.0 for Intel X86 EM64T Linux

User input:
--------------------------------------------------------------
$molecule
0 1
C	-0.336883	-0.278098	-0.218722
S	0.172817	0.329602	1.361778
C	1.225517	1.584202	0.686178
C	0.304517	0.486502	-1.204122
C	1.153017	1.497902	-0.712222
H	0.153017	0.306002	-2.278622
H	1.719217	2.172802	-1.371322
C	-0.336883	-1.756298	-0.218722
H	0.490117	-1.756898	0.475878
H	-0.971083	-2.195598	0.537078
H	0.185617	-2.467298	-0.841622
H	1.791517	2.258902	1.337278
$end

$rem
JOBTYPE		SP
EXCHANGE	HF
CORRELATION	pRIMP2
BASIS		cc-pvtz
METHOD		rimp2
AUX_BASIS	rimp2-cc-pvtz
SOLVENT_METHOD	PCM
PURECART	11111
SYMMETRY	false
MEM_TOTAL	110000
SCF_CONVERGENCE = 6
THRESH=10
GUI = 2
$end

$solvent
dielectric 4.90
$end
--------------------------------------------------------------

             Standard Nuclear Orientation (Angstroms)
    I     Atom           X                Y                Z
 ----------------------------------------------------------------
    1      C      -0.3368830000    -0.2780980000    -0.2187220000
    2      S       0.1728170000     0.3296020000     1.3617780000
    3      C       1.2255170000     1.5842020000     0.6861780000
    4      C       0.3045170000     0.4865020000    -1.2041220000
    5      C       1.1530170000     1.4979020000    -0.7122220000
    6      H       0.1530170000     0.3060020000    -2.2786220000
    7      H       1.7192170000     2.1728020000    -1.3713220000
    8      C      -0.3368830000    -1.7562980000    -0.2187220000
    9      H       0.4901170000    -1.7568980000     0.4758780000
   10      H      -0.9710830000    -2.1955980000     0.5370780000
   11      H       0.1856170000    -2.4672980000    -0.8416220000
   12      H       1.7915170000     2.2589020000     1.3372780000
 ----------------------------------------------------------------

   10    -590.3387414900      6.80e-07  Convergence criterion met
 Total energy in the final basis set =     -590.3387414900
        RIMP2         total energy =      -591.3457649488 a.u.

                    Orbital Energies (a.u.)
 --------------------------------------------------------------

 Alpha MOs
 -- Occupied --
-91.9743 -11.2768 -11.2761 -11.2438 -11.2423 -11.2198  -8.9753  -6.6561
 -6.6555  -6.6550  -1.1638  -1.0393  -0.9751  -0.9119  -0.7608  -0.7230
 -0.6719  -0.5929  -0.5707  -0.5642  -0.5313  -0.4994  -0.4644  -0.4504
 -0.3461  -0.3004

          Ground-State Mulliken Net Atomic Charges

     Atom                 Charge (a.u.)
  ----------------------------------------
      1 C                    -0.013720
      2 S                    -0.007277
      3 C                    -0.208794
      4 C                    -0.205641
      5 C                    -0.198475
      6 H                     0.183562
      7 H                     0.187352
      8 C                    -0.364963
      9 H                     0.137372
     10 H                     0.123135
     11 H                     0.161941
     12 H                     0.205508
  ----------------------------------------
  Sum of atomic charges =     0.000000

                    Cartesian Multipole Moments
 -----------------------------------------------------------------
    Charge (ESU x 10^10)
                 0.0000
    Dipole Moment (Debye)
         X       1.6640      Y      -0.2897      Z      -0.7343
       Tot       1.8417
    Quadrupole Moments (Debye-Ang)
        XX     -44.7213     XY       3.4725     YY     -40.2006
        XZ      -0.0477     YZ       0.0506     ZZ     -41.8099

 Total job time:  11.56s(wall), 597.94s(cpu)
        *  Thank you very much for using Q-Chem.  Have a nice day.  *
