 Q-Chem 5.4, Q-Chem, Inc., Pleasanton, CA (2021)
 Q-Chem 5.4.0 for Intel X86 EM64T Linux

User input:
--------------------------------------------------------------
$molecule
0 1
C	-0.129860	-0.381707	-0.218146
S	0.075240	0.384493	1.362354
C	0.499040	1.966393	0.686754
C	0.128240	0.582293	-1.203546
C	0.469840	1.857593	-0.711646
H	0.067340	0.354693	-2.278046
H	0.697840	2.708493	-1.370746
C	-0.129860	-1.859907	-0.218146
H	-0.824460	-1.860507	0.608854
H	-0.885660	-2.299207	-0.852346
H	0.493040	-2.570907	0.304354
H	0.726940	2.817093	1.337854
$end

$rem
JOBTYPE		SP
EXCHANGE	HF
CORRELATION	pRIMP2
BASIS		cc-pvtz
METHOD		rimp2
AUX_BASIS	rimp2-cc-pvtz
SOLVENT_METHOD	PCM
PURECART	11111
SYMMETRY	false
MEM_TOTAL	110000
SCF_CONVERGENCE = 6
THRESH=10
GUI = 2
$end

$solvent
dielectric 4.90
$end
--------------------------------------------------------------

             Standard Nuclear Orientation (Angstroms)
    I     Atom           X                Y                Z
 ----------------------------------------------------------------
    1      C      -0.1298600000    -0.3817070000    -0.2181460000
    2      S       0.0752400000     0.3844930000     1.3623540000
    3      C       0.4990400000     1.9663930000     0.6867540000
    4      C       0.1282400000     0.5822930000    -1.2035460000
    5      C       0.4698400000     1.8575930000    -0.7116460000
    6      H       0.0673400000     0.3546930000    -2.2780460000
    7      H       0.6978400000     2.7084930000    -1.3707460000
    8      C      -0.1298600000    -1.8599070000    -0.2181460000
    9      H      -0.8244600000    -1.8605070000     0.6088540000
   10      H      -0.8856600000    -2.2992070000    -0.8523460000
   11      H       0.4930400000    -2.5709070000     0.3043540000
   12      H       0.7269400000     2.8170930000     1.3378540000
 ----------------------------------------------------------------

   10    -590.3669608987      6.10e-07  Convergence criterion met
 Total energy in the final basis set =     -590.3669608987
        RIMP2         total energy =      -591.3694549783 a.u.

                    Orbital Energies (a.u.)
 --------------------------------------------------------------

 Alpha MOs
 -- Occupied --
-91.9790 -11.2829 -11.2696 -11.2432 -11.2369 -11.2236  -8.9790  -6.6598
 -6.6593  -6.6588  -1.1579  -1.0391  -0.9729  -0.9188  -0.7579  -0.7208
 -0.6712  -0.5971  -0.5674  -0.5612  -0.5414  -0.4908  -0.4672  -0.4529
 -0.3464  -0.3069

          Ground-State Mulliken Net Atomic Charges

     Atom                 Charge (a.u.)
  ----------------------------------------
      1 C                    -0.001664
      2 S                    -0.005392
      3 C                    -0.226644
      4 C                    -0.208026
      5 C                    -0.195468
      6 H                     0.184334
      7 H                     0.185911
      8 C                    -0.343648
      9 H                     0.117612
     10 H                     0.130503
     11 H                     0.157203
     12 H                     0.205279
  ----------------------------------------
  Sum of atomic charges =     0.000000

                    Cartesian Multipole Moments
 -----------------------------------------------------------------
    Charge (ESU x 10^10)
                -0.0000
    Dipole Moment (Debye)
         X      -0.0681      Y      -0.2831      Z      -0.5979
       Tot       0.6650
    Quadrupole Moments (Debye-Ang)
        XX     -47.1224     XY       3.0313     YY     -36.6379
        XZ       0.5982     YZ      -0.2691     ZZ     -42.1361

 Total job time:  10.46s(wall), 549.28s(cpu)
        *  Thank you very much for using Q-Chem.  Have a nice day.  *
