 Q-Chem 5.4, Q-Chem, Inc., Pleasanton, CA (2021)
 Q-Chem 5.4.0 for Intel X86 EM64T Linux

User input:
--------------------------------------------------------------
$molecule
0 1
C	-0.454270	-0.140188	-0.216317
S	0.232530	0.256612	1.364183
C	1.650830	1.075412	0.688583
C	0.409930	0.358912	-1.201717
C	1.553230	1.019112	-0.709817
H	0.205830	0.241112	-2.276217
H	2.316130	1.459712	-1.368917
C	-0.454270	-1.618388	-0.216317
H	0.609230	-1.618988	-0.028217
H	-0.625670	-2.057688	0.755283
H	-0.313270	-2.329388	-1.017017
H	2.413430	1.515912	1.339683
$end

$rem
JOBTYPE		SP
EXCHANGE	HF
CORRELATION	pRIMP2
BASIS		cc-pvtz
METHOD		rimp2
AUX_BASIS	rimp2-cc-pvtz
SOLVENT_METHOD	PCM
PURECART	11111
SYMMETRY	false
MEM_TOTAL	110000
SCF_CONVERGENCE = 6
THRESH=10
GUI = 2
$end

$solvent
dielectric 4.90
$end
--------------------------------------------------------------

             Standard Nuclear Orientation (Angstroms)
    I     Atom           X                Y                Z
 ----------------------------------------------------------------
    1      C      -0.4542700000    -0.1401880000    -0.2163170000
    2      S       0.2325300000     0.2566120000     1.3641830000
    3      C       1.6508300000     1.0754120000     0.6885830000
    4      C       0.4099300000     0.3589120000    -1.2017170000
    5      C       1.5532300000     1.0191120000    -0.7098170000
    6      H       0.2058300000     0.2411120000    -2.2762170000
    7      H       2.3161300000     1.4597120000    -1.3689170000
    8      C      -0.4542700000    -1.6183880000    -0.2163170000
    9      H       0.6092300000    -1.6189880000    -0.0282170000
   10      H      -0.6256700000    -2.0576880000     0.7552830000
   11      H      -0.3132700000    -2.3293880000    -1.0170170000
   12      H       2.4134300000     1.5159120000     1.3396830000
 ----------------------------------------------------------------

   11    -590.3027873929      5.76e-07  Convergence criterion met
 Total energy in the final basis set =     -590.3027873929
        RIMP2         total energy =      -591.3172288863 a.u.

                    Orbital Energies (a.u.)
 --------------------------------------------------------------

 Alpha MOs
 -- Occupied --
-91.9759 -11.2911 -11.2625 -11.2510 -11.2468 -11.2201  -8.9769  -6.6577
 -6.6569  -6.6566  -1.1744  -1.0406  -0.9803  -0.9048  -0.7661  -0.7288
 -0.6750  -0.5950  -0.5724  -0.5671  -0.5278  -0.4987  -0.4644  -0.4440
 -0.3470  -0.2977

          Ground-State Mulliken Net Atomic Charges

     Atom                 Charge (a.u.)
  ----------------------------------------
      1 C                    -0.097734
      2 S                     0.009876
      3 C                    -0.171392
      4 C                    -0.110259
      5 C                    -0.234052
      6 H                     0.185138
      7 H                     0.187301
      8 C                    -0.348117
      9 H                     0.109782
     10 H                     0.116461
     11 H                     0.144017
     12 H                     0.208979
  ----------------------------------------
  Sum of atomic charges =     0.000000

                    Cartesian Multipole Moments
 -----------------------------------------------------------------
    Charge (ESU x 10^10)
                 0.0000
    Dipole Moment (Debye)
         X       2.6712      Y      -0.2782      Z      -1.0300
       Tot       2.8763
    Quadrupole Moments (Debye-Ang)
        XX     -42.1981     XY       3.8214     YY     -43.6457
        XZ       0.4979     YZ       0.6848     ZZ     -40.9353

 Total job time:  19.16s(wall), 651.66s(cpu)
        *  Thank you very much for using Q-Chem.  Have a nice day.  *
