 Q-Chem 5.4, Q-Chem, Inc., Pleasanton, CA (2021)
 Q-Chem 5.4.0 for Intel X86 EM64T Linux

User input:
--------------------------------------------------------------
$molecule
0 1
C	-0.133053	-0.381707	-0.208958
S	0.072047	0.384493	1.371542
C	0.495847	1.966393	0.695942
C	0.125047	0.582293	-1.194358
C	0.466647	1.857593	-0.702458
H	0.064147	0.354693	-2.268858
H	0.694647	2.708493	-1.361558
C	-0.133053	-1.859907	-0.208958
H	-0.501953	-1.860507	-1.223958
H	0.794047	-2.299207	-0.546358
H	-0.896953	-2.570907	0.069242
H	0.723747	2.817093	1.347042
$end

$rem
JOBTYPE		SP
EXCHANGE	HF
CORRELATION	pRIMP2
BASIS		cc-pvtz
METHOD		rimp2
AUX_BASIS	rimp2-cc-pvtz
SOLVENT_METHOD	PCM
PURECART	11111
SYMMETRY	false
MEM_TOTAL	110000
SCF_CONVERGENCE = 6
THRESH=10
GUI = 2
$end

$solvent
dielectric 4.90
$end
--------------------------------------------------------------

             Standard Nuclear Orientation (Angstroms)
    I     Atom           X                Y                Z
 ----------------------------------------------------------------
    1      C      -0.1330530000    -0.3817070000    -0.2089580000
    2      S       0.0720470000     0.3844930000     1.3715420000
    3      C       0.4958470000     1.9663930000     0.6959420000
    4      C       0.1250470000     0.5822930000    -1.1943580000
    5      C       0.4666470000     1.8575930000    -0.7024580000
    6      H       0.0641470000     0.3546930000    -2.2688580000
    7      H       0.6946470000     2.7084930000    -1.3615580000
    8      C      -0.1330530000    -1.8599070000    -0.2089580000
    9      H      -0.5019530000    -1.8605070000    -1.2239580000
   10      H       0.7940470000    -2.2992070000    -0.5463580000
   11      H      -0.8969530000    -2.5709070000     0.0692420000
   12      H       0.7237470000     2.8170930000     1.3470420000
 ----------------------------------------------------------------

   10    -590.3696875045      6.05e-07  Convergence criterion met
 Total energy in the final basis set =     -590.3696875045
        RIMP2         total energy =      -591.3726971641 a.u.

                    Orbital Energies (a.u.)
 --------------------------------------------------------------

 Alpha MOs
 -- Occupied --
-91.9745 -11.2847 -11.2688 -11.2432 -11.2411 -11.2235  -8.9746  -6.6555
 -6.6549  -6.6544  -1.1573  -1.0380  -0.9727  -0.9188  -0.7544  -0.7241
 -0.6721  -0.5975  -0.5697  -0.5605  -0.5397  -0.5005  -0.4668  -0.4372
 -0.3449  -0.3104

          Ground-State Mulliken Net Atomic Charges

     Atom                 Charge (a.u.)
  ----------------------------------------
      1 C                     0.026428
      2 S                    -0.006466
      3 C                    -0.227751
      4 C                    -0.226008
      5 C                    -0.196155
      6 H                     0.182895
      7 H                     0.186482
      8 C                    -0.359895
      9 H                     0.119191
     10 H                     0.131205
     11 H                     0.166424
     12 H                     0.203649
  ----------------------------------------
  Sum of atomic charges =     0.000000

                    Cartesian Multipole Moments
 -----------------------------------------------------------------
    Charge (ESU x 10^10)
                -0.0000
    Dipole Moment (Debye)
         X       0.1294      Y      -0.3769      Z      -1.7608
       Tot       1.8053
    Quadrupole Moments (Debye-Ang)
        XX     -46.9012     XY       2.9789     YY     -36.6360
        XZ       0.0050     YZ       1.9365     ZZ     -42.0604

 Total job time:  10.40s(wall), 547.59s(cpu)
        *  Thank you very much for using Q-Chem.  Have a nice day.  *
