 Q-Chem 5.4, Q-Chem, Inc., Pleasanton, CA (2021)
 Q-Chem 5.4.0 for Intel X86 EM64T Linux

User input:
--------------------------------------------------------------
$molecule
0 1
C	-0.129754	-0.381707	-0.210927
S	0.075346	0.384493	1.369573
C	0.499146	1.966393	0.693973
C	0.128346	0.582293	-1.196327
C	0.469946	1.857593	-0.704427
H	0.067446	0.354693	-2.270827
H	0.697946	2.708493	-1.363527
C	-0.129754	-1.859907	-0.210927
H	-1.064754	-1.860507	-0.751427
H	0.363546	-2.299207	-1.065327
H	-0.536154	-2.570907	0.493173
H	0.727046	2.817093	1.345073
$end

$rem
JOBTYPE		SP
EXCHANGE	HF
CORRELATION	pRIMP2
BASIS		cc-pvtz
METHOD		rimp2
AUX_BASIS	rimp2-cc-pvtz
SOLVENT_METHOD	PCM
PURECART	11111
SYMMETRY	false
MEM_TOTAL	110000
SCF_CONVERGENCE = 6
THRESH=10
GUI = 2
$end

$solvent
dielectric 4.90
$end
--------------------------------------------------------------

             Standard Nuclear Orientation (Angstroms)
    I     Atom           X                Y                Z
 ----------------------------------------------------------------
    1      C      -0.1297540000    -0.3817070000    -0.2109270000
    2      S       0.0753460000     0.3844930000     1.3695730000
    3      C       0.4991460000     1.9663930000     0.6939730000
    4      C       0.1283460000     0.5822930000    -1.1963270000
    5      C       0.4699460000     1.8575930000    -0.7044270000
    6      H       0.0674460000     0.3546930000    -2.2708270000
    7      H       0.6979460000     2.7084930000    -1.3635270000
    8      C      -0.1297540000    -1.8599070000    -0.2109270000
    9      H      -1.0647540000    -1.8605070000    -0.7514270000
   10      H       0.3635460000    -2.2992070000    -1.0653270000
   11      H      -0.5361540000    -2.5709070000     0.4931730000
   12      H       0.7270460000     2.8170930000     1.3450730000
 ----------------------------------------------------------------

   10    -590.3668632049      6.27e-07  Convergence criterion met
 Total energy in the final basis set =     -590.3668632049
        RIMP2         total energy =      -591.3693996550 a.u.

                    Orbital Energies (a.u.)
 --------------------------------------------------------------

 Alpha MOs
 -- Occupied --
-91.9761 -11.2890 -11.2637 -11.2431 -11.2354 -11.2255  -8.9761  -6.6570
 -6.6564  -6.6559  -1.1567  -1.0392  -0.9714  -0.9195  -0.7539  -0.7226
 -0.6707  -0.5980  -0.5631  -0.5596  -0.5468  -0.4991  -0.4670  -0.4487
 -0.3454  -0.2997

          Ground-State Mulliken Net Atomic Charges

     Atom                 Charge (a.u.)
  ----------------------------------------
      1 C                     0.035172
      2 S                    -0.000122
      3 C                    -0.246571
      4 C                    -0.251130
      5 C                    -0.180453
      6 H                     0.179764
      7 H                     0.186570
      8 C                    -0.371822
      9 H                     0.134079
     10 H                     0.138378
     11 H                     0.173759
     12 H                     0.202377
  ----------------------------------------
  Sum of atomic charges =     0.000000

                    Cartesian Multipole Moments
 -----------------------------------------------------------------
    Charge (ESU x 10^10)
                -0.0000
    Dipole Moment (Debye)
         X      -0.3507      Y      -0.7421      Z      -1.4635
       Tot       1.6779
    Quadrupole Moments (Debye-Ang)
        XX     -47.3663     XY       3.6489     YY     -36.6178
        XZ      -0.0495     YZ       1.2441     ZZ     -41.7560

 Total job time:  9.83s(wall), 530.78s(cpu)
        *  Thank you very much for using Q-Chem.  Have a nice day.  *
