 Q-Chem 5.4, Q-Chem, Inc., Pleasanton, CA (2021)
 Q-Chem 5.4.0 for Intel X86 EM64T Linux

User input:
--------------------------------------------------------------
$molecule
0 1
C	-0.336757	-0.278098	-0.210119
S	0.172943	0.329602	1.370381
C	1.225643	1.584202	0.694781
C	0.304643	0.486502	-1.195519
C	1.153143	1.497902	-0.703619
H	0.153143	0.306002	-2.270019
H	1.719343	2.172802	-1.362719
C	-0.336757	-1.756298	-0.210119
H	0.203743	-1.756898	-1.145119
H	0.517643	-2.195598	0.283181
H	-1.040857	-2.467298	-0.616519
H	1.791643	2.258902	1.345881
$end

$rem
JOBTYPE		SP
EXCHANGE	HF
CORRELATION	pRIMP2
BASIS		cc-pvtz
METHOD		rimp2
AUX_BASIS	rimp2-cc-pvtz
SOLVENT_METHOD	PCM
PURECART	11111
SYMMETRY	false
MEM_TOTAL	110000
SCF_CONVERGENCE = 6
THRESH=10
GUI = 2
$end

$solvent
dielectric 4.90
$end
--------------------------------------------------------------

             Standard Nuclear Orientation (Angstroms)
    I     Atom           X                Y                Z
 ----------------------------------------------------------------
    1      C      -0.3367570000    -0.2780980000    -0.2101190000
    2      S       0.1729430000     0.3296020000     1.3703810000
    3      C       1.2256430000     1.5842020000     0.6947810000
    4      C       0.3046430000     0.4865020000    -1.1955190000
    5      C       1.1531430000     1.4979020000    -0.7036190000
    6      H       0.1531430000     0.3060020000    -2.2700190000
    7      H       1.7193430000     2.1728020000    -1.3627190000
    8      C      -0.3367570000    -1.7562980000    -0.2101190000
    9      H       0.2037430000    -1.7568980000    -1.1451190000
   10      H       0.5176430000    -2.1955980000     0.2831810000
   11      H      -1.0408570000    -2.4672980000    -0.6165190000
   12      H       1.7916430000     2.2589020000     1.3458810000
 ----------------------------------------------------------------

   10    -590.3411924006      8.66e-07  Convergence criterion met
 Total energy in the final basis set =     -590.3411924006
        RIMP2         total energy =      -591.3499148924 a.u.

                    Orbital Energies (a.u.)
 --------------------------------------------------------------

 Alpha MOs
 -- Occupied --
-91.9764 -11.2756 -11.2745 -11.2442 -11.2430 -11.2184  -8.9766  -6.6574
 -6.6567  -6.6563  -1.1624  -1.0372  -0.9753  -0.9118  -0.7577  -0.7259
 -0.6713  -0.5962  -0.5712  -0.5545  -0.5442  -0.4847  -0.4695  -0.4426
 -0.3424  -0.3072

          Ground-State Mulliken Net Atomic Charges

     Atom                 Charge (a.u.)
  ----------------------------------------
      1 C                    -0.021501
      2 S                     0.002929
      3 C                    -0.207407
      4 C                    -0.182885
      5 C                    -0.209062
      6 H                     0.180098
      7 H                     0.187442
      8 C                    -0.362754
      9 H                     0.129602
     10 H                     0.137747
     11 H                     0.141501
     12 H                     0.204291
  ----------------------------------------
  Sum of atomic charges =     0.000000

                    Cartesian Multipole Moments
 -----------------------------------------------------------------
    Charge (ESU x 10^10)
                 0.0000
    Dipole Moment (Debye)
         X       1.4940      Y      -0.2275      Z      -1.6634
       Tot       2.2474
    Quadrupole Moments (Debye-Ang)
        XX     -44.4222     XY       3.9759     YY     -40.4193
        XZ       0.8571     YZ       1.8169     ZZ     -41.5071

 Total job time:  11.10s(wall), 595.63s(cpu)
        *  Thank you very much for using Q-Chem.  Have a nice day.  *
