 Q-Chem 5.4, Q-Chem, Inc., Pleasanton, CA (2021)
 Q-Chem 5.4.0 for Intel X86 EM64T Linux

User input:
--------------------------------------------------------------
$molecule
0 1
C	-0.260216	-0.329934	-0.219989
S	0.136184	0.357066	1.360511
C	0.954984	1.775366	0.684911
C	0.238584	0.534466	-1.205389
C	0.898684	1.677866	-0.713489
H	0.120784	0.330366	-2.279889
H	1.339084	2.440766	-1.372589
C	-0.260216	-1.808134	-0.219989
H	0.108684	-1.808734	0.795011
H	-1.187316	-2.247434	0.117411
H	0.503684	-2.519134	-0.498189
H	1.395284	2.538166	1.336011
$end

$rem
JOBTYPE		SP
EXCHANGE	HF
CORRELATION	pRIMP2
BASIS		cc-pvtz
METHOD		rimp2
AUX_BASIS	rimp2-cc-pvtz
SOLVENT_METHOD	PCM
PURECART	11111
SYMMETRY	false
MEM_TOTAL	110000
SCF_CONVERGENCE = 6
THRESH=10
GUI = 2
$end

$solvent
dielectric 4.90
$end
--------------------------------------------------------------

             Standard Nuclear Orientation (Angstroms)
    I     Atom           X                Y                Z
 ----------------------------------------------------------------
    1      C      -0.2602160000    -0.3299340000    -0.2199890000
    2      S       0.1361840000     0.3570660000     1.3605110000
    3      C       0.9549840000     1.7753660000     0.6849110000
    4      C       0.2385840000     0.5344660000    -1.2053890000
    5      C       0.8986840000     1.6778660000    -0.7134890000
    6      H       0.1207840000     0.3303660000    -2.2798890000
    7      H       1.3390840000     2.4407660000    -1.3725890000
    8      C      -0.2602160000    -1.8081340000    -0.2199890000
    9      H       0.1086840000    -1.8087340000     0.7950110000
   10      H      -1.1873160000    -2.2474340000     0.1174110000
   11      H       0.5036840000    -2.5191340000    -0.4981890000
   12      H       1.3952840000     2.5381660000     1.3360110000
 ----------------------------------------------------------------

   10    -590.3495277156      6.59e-07  Convergence criterion met
 Total energy in the final basis set =     -590.3495277156
        RIMP2         total energy =      -591.3552135515 a.u.

                    Orbital Energies (a.u.)
 --------------------------------------------------------------

 Alpha MOs
 -- Occupied --
-91.9775 -11.2756 -11.2748 -11.2431 -11.2412 -11.2188  -8.9780  -6.6588
 -6.6582  -6.6577  -1.1608  -1.0388  -0.9746  -0.9144  -0.7607  -0.7214
 -0.6716  -0.5934  -0.5704  -0.5632  -0.5358  -0.4944  -0.4624  -0.4480
 -0.3444  -0.3093

          Ground-State Mulliken Net Atomic Charges

     Atom                 Charge (a.u.)
  ----------------------------------------
      1 C                    -0.006539
      2 S                    -0.004301
      3 C                    -0.217186
      4 C                    -0.207790
      5 C                    -0.191577
      6 H                     0.184279
      7 H                     0.186439
      8 C                    -0.355701
      9 H                     0.121742
     10 H                     0.122848
     11 H                     0.161705
     12 H                     0.206082
  ----------------------------------------
  Sum of atomic charges =     0.000000

                    Cartesian Multipole Moments
 -----------------------------------------------------------------
    Charge (ESU x 10^10)
                 0.0000
    Dipole Moment (Debye)
         X       1.0782      Y      -0.0751      Z      -0.4877
       Tot       1.1857
    Quadrupole Moments (Debye-Ang)
        XX     -45.5273     XY       3.2567     YY     -38.6935
        XZ      -0.0432     YZ      -0.3647     ZZ     -42.1190

 Total job time:  11.92s(wall), 597.85s(cpu)
        *  Thank you very much for using Q-Chem.  Have a nice day.  *
