 Q-Chem 5.4, Q-Chem, Inc., Pleasanton, CA (2021)
 Q-Chem 5.4.0 for Intel X86 EM64T Linux

User input:
--------------------------------------------------------------
$molecule
0 1
C	-0.085593	-0.391505	-0.210927
S	0.051907	0.389695	1.369573
C	0.336307	2.002495	0.693973
C	0.087507	0.591395	-1.196327
C	0.316707	1.891595	-0.704427
H	0.046607	0.359295	-2.270827
H	0.469607	2.759095	-1.363527
C	-0.085593	-1.869705	-0.210927
H	-1.020593	-1.870305	-0.751427
H	0.407707	-2.309005	-1.065327
H	-0.491993	-2.580705	0.493173
H	0.489107	2.869795	1.345073
$end

$rem
JOBTYPE		SP
EXCHANGE	HF
CORRELATION	pRIMP2
BASIS		cc-pvtz
METHOD		rimp2
AUX_BASIS	rimp2-cc-pvtz
SOLVENT_METHOD	PCM
PURECART	11111
SYMMETRY	false
MEM_TOTAL	110000
SCF_CONVERGENCE = 6
THRESH=10
GUI = 2
$end

$solvent
dielectric 4.90
$end
--------------------------------------------------------------

             Standard Nuclear Orientation (Angstroms)
    I     Atom           X                Y                Z
 ----------------------------------------------------------------
    1      C      -0.0855930000    -0.3915050000    -0.2109270000
    2      S       0.0519070000     0.3896950000     1.3695730000
    3      C       0.3363070000     2.0024950000     0.6939730000
    4      C       0.0875070000     0.5913950000    -1.1963270000
    5      C       0.3167070000     1.8915950000    -0.7044270000
    6      H       0.0466070000     0.3592950000    -2.2708270000
    7      H       0.4696070000     2.7590950000    -1.3635270000
    8      C      -0.0855930000    -1.8697050000    -0.2109270000
    9      H      -1.0205930000    -1.8703050000    -0.7514270000
   10      H       0.4077070000    -2.3090050000    -1.0653270000
   11      H      -0.4919930000    -2.5807050000     0.4931730000
   12      H       0.4891070000     2.8697950000     1.3450730000
 ----------------------------------------------------------------

   10    -590.3698053951      6.25e-07  Convergence criterion met
 Total energy in the final basis set =     -590.3698053951
        RIMP2         total energy =      -591.3715856100 a.u.

                    Orbital Energies (a.u.)
 --------------------------------------------------------------

 Alpha MOs
 -- Occupied --
-91.9765 -11.2904 -11.2627 -11.2431 -11.2346 -11.2263  -8.9764  -6.6573
 -6.6567  -6.6562  -1.1565  -1.0396  -0.9713  -0.9198  -0.7536  -0.7225
 -0.6708  -0.5984  -0.5635  -0.5594  -0.5471  -0.4982  -0.4682  -0.4497
 -0.3455  -0.2999

          Ground-State Mulliken Net Atomic Charges

     Atom                 Charge (a.u.)
  ----------------------------------------
      1 C                     0.040043
      2 S                    -0.001066
      3 C                    -0.249722
      4 C                    -0.251744
      5 C                    -0.181274
      6 H                     0.179876
      7 H                     0.186309
      8 C                    -0.371981
      9 H                     0.135061
     10 H                     0.137043
     11 H                     0.174984
     12 H                     0.202472
  ----------------------------------------
  Sum of atomic charges =     0.000000

                    Cartesian Multipole Moments
 -----------------------------------------------------------------
    Charge (ESU x 10^10)
                 0.0000
    Dipole Moment (Debye)
         X      -0.4568      Y      -0.7906      Z      -1.4594
       Tot       1.7215
    Quadrupole Moments (Debye-Ang)
        XX     -47.7343     XY       2.9497     YY     -36.2443
        XZ      -0.0966     YZ       1.2638     ZZ     -41.7801

 Total job time:  10.82s(wall), 576.78s(cpu)
        *  Thank you very much for using Q-Chem.  Have a nice day.  *
