 Q-Chem 5.4, Q-Chem, Inc., Pleasanton, CA (2021)
 Q-Chem 5.4.0 for Intel X86 EM64T Linux

User input:
--------------------------------------------------------------
$molecule
0 1
C	-0.257163	-0.329934	-0.209225
S	0.139237	0.357066	1.371275
C	0.958037	1.775366	0.695675
C	0.241637	0.534466	-1.194625
C	0.901737	1.677866	-0.702725
H	0.123837	0.330366	-2.269125
H	1.342137	2.440766	-1.361825
C	-0.257163	-1.808134	-0.209225
H	-0.796663	-1.808734	-1.144825
H	0.597337	-2.247434	-0.702525
H	-0.961163	-2.519134	0.197375
H	1.398337	2.538166	1.346775
$end

$rem
JOBTYPE		SP
EXCHANGE	HF
CORRELATION	pRIMP2
BASIS		cc-pvtz
METHOD		rimp2
AUX_BASIS	rimp2-cc-pvtz
SOLVENT_METHOD	PCM
PURECART	11111
SYMMETRY	false
MEM_TOTAL	110000
SCF_CONVERGENCE = 6
THRESH=10
GUI = 2
$end

$solvent
dielectric 4.90
$end
--------------------------------------------------------------

             Standard Nuclear Orientation (Angstroms)
    I     Atom           X                Y                Z
 ----------------------------------------------------------------
    1      C      -0.2571630000    -0.3299340000    -0.2092250000
    2      S       0.1392370000     0.3570660000     1.3712750000
    3      C       0.9580370000     1.7753660000     0.6956750000
    4      C       0.2416370000     0.5344660000    -1.1946250000
    5      C       0.9017370000     1.6778660000    -0.7027250000
    6      H       0.1238370000     0.3303660000    -2.2691250000
    7      H       1.3421370000     2.4407660000    -1.3618250000
    8      C      -0.2571630000    -1.8081340000    -0.2092250000
    9      H      -0.7966630000    -1.8087340000    -1.1448250000
   10      H       0.5973370000    -2.2474340000    -0.7025250000
   11      H      -0.9611630000    -2.5191340000     0.1973750000
   12      H       1.3983370000     2.5381660000     1.3467750000
 ----------------------------------------------------------------

   10    -590.3563078382      7.28e-07  Convergence criterion met
 Total energy in the final basis set =     -590.3563078382
        RIMP2         total energy =      -591.3623701898 a.u.

                    Orbital Energies (a.u.)
 --------------------------------------------------------------

 Alpha MOs
 -- Occupied --
-91.9738 -11.2793 -11.2721 -11.2441 -11.2430 -11.2214  -8.9741  -6.6550
 -6.6543  -6.6539  -1.1588  -1.0372  -0.9733  -0.9169  -0.7554  -0.7244
 -0.6713  -0.5962  -0.5693  -0.5599  -0.5400  -0.5000  -0.4653  -0.4354
 -0.3447  -0.3077

          Ground-State Mulliken Net Atomic Charges

     Atom                 Charge (a.u.)
  ----------------------------------------
      1 C                     0.002614
      2 S                    -0.002544
      3 C                    -0.215549
      4 C                    -0.214432
      5 C                    -0.197283
      6 H                     0.182003
      7 H                     0.186739
      8 C                    -0.365552
      9 H                     0.118841
     10 H                     0.138651
     11 H                     0.163166
     12 H                     0.203347
  ----------------------------------------
  Sum of atomic charges =     0.000000

                    Cartesian Multipole Moments
 -----------------------------------------------------------------
    Charge (ESU x 10^10)
                -0.0000
    Dipole Moment (Debye)
         X       0.4498      Y      -0.3005      Z      -1.7186
       Tot       1.8017
    Quadrupole Moments (Debye-Ang)
        XX     -45.3249     XY       4.8765     YY     -38.4697
        XZ       0.1264     YZ       1.6889     ZZ     -41.8789

 Total job time:  11.62s(wall), 590.86s(cpu)
        *  Thank you very much for using Q-Chem.  Have a nice day.  *
