 Q-Chem 5.4, Q-Chem, Inc., Pleasanton, CA (2021)
 Q-Chem 5.4.0 for Intel X86 EM64T Linux

User input:
--------------------------------------------------------------
$molecule
0 1
C	-0.136987	-0.381707	-0.219296
S	0.068113	0.384493	1.361204
C	0.491913	1.966393	0.685604
C	0.121113	0.582293	-1.204696
C	0.462713	1.857593	-0.712796
H	0.060213	0.354693	-2.279196
H	0.690713	2.708493	-1.371896
C	-0.136987	-1.859907	-0.219296
H	0.556813	-1.860507	0.608404
H	-0.892787	-2.299207	0.414904
H	0.485713	-2.570907	-0.741996
H	0.719813	2.817093	1.336704
$end

$rem
JOBTYPE		SP
EXCHANGE	HF
CORRELATION	pRIMP2
BASIS		cc-pvtz
METHOD		rimp2
AUX_BASIS	rimp2-cc-pvtz
SOLVENT_METHOD	PCM
PURECART	11111
SYMMETRY	false
MEM_TOTAL	110000
SCF_CONVERGENCE = 6
THRESH=10
GUI = 2
$end

$solvent
dielectric 4.90
$end
--------------------------------------------------------------

             Standard Nuclear Orientation (Angstroms)
    I     Atom           X                Y                Z
 ----------------------------------------------------------------
    1      C      -0.1369870000    -0.3817070000    -0.2192960000
    2      S       0.0681130000     0.3844930000     1.3612040000
    3      C       0.4919130000     1.9663930000     0.6856040000
    4      C       0.1211130000     0.5822930000    -1.2046960000
    5      C       0.4627130000     1.8575930000    -0.7127960000
    6      H       0.0602130000     0.3546930000    -2.2791960000
    7      H       0.6907130000     2.7084930000    -1.3718960000
    8      C      -0.1369870000    -1.8599070000    -0.2192960000
    9      H       0.5568130000    -1.8605070000     0.6084040000
   10      H      -0.8927870000    -2.2992070000     0.4149040000
   11      H       0.4857130000    -2.5709070000    -0.7419960000
   12      H       0.7198130000     2.8170930000     1.3367040000
 ----------------------------------------------------------------

   10    -590.3673347213      6.10e-07  Convergence criterion met
 Total energy in the final basis set =     -590.3673347213
        RIMP2         total energy =      -591.3688027172 a.u.

                    Orbital Energies (a.u.)
 --------------------------------------------------------------

 Alpha MOs
 -- Occupied --
-91.9782 -11.2853 -11.2685 -11.2427 -11.2353 -11.2241  -8.9784  -6.6593
 -6.6588  -6.6582  -1.1586  -1.0402  -0.9726  -0.9177  -0.7577  -0.7209
 -0.6718  -0.5961  -0.5680  -0.5632  -0.5333  -0.5013  -0.4665  -0.4540
 -0.3465  -0.3048

          Ground-State Mulliken Net Atomic Charges

     Atom                 Charge (a.u.)
  ----------------------------------------
      1 C                     0.023663
      2 S                    -0.004176
      3 C                    -0.234825
      4 C                    -0.240099
      5 C                    -0.183619
      6 H                     0.184626
      7 H                     0.186137
      8 C                    -0.357448
      9 H                     0.125573
     10 H                     0.133008
     11 H                     0.161879
     12 H                     0.205281
  ----------------------------------------
  Sum of atomic charges =     0.000000

                    Cartesian Multipole Moments
 -----------------------------------------------------------------
    Charge (ESU x 10^10)
                -0.0000
    Dipole Moment (Debye)
         X       0.7771      Y      -0.4160      Z      -0.5584
       Tot       1.0434
    Quadrupole Moments (Debye-Ang)
        XX     -47.3344     XY       1.1942     YY     -36.6547
        XZ      -0.3374     YZ      -0.0506     ZZ     -42.1843

 Total job time:  10.39s(wall), 546.77s(cpu)
        *  Thank you very much for using Q-Chem.  Have a nice day.  *
