 Q-Chem 5.4, Q-Chem, Inc., Pleasanton, CA (2021)
 Q-Chem 5.4.0 for Intel X86 EM64T Linux

User input:
--------------------------------------------------------------
$molecule
0 1
C	-0.131372	-0.381707	-0.219377
S	0.073728	0.384493	1.361123
C	0.497528	1.966393	0.685523
C	0.126728	0.582293	-1.204777
C	0.468328	1.857593	-0.712877
H	0.065828	0.354693	-2.279277
H	0.696328	2.708493	-1.371977
C	-0.131372	-1.859907	-0.219377
H	-0.501272	-1.860507	0.795323
H	-1.058472	-2.299207	-0.556877
H	0.632628	-2.570907	0.058523
H	0.725428	2.817093	1.336623
$end

$rem
JOBTYPE		SP
EXCHANGE	HF
CORRELATION	pRIMP2
BASIS		cc-pvtz
METHOD		rimp2
AUX_BASIS	rimp2-cc-pvtz
SOLVENT_METHOD	PCM
PURECART	11111
SYMMETRY	false
MEM_TOTAL	110000
SCF_CONVERGENCE = 6
THRESH=10
GUI = 2
$end

$solvent
dielectric 4.90
$end
--------------------------------------------------------------

             Standard Nuclear Orientation (Angstroms)
    I     Atom           X                Y                Z
 ----------------------------------------------------------------
    1      C      -0.1313720000    -0.3817070000    -0.2193770000
    2      S       0.0737280000     0.3844930000     1.3611230000
    3      C       0.4975280000     1.9663930000     0.6855230000
    4      C       0.1267280000     0.5822930000    -1.2047770000
    5      C       0.4683280000     1.8575930000    -0.7128770000
    6      H       0.0658280000     0.3546930000    -2.2792770000
    7      H       0.6963280000     2.7084930000    -1.3719770000
    8      C      -0.1313720000    -1.8599070000    -0.2193770000
    9      H      -0.5012720000    -1.8605070000     0.7953230000
   10      H      -1.0584720000    -2.2992070000    -0.5568770000
   11      H       0.6326280000    -2.5709070000     0.0585230000
   12      H       0.7254280000     2.8170930000     1.3366230000
 ----------------------------------------------------------------

   10    -590.3660668673      6.21e-07  Convergence criterion met
 Total energy in the final basis set =     -590.3660668673
        RIMP2         total energy =      -591.3691164389 a.u.

                    Orbital Energies (a.u.)
 --------------------------------------------------------------

 Alpha MOs
 -- Occupied --
-91.9802 -11.2806 -11.2710 -11.2433 -11.2377 -11.2227  -8.9801  -6.6609
 -6.6604  -6.6598  -1.1583  -1.0391  -0.9735  -0.9181  -0.7590  -0.7206
 -0.6716  -0.5964  -0.5688  -0.5621  -0.5390  -0.4938  -0.4634  -0.4498
 -0.3464  -0.3112

          Ground-State Mulliken Net Atomic Charges

     Atom                 Charge (a.u.)
  ----------------------------------------
      1 C                     0.007295
      2 S                    -0.002864
      3 C                    -0.229313
      4 C                    -0.212494
      5 C                    -0.191232
      6 H                     0.184524
      7 H                     0.186309
      8 C                    -0.338329
      9 H                     0.110217
     10 H                     0.128953
     11 H                     0.150887
     12 H                     0.206047
  ----------------------------------------
  Sum of atomic charges =     0.000000

                    Cartesian Multipole Moments
 -----------------------------------------------------------------
    Charge (ESU x 10^10)
                -0.0000
    Dipole Moment (Debye)
         X       0.1587      Y      -0.1359      Z      -0.4939
       Tot       0.5363
    Quadrupole Moments (Debye-Ang)
        XX     -46.9148     XY       2.5688     YY     -36.7193
        XZ       0.4119     YZ      -0.3818     ZZ     -42.2921

 Total job time:  10.15s(wall), 533.88s(cpu)
        *  Thank you very much for using Q-Chem.  Have a nice day.  *
