 Q-Chem 5.4, Q-Chem, Inc., Pleasanton, CA (2021)
 Q-Chem 5.4.0 for Intel X86 EM64T Linux

User input:
--------------------------------------------------------------
$molecule
0 1
C	-0.133215	-0.381707	-0.220018
S	0.071885	0.384493	1.360482
C	0.495685	1.966393	0.684882
C	0.124885	0.582293	-1.205418
C	0.466485	1.857593	-0.713518
H	0.063985	0.354693	-2.279918
H	0.694485	2.708493	-1.372618
C	-0.133215	-1.859907	-0.220018
H	-0.133715	-1.860507	0.859982
H	-1.119815	-2.299207	-0.220018
H	0.679785	-2.570907	-0.220118
H	0.723585	2.817093	1.335982
$end

$rem
JOBTYPE		SP
EXCHANGE	HF
CORRELATION	pRIMP2
BASIS		cc-pvtz
METHOD		rimp2
AUX_BASIS	rimp2-cc-pvtz
SOLVENT_METHOD	PCM
PURECART	11111
SYMMETRY	false
MEM_TOTAL	110000
SCF_CONVERGENCE = 6
THRESH=10
GUI = 2
$end

$solvent
dielectric 4.90
$end
--------------------------------------------------------------

             Standard Nuclear Orientation (Angstroms)
    I     Atom           X                Y                Z
 ----------------------------------------------------------------
    1      C      -0.1332150000    -0.3817070000    -0.2200180000
    2      S       0.0718850000     0.3844930000     1.3604820000
    3      C       0.4956850000     1.9663930000     0.6848820000
    4      C       0.1248850000     0.5822930000    -1.2054180000
    5      C       0.4664850000     1.8575930000    -0.7135180000
    6      H       0.0639850000     0.3546930000    -2.2799180000
    7      H       0.6944850000     2.7084930000    -1.3726180000
    8      C      -0.1332150000    -1.8599070000    -0.2200180000
    9      H      -0.1337150000    -1.8605070000     0.8599820000
   10      H      -1.1198150000    -2.2992070000    -0.2200180000
   11      H       0.6797850000    -2.5709070000    -0.2201180000
   12      H       0.7235850000     2.8170930000     1.3359820000
 ----------------------------------------------------------------

   10    -590.3650590027      6.14e-07  Convergence criterion met
 Total energy in the final basis set =     -590.3650590027
        RIMP2         total energy =      -591.3682269579 a.u.

                    Orbital Energies (a.u.)
 --------------------------------------------------------------

 Alpha MOs
 -- Occupied --
-91.9804 -11.2801 -11.2711 -11.2431 -11.2377 -11.2223  -8.9804  -6.6612
 -6.6607  -6.6601  -1.1585  -1.0393  -0.9736  -0.9175  -0.7595  -0.7205
 -0.6718  -0.5960  -0.5695  -0.5626  -0.5367  -0.4970  -0.4625  -0.4481
 -0.3462  -0.3125

          Ground-State Mulliken Net Atomic Charges

     Atom                 Charge (a.u.)
  ----------------------------------------
      1 C                     0.014693
      2 S                    -0.004712
      3 C                    -0.231452
      4 C                    -0.214743
      5 C                    -0.188702
      6 H                     0.184837
      7 H                     0.186123
      8 C                    -0.341399
      9 H                     0.111102
     10 H                     0.126132
     11 H                     0.151508
     12 H                     0.206614
  ----------------------------------------
  Sum of atomic charges =     0.000000

                    Cartesian Multipole Moments
 -----------------------------------------------------------------
    Charge (ESU x 10^10)
                -0.0000
    Dipole Moment (Debye)
         X       0.3765      Y      -0.1160      Z      -0.4427
       Tot       0.5926
    Quadrupole Moments (Debye-Ang)
        XX     -46.8702     XY       2.0677     YY     -36.7703
        XZ       0.1130     YZ      -0.3964     ZZ     -42.3545

 Total job time:  9.92s(wall), 534.38s(cpu)
        *  Thank you very much for using Q-Chem.  Have a nice day.  *
