 Q-Chem 5.4, Q-Chem, Inc., Pleasanton, CA (2021)
 Q-Chem 5.4.0 for Intel X86 EM64T Linux

User input:
--------------------------------------------------------------
$molecule
0 1
C	-0.177173	-0.368118	-0.208858
S	0.093927	0.377282	1.371642
C	0.654027	1.916282	0.696042
C	0.164027	0.569782	-1.194258
C	0.615427	1.810382	-0.702358
H	0.083427	0.348282	-2.268758
H	0.916727	2.638182	-1.361458
C	-0.177173	-1.846318	-0.208858
H	-0.364173	-1.846918	-1.272558
H	0.794427	-2.285618	-0.380158
H	-0.977773	-2.557318	-0.067558
H	0.955127	2.743882	1.347142
$end

$rem
JOBTYPE		SP
EXCHANGE	HF
CORRELATION	pRIMP2
BASIS		cc-pvtz
METHOD		rimp2
AUX_BASIS	rimp2-cc-pvtz
SOLVENT_METHOD	PCM
PURECART	11111
SYMMETRY	false
MEM_TOTAL	110000
SCF_CONVERGENCE = 6
THRESH=10
GUI = 2
$end

$solvent
dielectric 4.90
$end
--------------------------------------------------------------

             Standard Nuclear Orientation (Angstroms)
    I     Atom           X                Y                Z
 ----------------------------------------------------------------
    1      C      -0.1771730000    -0.3681180000    -0.2088580000
    2      S       0.0939270000     0.3772820000     1.3716420000
    3      C       0.6540270000     1.9162820000     0.6960420000
    4      C       0.1640270000     0.5697820000    -1.1942580000
    5      C       0.6154270000     1.8103820000    -0.7023580000
    6      H       0.0834270000     0.3482820000    -2.2687580000
    7      H       0.9167270000     2.6381820000    -1.3614580000
    8      C      -0.1771730000    -1.8463180000    -0.2088580000
    9      H      -0.3641730000    -1.8469180000    -1.2725580000
   10      H       0.7944270000    -2.2856180000    -0.3801580000
   11      H      -0.9777730000    -2.5573180000    -0.0675580000
   12      H       0.9551270000     2.7438820000     1.3471420000
 ----------------------------------------------------------------

   10    -590.3671857641      6.22e-07  Convergence criterion met
 Total energy in the final basis set =     -590.3671857641
        RIMP2         total energy =      -591.3708554909 a.u.

                    Orbital Energies (a.u.)
 --------------------------------------------------------------

 Alpha MOs
 -- Occupied --
-91.9742 -11.2827 -11.2706 -11.2435 -11.2423 -11.2228  -8.9744  -6.6553
 -6.6547  -6.6542  -1.1580  -1.0376  -0.9732  -0.9180  -0.7549  -0.7246
 -0.6721  -0.5971  -0.5711  -0.5598  -0.5389  -0.4996  -0.4669  -0.4352
 -0.3447  -0.3123

          Ground-State Mulliken Net Atomic Charges

     Atom                 Charge (a.u.)
  ----------------------------------------
      1 C                     0.021117
      2 S                    -0.006761
      3 C                    -0.222723
      4 C                    -0.221121
      5 C                    -0.198417
      6 H                     0.182733
      7 H                     0.187109
      8 C                    -0.357244
      9 H                     0.116011
     10 H                     0.133791
     11 H                     0.161396
     12 H                     0.204108
  ----------------------------------------
  Sum of atomic charges =     0.000000

                    Cartesian Multipole Moments
 -----------------------------------------------------------------
    Charge (ESU x 10^10)
                -0.0000
    Dipole Moment (Debye)
         X       0.3971      Y      -0.2883      Z      -1.7825
       Tot       1.8488
    Quadrupole Moments (Debye-Ang)
        XX     -46.4213     XY       3.3871     YY     -37.1380
        XZ       0.1941     YZ       1.9994     ZZ     -42.0719

 Total job time:  10.59s(wall), 562.75s(cpu)
        *  Thank you very much for using Q-Chem.  Have a nice day.  *
