 Q-Chem 5.4, Q-Chem, Inc., Pleasanton, CA (2021)
 Q-Chem 5.4.0 for Intel X86 EM64T Linux

User input:
--------------------------------------------------------------
$molecule
0 1
C	-0.446230	-0.140188	-0.219377
S	0.240570	0.256612	1.361123
C	1.658870	1.075412	0.685523
C	0.417970	0.358912	-1.204777
C	1.561270	1.019112	-0.712877
H	0.213870	0.241112	-2.279277
H	2.324170	1.459712	-1.371977
C	-0.446230	-1.618388	-0.219377
H	-0.816130	-1.618988	0.795323
H	-1.373330	-2.057688	-0.556877
H	0.317770	-2.329388	0.058523
H	2.421470	1.515912	1.336623
$end

$rem
JOBTYPE		SP
EXCHANGE	HF
CORRELATION	pRIMP2
BASIS		cc-pvtz
METHOD		rimp2
AUX_BASIS	rimp2-cc-pvtz
SOLVENT_METHOD	PCM
PURECART	11111
SYMMETRY	false
MEM_TOTAL	110000
SCF_CONVERGENCE = 6
THRESH=10
GUI = 2
$end

$solvent
dielectric 4.90
$end
--------------------------------------------------------------

             Standard Nuclear Orientation (Angstroms)
    I     Atom           X                Y                Z
 ----------------------------------------------------------------
    1      C      -0.4462300000    -0.1401880000    -0.2193770000
    2      S       0.2405700000     0.2566120000     1.3611230000
    3      C       1.6588700000     1.0754120000     0.6855230000
    4      C       0.4179700000     0.3589120000    -1.2047770000
    5      C       1.5612700000     1.0191120000    -0.7128770000
    6      H       0.2138700000     0.2411120000    -2.2792770000
    7      H       2.3241700000     1.4597120000    -1.3719770000
    8      C      -0.4462300000    -1.6183880000    -0.2193770000
    9      H      -0.8161300000    -1.6189880000     0.7953230000
   10      H      -1.3733300000    -2.0576880000    -0.5568770000
   11      H       0.3177700000    -2.3293880000     0.0585230000
   12      H       2.4214700000     1.5159120000     1.3366230000
 ----------------------------------------------------------------

   11    -590.2978981301      5.62e-07  Convergence criterion met
 Total energy in the final basis set =     -590.2978981301
        RIMP2         total energy =      -591.3110307308 a.u.

                    Orbital Energies (a.u.)
 --------------------------------------------------------------

 Alpha MOs
 -- Occupied --
-91.9766 -11.2963 -11.2599 -11.2441 -11.2440 -11.2126  -8.9775  -6.6583
 -6.6573  -6.6572  -1.1700  -1.0374  -0.9813  -0.9061  -0.7685  -0.7275
 -0.6721  -0.5918  -0.5735  -0.5610  -0.5476  -0.4696  -0.4503  -0.4435
 -0.3400  -0.3147

          Ground-State Mulliken Net Atomic Charges

     Atom                 Charge (a.u.)
  ----------------------------------------
      1 C                    -0.141111
      2 S                     0.010259
      3 C                    -0.147844
      4 C                    -0.067620
      5 C                    -0.243421
      6 H                     0.188940
      7 H                     0.185239
      8 C                    -0.351727
      9 H                     0.108033
     10 H                     0.109464
     11 H                     0.140003
     12 H                     0.209785
  ----------------------------------------
  Sum of atomic charges =     0.000000

                    Cartesian Multipole Moments
 -----------------------------------------------------------------
    Charge (ESU x 10^10)
                 0.0000
    Dipole Moment (Debye)
         X       2.3447      Y       0.2144      Z      -0.6158
       Tot       2.4336
    Quadrupole Moments (Debye-Ang)
        XX     -40.9643     XY       4.6347     YY     -43.8652
        XZ       0.8523     YZ      -0.4925     ZZ     -41.2856

 Total job time:  11.91s(wall), 622.00s(cpu)
        *  Thank you very much for using Q-Chem.  Have a nice day.  *
