 Q-Chem 5.4, Q-Chem, Inc., Pleasanton, CA (2021)
 Q-Chem 5.4.0 for Intel X86 EM64T Linux

User input:
--------------------------------------------------------------
$molecule
0 1
C	-0.174376	-0.368118	-0.209652
S	0.096724	0.377282	1.370848
C	0.656824	1.916282	0.695248
C	0.166824	0.569782	-1.195052
C	0.618224	1.810382	-0.703152
H	0.086224	0.348282	-2.269552
H	0.919524	2.638182	-1.362252
C	-0.174376	-1.846318	-0.209652
H	-0.868176	-1.846918	-1.037352
H	0.581424	-2.285618	-0.843852
H	-0.797076	-2.557318	0.313048
H	0.957924	2.743882	1.346348
$end

$rem
JOBTYPE		SP
EXCHANGE	HF
CORRELATION	pRIMP2
BASIS		cc-pvtz
METHOD		rimp2
AUX_BASIS	rimp2-cc-pvtz
SOLVENT_METHOD	PCM
PURECART	11111
SYMMETRY	false
MEM_TOTAL	110000
SCF_CONVERGENCE = 6
THRESH=10
GUI = 2
$end

$solvent
dielectric 4.90
$end
--------------------------------------------------------------

             Standard Nuclear Orientation (Angstroms)
    I     Atom           X                Y                Z
 ----------------------------------------------------------------
    1      C      -0.1743760000    -0.3681180000    -0.2096520000
    2      S       0.0967240000     0.3772820000     1.3708480000
    3      C       0.6568240000     1.9162820000     0.6952480000
    4      C       0.1668240000     0.5697820000    -1.1950520000
    5      C       0.6182240000     1.8103820000    -0.7031520000
    6      H       0.0862240000     0.3482820000    -2.2695520000
    7      H       0.9195240000     2.6381820000    -1.3622520000
    8      C      -0.1743760000    -1.8463180000    -0.2096520000
    9      H      -0.8681760000    -1.8469180000    -1.0373520000
   10      H       0.5814240000    -2.2856180000    -0.8438520000
   11      H      -0.7970760000    -2.5573180000     0.3130480000
   12      H       0.9579240000     2.7438820000     1.3463480000
 ----------------------------------------------------------------

   10    -590.3646581227      6.38e-07  Convergence criterion met
 Total energy in the final basis set =     -590.3646581227
        RIMP2         total energy =      -591.3684869044 a.u.

                    Orbital Energies (a.u.)
 --------------------------------------------------------------

 Alpha MOs
 -- Occupied --
-91.9749 -11.2851 -11.2674 -11.2433 -11.2395 -11.2236  -8.9750  -6.6559
 -6.6553  -6.6548  -1.1573  -1.0382  -0.9723  -0.9187  -0.7543  -0.7235
 -0.6712  -0.5973  -0.5663  -0.5608  -0.5423  -0.5008  -0.4658  -0.4412
 -0.3451  -0.3048

          Ground-State Mulliken Net Atomic Charges

     Atom                 Charge (a.u.)
  ----------------------------------------
      1 C                     0.023607
      2 S                    -0.002661
      3 C                    -0.231792
      4 C                    -0.236947
      5 C                    -0.187239
      6 H                     0.181361
      7 H                     0.186269
      8 C                    -0.368384
      9 H                     0.126241
     10 H                     0.136667
     11 H                     0.170228
     12 H                     0.202651
  ----------------------------------------
  Sum of atomic charges =     0.000000

                    Cartesian Multipole Moments
 -----------------------------------------------------------------
    Charge (ESU x 10^10)
                -0.0000
    Dipole Moment (Debye)
         X      -0.0040      Y      -0.5071      Z      -1.6553
       Tot       1.7313
    Quadrupole Moments (Debye-Ang)
        XX     -46.6340     XY       4.0269     YY     -37.1396
        XZ      -0.0571     YZ       1.6163     ZZ     -41.8803

 Total job time:  15.47s(wall), 555.85s(cpu)
        *  Thank you very much for using Q-Chem.  Have a nice day.  *
