 Q-Chem 5.4, Q-Chem, Inc., Pleasanton, CA (2021)
 Q-Chem 5.4.0 for Intel X86 EM64T Linux

User input:
--------------------------------------------------------------
$molecule
0 1
C	-0.182504	-0.368118	-0.212476
S	0.088596	0.377282	1.368024
C	0.648696	1.916282	0.692424
C	0.158696	0.569782	-1.197876
C	0.610096	1.810382	-0.705976
H	0.078096	0.348282	-2.272376
H	0.911396	2.638182	-1.365076
C	-0.182504	-1.846318	-0.212476
H	0.753096	-1.846918	-0.751976
H	0.310796	-2.285618	0.642024
H	-0.589104	-2.557318	-0.916476
H	0.949796	2.743882	1.343524
$end

$rem
JOBTYPE		SP
EXCHANGE	HF
CORRELATION	pRIMP2
BASIS		cc-pvtz
METHOD		rimp2
AUX_BASIS	rimp2-cc-pvtz
SOLVENT_METHOD	PCM
PURECART	11111
SYMMETRY	false
MEM_TOTAL	110000
SCF_CONVERGENCE = 6
THRESH=10
GUI = 2
$end

$solvent
dielectric 4.90
$end
--------------------------------------------------------------

             Standard Nuclear Orientation (Angstroms)
    I     Atom           X                Y                Z
 ----------------------------------------------------------------
    1      C      -0.1825040000    -0.3681180000    -0.2124760000
    2      S       0.0885960000     0.3772820000     1.3680240000
    3      C       0.6486960000     1.9162820000     0.6924240000
    4      C       0.1586960000     0.5697820000    -1.1978760000
    5      C       0.6100960000     1.8103820000    -0.7059760000
    6      H       0.0780960000     0.3482820000    -2.2723760000
    7      H       0.9113960000     2.6381820000    -1.3650760000
    8      C      -0.1825040000    -1.8463180000    -0.2124760000
    9      H       0.7530960000    -1.8469180000    -0.7519760000
   10      H       0.3107960000    -2.2856180000     0.6420240000
   11      H      -0.5891040000    -2.5573180000    -0.9164760000
   12      H       0.9497960000     2.7438820000     1.3435240000
 ----------------------------------------------------------------

   10    -590.3668243939      6.15e-07  Convergence criterion met
 Total energy in the final basis set =     -590.3668243939
        RIMP2         total energy =      -591.3691269245 a.u.

                    Orbital Energies (a.u.)
 --------------------------------------------------------------

 Alpha MOs
 -- Occupied --
-91.9793 -11.2888 -11.2641 -11.2432 -11.2326 -11.2260  -8.9790  -6.6599
 -6.6594  -6.6588  -1.1583  -1.0395  -0.9722  -0.9172  -0.7549  -0.7230
 -0.6714  -0.5972  -0.5665  -0.5542  -0.5456  -0.4931  -0.4733  -0.4543
 -0.3457  -0.2998

          Ground-State Mulliken Net Atomic Charges

     Atom                 Charge (a.u.)
  ----------------------------------------
      1 C                     0.021257
      2 S                     0.001693
      3 C                    -0.240656
      4 C                    -0.228516
      5 C                    -0.193172
      6 H                     0.179202
      7 H                     0.186173
      8 C                    -0.368776
      9 H                     0.144033
     10 H                     0.136515
     11 H                     0.158661
     12 H                     0.203585
  ----------------------------------------
  Sum of atomic charges =     0.000000

                    Cartesian Multipole Moments
 -----------------------------------------------------------------
    Charge (ESU x 10^10)
                 0.0000
    Dipole Moment (Debye)
         X       1.0205      Y      -0.7156      Z      -1.4009
       Tot       1.8751
    Quadrupole Moments (Debye-Ang)
        XX     -47.3402     XY       1.6943     YY     -37.2538
        XZ       0.3816     YZ       1.6896     ZZ     -41.6151

 Total job time:  11.41s(wall), 571.26s(cpu)
        *  Thank you very much for using Q-Chem.  Have a nice day.  *
