 Q-Chem 5.4, Q-Chem, Inc., Pleasanton, CA (2021)
 Q-Chem 5.4.0 for Intel X86 EM64T Linux

User input:
--------------------------------------------------------------
$molecule
0 1
C	-0.217981	-0.350804	-0.208958
S	0.117019	0.368096	1.371542
C	0.809119	1.852396	0.695942
C	0.203619	0.553796	-1.194358
C	0.761519	1.750296	-0.702458
H	0.104019	0.340196	-2.268858
H	1.133719	2.548796	-1.361558
C	-0.217981	-1.829004	-0.208958
H	-0.586881	-1.829604	-1.223958
H	0.709119	-2.268304	-0.546358
H	-0.981881	-2.540004	0.069242
H	1.181219	2.650596	1.347042
$end

$rem
JOBTYPE		SP
EXCHANGE	HF
CORRELATION	pRIMP2
BASIS		cc-pvtz
METHOD		rimp2
AUX_BASIS	rimp2-cc-pvtz
SOLVENT_METHOD	PCM
PURECART	11111
SYMMETRY	false
MEM_TOTAL	110000
SCF_CONVERGENCE = 6
THRESH=10
GUI = 2
$end

$solvent
dielectric 4.90
$end
--------------------------------------------------------------

             Standard Nuclear Orientation (Angstroms)
    I     Atom           X                Y                Z
 ----------------------------------------------------------------
    1      C      -0.2179810000    -0.3508040000    -0.2089580000
    2      S       0.1170190000     0.3680960000     1.3715420000
    3      C       0.8091190000     1.8523960000     0.6959420000
    4      C       0.2036190000     0.5537960000    -1.1943580000
    5      C       0.7615190000     1.7502960000    -0.7024580000
    6      H       0.1040190000     0.3401960000    -2.2688580000
    7      H       1.1337190000     2.5487960000    -1.3615580000
    8      C      -0.2179810000    -1.8290040000    -0.2089580000
    9      H      -0.5868810000    -1.8296040000    -1.2239580000
   10      H       0.7091190000    -2.2683040000    -0.5463580000
   11      H      -0.9818810000    -2.5400040000     0.0692420000
   12      H       1.1812190000     2.6505960000     1.3470420000
 ----------------------------------------------------------------

   10    -590.3625485779      6.66e-07  Convergence criterion met
 Total energy in the final basis set =     -590.3625485779
        RIMP2         total energy =      -591.3672795742 a.u.

                    Orbital Energies (a.u.)
 --------------------------------------------------------------

 Alpha MOs
 -- Occupied --
-91.9739 -11.2812 -11.2713 -11.2438 -11.2427 -11.2222  -8.9742  -6.6551
 -6.6545  -6.6540  -1.1584  -1.0375  -0.9733  -0.9175  -0.7551  -0.7245
 -0.6718  -0.5968  -0.5704  -0.5600  -0.5393  -0.4997  -0.4662  -0.4351
 -0.3447  -0.3104

          Ground-State Mulliken Net Atomic Charges

     Atom                 Charge (a.u.)
  ----------------------------------------
      1 C                     0.012070
      2 S                    -0.004781
      3 C                    -0.219531
      4 C                    -0.218460
      5 C                    -0.197548
      6 H                     0.182427
      7 H                     0.186862
      8 C                    -0.360365
      9 H                     0.116708
     10 H                     0.135846
     11 H                     0.162983
     12 H                     0.203790
  ----------------------------------------
  Sum of atomic charges =     0.000000

                    Cartesian Multipole Moments
 -----------------------------------------------------------------
    Charge (ESU x 10^10)
                -0.0000
    Dipole Moment (Debye)
         X       0.4169      Y      -0.2912      Z      -1.7597
       Tot       1.8317
    Quadrupole Moments (Debye-Ang)
        XX     -45.8994     XY       4.2008     YY     -37.7467
        XZ       0.1519     YZ       1.8655     ZZ     -41.9965

 Total job time:  10.27s(wall), 553.42s(cpu)
        *  Thank you very much for using Q-Chem.  Have a nice day.  *
