 Q-Chem 5.4, Q-Chem, Inc., Pleasanton, CA (2021)
 Q-Chem 5.4.0 for Intel X86 EM64T Linux

User input:
--------------------------------------------------------------
$molecule
0 1
C	-0.086401	-0.391505	-0.218828
S	0.051099	0.389695	1.361672
C	0.335499	2.002495	0.686072
C	0.086699	0.591395	-1.204228
C	0.315899	1.891595	-0.712328
H	0.045799	0.359295	-2.278728
H	0.468799	2.759095	-1.371428
C	-0.086401	-1.869705	-0.218828
H	-0.626901	-1.870305	0.716172
H	-0.940801	-2.309005	-0.712128
H	0.617699	-2.580705	0.187572
H	0.488299	2.869795	1.337172
$end

$rem
JOBTYPE		SP
EXCHANGE	HF
CORRELATION	pRIMP2
BASIS		cc-pvtz
METHOD		rimp2
AUX_BASIS	rimp2-cc-pvtz
SOLVENT_METHOD	PCM
PURECART	11111
SYMMETRY	false
MEM_TOTAL	110000
SCF_CONVERGENCE = 6
THRESH=10
GUI = 2
$end

$solvent
dielectric 4.90
$end
--------------------------------------------------------------

             Standard Nuclear Orientation (Angstroms)
    I     Atom           X                Y                Z
 ----------------------------------------------------------------
    1      C      -0.0864010000    -0.3915050000    -0.2188280000
    2      S       0.0510990000     0.3896950000     1.3616720000
    3      C       0.3354990000     2.0024950000     0.6860720000
    4      C       0.0866990000     0.5913950000    -1.2042280000
    5      C       0.3158990000     1.8915950000    -0.7123280000
    6      H       0.0457990000     0.3592950000    -2.2787280000
    7      H       0.4687990000     2.7590950000    -1.3714280000
    8      C      -0.0864010000    -1.8697050000    -0.2188280000
    9      H      -0.6269010000    -1.8703050000     0.7161720000
   10      H      -0.9408010000    -2.3090050000    -0.7121280000
   11      H       0.6176990000    -2.5807050000     0.1875720000
   12      H       0.4882990000     2.8697950000     1.3371720000
 ----------------------------------------------------------------

   10    -590.3692469955      6.00e-07  Convergence criterion met
 Total energy in the final basis set =     -590.3692469955
        RIMP2         total energy =      -591.3713737881 a.u.

                    Orbital Energies (a.u.)
 --------------------------------------------------------------

 Alpha MOs
 -- Occupied --
-91.9796 -11.2832 -11.2694 -11.2432 -11.2367 -11.2237  -8.9795  -6.6604
 -6.6599  -6.6593  -1.1579  -1.0394  -0.9730  -0.9188  -0.7582  -0.7206
 -0.6715  -0.5972  -0.5684  -0.5617  -0.5392  -0.4945  -0.4651  -0.4517
 -0.3465  -0.3091

          Ground-State Mulliken Net Atomic Charges

     Atom                 Charge (a.u.)
  ----------------------------------------
      1 C                     0.011072
      2 S                    -0.003902
      3 C                    -0.230993
      4 C                    -0.213480
      5 C                    -0.193400
      6 H                     0.184596
      7 H                     0.186092
      8 C                    -0.341816
      9 H                     0.113493
     10 H                     0.130885
     11 H                     0.151888
     12 H                     0.205565
  ----------------------------------------
  Sum of atomic charges =     0.000000

                    Cartesian Multipole Moments
 -----------------------------------------------------------------
    Charge (ESU x 10^10)
                -0.0000
    Dipole Moment (Debye)
         X      -0.0932      Y      -0.2480      Z      -0.5310
       Tot       0.5935
    Quadrupole Moments (Debye-Ang)
        XX     -47.3508     XY       2.0944     YY     -36.3098
        XZ       0.4902     YZ      -0.3548     ZZ     -42.2559

 Total job time:  22.73s(wall), 628.86s(cpu)
        *  Thank you very much for using Q-Chem.  Have a nice day.  *
