 Q-Chem 5.4, Q-Chem, Inc., Pleasanton, CA (2021)
 Q-Chem 5.4.0 for Intel X86 EM64T Linux

User input:
--------------------------------------------------------------
$molecule
0 1
C	-0.333128	-0.278098	-0.208858
S	0.176572	0.329602	1.371642
C	1.229272	1.584202	0.696042
C	0.308272	0.486502	-1.194258
C	1.156772	1.497902	-0.702358
H	0.156772	0.306002	-2.268758
H	1.722972	2.172802	-1.361458
C	-0.333128	-1.756298	-0.208858
H	-0.520128	-1.756898	-1.272558
H	0.638472	-2.195598	-0.380158
H	-1.133728	-2.467298	-0.067558
H	1.795272	2.258902	1.347142
$end

$rem
JOBTYPE		SP
EXCHANGE	HF
CORRELATION	pRIMP2
BASIS		cc-pvtz
METHOD		rimp2
AUX_BASIS	rimp2-cc-pvtz
SOLVENT_METHOD	PCM
PURECART	11111
SYMMETRY	false
MEM_TOTAL	110000
SCF_CONVERGENCE = 6
THRESH=10
GUI = 2
$end

$solvent
dielectric 4.90
$end
--------------------------------------------------------------

             Standard Nuclear Orientation (Angstroms)
    I     Atom           X                Y                Z
 ----------------------------------------------------------------
    1      C      -0.3331280000    -0.2780980000    -0.2088580000
    2      S       0.1765720000     0.3296020000     1.3716420000
    3      C       1.2292720000     1.5842020000     0.6960420000
    4      C       0.3082720000     0.4865020000    -1.1942580000
    5      C       1.1567720000     1.4979020000    -0.7023580000
    6      H       0.1567720000     0.3060020000    -2.2687580000
    7      H       1.7229720000     2.1728020000    -1.3614580000
    8      C      -0.3331280000    -1.7562980000    -0.2088580000
    9      H      -0.5201280000    -1.7568980000    -1.2725580000
   10      H       0.6384720000    -2.1955980000    -0.3801580000
   11      H      -1.1337280000    -2.4672980000    -0.0675580000
   12      H       1.7952720000     2.2589020000     1.3471420000
 ----------------------------------------------------------------

   10    -590.3453304123      7.55e-07  Convergence criterion met
 Total energy in the final basis set =     -590.3453304123
        RIMP2         total energy =      -591.3537575511 a.u.

                    Orbital Energies (a.u.)
 --------------------------------------------------------------

 Alpha MOs
 -- Occupied --
-91.9734 -11.2785 -11.2719 -11.2483 -11.2439 -11.2192  -8.9739  -6.6547
 -6.6540  -6.6536  -1.1617  -1.0368  -0.9752  -0.9137  -0.7574  -0.7262
 -0.6717  -0.5955  -0.5737  -0.5580  -0.5390  -0.4937  -0.4665  -0.4303
 -0.3437  -0.3127

          Ground-State Mulliken Net Atomic Charges

     Atom                 Charge (a.u.)
  ----------------------------------------
      1 C                    -0.025095
      2 S                    -0.000257
      3 C                    -0.199166
      4 C                    -0.180408
      5 C                    -0.210338
      6 H                     0.182004
      7 H                     0.187926
      8 C                    -0.355530
      9 H                     0.109235
     10 H                     0.137054
     11 H                     0.149649
     12 H                     0.204926
  ----------------------------------------
  Sum of atomic charges =     0.000000

                    Cartesian Multipole Moments
 -----------------------------------------------------------------
    Charge (ESU x 10^10)
                 0.0000
    Dipole Moment (Debye)
         X       1.1308      Y      -0.0911      Z      -1.7659
       Tot       2.0989
    Quadrupole Moments (Debye-Ang)
        XX     -43.8419     XY       5.0731     YY     -40.1487
        XZ       0.5107     YZ       1.7775     ZZ     -41.8277

 Total job time:  11.69s(wall), 616.98s(cpu)
        *  Thank you very much for using Q-Chem.  Have a nice day.  *
