 Q-Chem 5.4, Q-Chem, Inc., Pleasanton, CA (2021)
 Q-Chem 5.4.0 for Intel X86 EM64T Linux

User input:
--------------------------------------------------------------
$molecule
0 1
C	-0.135003	-0.381707	-0.208929
S	0.070097	0.384493	1.371571
C	0.493897	1.966393	0.695971
C	0.123097	0.582293	-1.194329
C	0.464697	1.857593	-0.702429
H	0.062197	0.354693	-2.268829
H	0.692697	2.708493	-1.361529
C	-0.135003	-1.859907	-0.208929
H	-0.134503	-1.860507	-1.288929
H	0.851597	-2.299207	-0.208929
H	-0.948003	-2.570907	-0.208829
H	0.721797	2.817093	1.347071
$end

$rem
JOBTYPE		SP
EXCHANGE	HF
CORRELATION	pRIMP2
BASIS		cc-pvtz
METHOD		rimp2
AUX_BASIS	rimp2-cc-pvtz
SOLVENT_METHOD	PCM
PURECART	11111
SYMMETRY	false
MEM_TOTAL	110000
SCF_CONVERGENCE = 6
THRESH=10
GUI = 2
$end

$solvent
dielectric 4.90
$end
--------------------------------------------------------------

             Standard Nuclear Orientation (Angstroms)
    I     Atom           X                Y                Z
 ----------------------------------------------------------------
    1      C      -0.1350030000    -0.3817070000    -0.2089290000
    2      S       0.0700970000     0.3844930000     1.3715710000
    3      C       0.4938970000     1.9663930000     0.6959710000
    4      C       0.1230970000     0.5822930000    -1.1943290000
    5      C       0.4646970000     1.8575930000    -0.7024290000
    6      H       0.0621970000     0.3546930000    -2.2688290000
    7      H       0.6926970000     2.7084930000    -1.3615290000
    8      C      -0.1350030000    -1.8599070000    -0.2089290000
    9      H      -0.1345030000    -1.8605070000    -1.2889290000
   10      H       0.8515970000    -2.2992070000    -0.2089290000
   11      H      -0.9480030000    -2.5709070000    -0.2088290000
   12      H       0.7217970000     2.8170930000     1.3470710000
 ----------------------------------------------------------------

   10    -590.3704440549      5.94e-07  Convergence criterion met
 Total energy in the final basis set =     -590.3704440549
        RIMP2         total energy =      -591.3733031984 a.u.

                    Orbital Energies (a.u.)
 --------------------------------------------------------------

 Alpha MOs
 -- Occupied --
-91.9745 -11.2839 -11.2699 -11.2431 -11.2418 -11.2231  -8.9747  -6.6555
 -6.6550  -6.6545  -1.1576  -1.0378  -0.9731  -0.9184  -0.7548  -0.7245
 -0.6724  -0.5973  -0.5713  -0.5596  -0.5388  -0.4996  -0.4674  -0.4359
 -0.3448  -0.3130

          Ground-State Mulliken Net Atomic Charges

     Atom                 Charge (a.u.)
  ----------------------------------------
      1 C                     0.029099
      2 S                    -0.008156
      3 C                    -0.225244
      4 C                    -0.222706
      5 C                    -0.199444
      6 H                     0.182877
      7 H                     0.187201
      8 C                    -0.356719
      9 H                     0.117029
     10 H                     0.133301
     11 H                     0.158501
     12 H                     0.204262
  ----------------------------------------
  Sum of atomic charges =     0.000000

                    Cartesian Multipole Moments
 -----------------------------------------------------------------
    Charge (ESU x 10^10)
                -0.0000
    Dipole Moment (Debye)
         X       0.3835      Y      -0.2995      Z      -1.7869
       Tot       1.8519
    Quadrupole Moments (Debye-Ang)
        XX     -46.8750     XY       2.4663     YY     -36.6572
        XZ       0.2403     YZ       2.0878     ZZ     -42.1011

 Total job time:  9.77s(wall), 530.59s(cpu)
        *  Thank you very much for using Q-Chem.  Have a nice day.  *
