 Q-Chem 5.4, Q-Chem, Inc., Pleasanton, CA (2021)
 Q-Chem 5.4.0 for Intel X86 EM64T Linux

User input:
--------------------------------------------------------------
$molecule
0 1
C	-0.330331	-0.278098	-0.209652
S	0.179369	0.329602	1.370848
C	1.232069	1.584202	0.695248
C	0.311069	0.486502	-1.195052
C	1.159569	1.497902	-0.703152
H	0.159569	0.306002	-2.269552
H	1.725769	2.172802	-1.362252
C	-0.330331	-1.756298	-0.209652
H	-1.024131	-1.756898	-1.037352
H	0.425469	-2.195598	-0.843852
H	-0.953031	-2.467298	0.313048
H	1.798069	2.258902	1.346348
$end

$rem
JOBTYPE		SP
EXCHANGE	HF
CORRELATION	pRIMP2
BASIS		cc-pvtz
METHOD		rimp2
AUX_BASIS	rimp2-cc-pvtz
SOLVENT_METHOD	PCM
PURECART	11111
SYMMETRY	false
MEM_TOTAL	110000
SCF_CONVERGENCE = 6
THRESH=10
GUI = 2
$end

$solvent
dielectric 4.90
$end
--------------------------------------------------------------

             Standard Nuclear Orientation (Angstroms)
    I     Atom           X                Y                Z
 ----------------------------------------------------------------
    1      C      -0.3303310000    -0.2780980000    -0.2096520000
    2      S       0.1793690000     0.3296020000     1.3708480000
    3      C       1.2320690000     1.5842020000     0.6952480000
    4      C       0.3110690000     0.4865020000    -1.1950520000
    5      C       1.1595690000     1.4979020000    -0.7031520000
    6      H       0.1595690000     0.3060020000    -2.2695520000
    7      H       1.7257690000     2.1728020000    -1.3622520000
    8      C      -0.3303310000    -1.7562980000    -0.2096520000
    9      H      -1.0241310000    -1.7568980000    -1.0373520000
   10      H       0.4254690000    -2.1955980000    -0.8438520000
   11      H      -0.9530310000    -2.4672980000     0.3130480000
   12      H       1.7980690000     2.2589020000     1.3463480000
 ----------------------------------------------------------------

   10    -590.3408599806      9.00e-07  Convergence criterion met
 Total energy in the final basis set =     -590.3408599806
        RIMP2         total energy =      -591.3501208521 a.u.

                    Orbital Energies (a.u.)
 --------------------------------------------------------------

 Alpha MOs
 -- Occupied --
-91.9734 -11.2760 -11.2730 -11.2464 -11.2441 -11.2189  -8.9739  -6.6547
 -6.6539  -6.6536  -1.1607  -1.0366  -0.9742  -0.9149  -0.7568  -0.7250
 -0.6707  -0.5947  -0.5689  -0.5592  -0.5406  -0.4999  -0.4637  -0.4332
 -0.3444  -0.3042

          Ground-State Mulliken Net Atomic Charges

     Atom                 Charge (a.u.)
  ----------------------------------------
      1 C                    -0.022655
      2 S                     0.001655
      3 C                    -0.201879
      4 C                    -0.191582
      5 C                    -0.204106
      6 H                     0.182277
      7 H                     0.186914
      8 C                    -0.373404
      9 H                     0.119388
     10 H                     0.140247
     11 H                     0.159773
     12 H                     0.203373
  ----------------------------------------
  Sum of atomic charges =     0.000000

                    Cartesian Multipole Moments
 -----------------------------------------------------------------
    Charge (ESU x 10^10)
                 0.0000
    Dipole Moment (Debye)
         X       0.7284      Y      -0.2328      Z      -1.6531
       Tot       1.8214
    Quadrupole Moments (Debye-Ang)
        XX     -43.9575     XY       5.6306     YY     -40.1486
        XZ       0.1988     YZ       1.4049     ZZ     -41.6360

 Total job time:  11.56s(wall), 581.43s(cpu)
        *  Thank you very much for using Q-Chem.  Have a nice day.  *
