 Q-Chem 5.4, Q-Chem, Inc., Pleasanton, CA (2021)
 Q-Chem 5.4.0 for Intel X86 EM64T Linux

User input:
--------------------------------------------------------------
$molecule
0 1
C	-0.203399	-0.370887	-0.215368
S	0.067701	0.374513	1.365132
C	0.627801	1.913513	0.689532
C	0.137801	0.567013	-1.200768
C	0.589201	1.807613	-0.708868
H	0.057201	0.345513	-2.275268
H	0.890501	2.635413	-1.367968
C	0.053301	-1.826687	-0.215368
H	1.117001	-1.639687	-0.214868
H	0.129501	-2.259287	0.771232
H	0.176601	-2.526787	-1.028368
H	0.928901	2.741113	1.340632
$end

$rem
JOBTYPE		SP
EXCHANGE	HF
CORRELATION	pRIMP2
BASIS		cc-pvtz
METHOD		rimp2
AUX_BASIS	rimp2-cc-pvtz
SOLVENT_METHOD	PCM
PURECART	11111
SYMMETRY	false
MEM_TOTAL	110000
SCF_CONVERGENCE = 6
THRESH=10
GUI = 2
$end

$solvent
dielectric 4.90
$end
--------------------------------------------------------------

             Standard Nuclear Orientation (Angstroms)
    I     Atom           X                Y                Z
 ----------------------------------------------------------------
    1      C      -0.2033990000    -0.3708870000    -0.2153680000
    2      S       0.0677010000     0.3745130000     1.3651320000
    3      C       0.6278010000     1.9135130000     0.6895320000
    4      C       0.1378010000     0.5670130000    -1.2007680000
    5      C       0.5892010000     1.8076130000    -0.7088680000
    6      H       0.0572010000     0.3455130000    -2.2752680000
    7      H       0.8905010000     2.6354130000    -1.3679680000
    8      C       0.0533010000    -1.8266870000    -0.2153680000
    9      H       1.1170010000    -1.6396870000    -0.2148680000
   10      H       0.1295010000    -2.2592870000     0.7712320000
   11      H       0.1766010000    -2.5267870000    -1.0283680000
   12      H       0.9289010000     2.7411130000     1.3406320000
 ----------------------------------------------------------------

   10    -590.3593396957      6.37e-07  Convergence criterion met
 Total energy in the final basis set =     -590.3593396957
        RIMP2         total energy =      -591.3626519108 a.u.

                    Orbital Energies (a.u.)
 --------------------------------------------------------------

 Alpha MOs
 -- Occupied --
-91.9787 -11.2873 -11.2668 -11.2437 -11.2325 -11.2273  -8.9787  -6.6596
 -6.6591  -6.6585  -1.1606  -1.0403  -0.9727  -0.9154  -0.7567  -0.7227
 -0.6715  -0.5963  -0.5668  -0.5582  -0.5391  -0.4954  -0.4746  -0.4569
 -0.3470  -0.2966

          Ground-State Mulliken Net Atomic Charges

     Atom                 Charge (a.u.)
  ----------------------------------------
      1 C                     0.013297
      2 S                     0.000897
      3 C                    -0.242588
      4 C                    -0.237587
      5 C                    -0.183148
      6 H                     0.178830
      7 H                     0.187080
      8 C                    -0.358926
      9 H                     0.147904
     10 H                     0.129989
     11 H                     0.159641
     12 H                     0.204610
  ----------------------------------------
  Sum of atomic charges =     0.000000

                    Cartesian Multipole Moments
 -----------------------------------------------------------------
    Charge (ESU x 10^10)
                 0.0000
    Dipole Moment (Debye)
         X       1.4345      Y      -0.4875      Z      -1.0667
       Tot       1.8529
    Quadrupole Moments (Debye-Ang)
        XX     -47.1906     XY       1.0794     YY     -37.7243
        XZ      -0.0805     YZ       1.0715     ZZ     -41.6296

 Total job time:  12.50s(wall), 578.84s(cpu)
        *  Thank you very much for using Q-Chem.  Have a nice day.  *
