 Q-Chem 5.4, Q-Chem, Inc., Pleasanton, CA (2021)
 Q-Chem 5.4.0 for Intel X86 EM64T Linux

User input:
--------------------------------------------------------------
$molecule
0 1
C	-0.224552	-0.350804	-0.213418
S	0.110448	0.368096	1.367082
C	0.802548	1.852396	0.691482
C	0.197048	0.553796	-1.198818
C	0.754948	1.750296	-0.706918
H	0.097448	0.340196	-2.273318
H	1.127148	2.548796	-1.366018
C	-0.224552	-1.829004	-0.213418
H	0.790448	-1.829604	-0.582318
H	0.112848	-2.268304	0.713682
H	-0.502752	-2.540004	-0.977318
H	1.174648	2.650596	1.342582
$end

$rem
JOBTYPE		SP
EXCHANGE	HF
CORRELATION	pRIMP2
BASIS		cc-pvtz
METHOD		rimp2
AUX_BASIS	rimp2-cc-pvtz
SOLVENT_METHOD	PCM
PURECART	11111
SYMMETRY	false
MEM_TOTAL	110000
SCF_CONVERGENCE = 6
THRESH=10
GUI = 2
$end

$solvent
dielectric 4.90
$end
--------------------------------------------------------------

             Standard Nuclear Orientation (Angstroms)
    I     Atom           X                Y                Z
 ----------------------------------------------------------------
    1      C      -0.2245520000    -0.3508040000    -0.2134180000
    2      S       0.1104480000     0.3680960000     1.3670820000
    3      C       0.8025480000     1.8523960000     0.6914820000
    4      C       0.1970480000     0.5537960000    -1.1988180000
    5      C       0.7549480000     1.7502960000    -0.7069180000
    6      H       0.0974480000     0.3401960000    -2.2733180000
    7      H       1.1271480000     2.5487960000    -1.3660180000
    8      C      -0.2245520000    -1.8290040000    -0.2134180000
    9      H       0.7904480000    -1.8296040000    -0.5823180000
   10      H       0.1128480000    -2.2683040000     0.7136820000
   11      H      -0.5027520000    -2.5400040000    -0.9773180000
   12      H       1.1746480000     2.6505960000     1.3425820000
 ----------------------------------------------------------------

   10    -590.3631860068      6.25e-07  Convergence criterion met
 Total energy in the final basis set =     -590.3631860068
        RIMP2         total energy =      -591.3660640053 a.u.

                    Orbital Energies (a.u.)
 --------------------------------------------------------------

 Alpha MOs
 -- Occupied --
-91.9796 -11.2884 -11.2646 -11.2434 -11.2319 -11.2265  -8.9794  -6.6603
 -6.6598  -6.6592  -1.1593  -1.0398  -0.9724  -0.9163  -0.7555  -0.7229
 -0.6712  -0.5970  -0.5664  -0.5545  -0.5450  -0.4915  -0.4753  -0.4562
 -0.3462  -0.2979

          Ground-State Mulliken Net Atomic Charges

     Atom                 Charge (a.u.)
  ----------------------------------------
      1 C                     0.014014
      2 S                     0.003752
      3 C                    -0.241774
      4 C                    -0.227219
      5 C                    -0.191925
      6 H                     0.178355
      7 H                     0.186503
      8 C                    -0.366612
      9 H                     0.147881
     10 H                     0.134715
     11 H                     0.158361
     12 H                     0.203950
  ----------------------------------------
  Sum of atomic charges =     0.000000

                    Cartesian Multipole Moments
 -----------------------------------------------------------------
    Charge (ESU x 10^10)
                -0.0000
    Dipole Moment (Debye)
         X       1.1696      Y      -0.7452      Z      -1.2838
       Tot       1.8898
    Quadrupole Moments (Debye-Ang)
        XX     -46.9984     XY       2.1776     YY     -37.8203
        XZ       0.3118     YZ       1.4957     ZZ     -41.5635

 Total job time:  10.31s(wall), 556.24s(cpu)
        *  Thank you very much for using Q-Chem.  Have a nice day.  *
