 Q-Chem 5.4, Q-Chem, Inc., Pleasanton, CA (2021)
 Q-Chem 5.4.0 for Intel X86 EM64T Linux

User input:
--------------------------------------------------------------
$molecule
0 1
C	-0.178149	-0.368118	-0.208929
S	0.092951	0.377282	1.371571
C	0.653051	1.916282	0.695971
C	0.163051	0.569782	-1.194329
C	0.614451	1.810382	-0.702429
H	0.082451	0.348282	-2.268829
H	0.915751	2.638182	-1.361529
C	-0.178149	-1.846318	-0.208929
H	-0.177649	-1.846918	-1.288929
H	0.808451	-2.285618	-0.208929
H	-0.991149	-2.557318	-0.208829
H	0.954151	2.743882	1.347071
$end

$rem
JOBTYPE		SP
EXCHANGE	HF
CORRELATION	pRIMP2
BASIS		cc-pvtz
METHOD		rimp2
AUX_BASIS	rimp2-cc-pvtz
SOLVENT_METHOD	PCM
PURECART	11111
SYMMETRY	false
MEM_TOTAL	110000
SCF_CONVERGENCE = 6
THRESH=10
GUI = 2
$end

$solvent
dielectric 4.90
$end
--------------------------------------------------------------

             Standard Nuclear Orientation (Angstroms)
    I     Atom           X                Y                Z
 ----------------------------------------------------------------
    1      C      -0.1781490000    -0.3681180000    -0.2089290000
    2      S       0.0929510000     0.3772820000     1.3715710000
    3      C       0.6530510000     1.9162820000     0.6959710000
    4      C       0.1630510000     0.5697820000    -1.1943290000
    5      C       0.6144510000     1.8103820000    -0.7024290000
    6      H       0.0824510000     0.3482820000    -2.2688290000
    7      H       0.9157510000     2.6381820000    -1.3615290000
    8      C      -0.1781490000    -1.8463180000    -0.2089290000
    9      H      -0.1776490000    -1.8469180000    -1.2889290000
   10      H       0.8084510000    -2.2856180000    -0.2089290000
   11      H      -0.9911490000    -2.5573180000    -0.2088290000
   12      H       0.9541510000     2.7438820000     1.3470710000
 ----------------------------------------------------------------

   10    -590.3673775638      6.16e-07  Convergence criterion met
 Total energy in the final basis set =     -590.3673775638
        RIMP2         total energy =      -591.3709516634 a.u.

                    Orbital Energies (a.u.)
 --------------------------------------------------------------

 Alpha MOs
 -- Occupied --
-91.9744 -11.2825 -11.2708 -11.2434 -11.2423 -11.2226  -8.9746  -6.6554
 -6.6548  -6.6544  -1.1581  -1.0376  -0.9733  -0.9178  -0.7551  -0.7247
 -0.6722  -0.5971  -0.5716  -0.5593  -0.5389  -0.4987  -0.4673  -0.4354
 -0.3446  -0.3130

          Ground-State Mulliken Net Atomic Charges

     Atom                 Charge (a.u.)
  ----------------------------------------
      1 C                     0.023092
      2 S                    -0.007203
      3 C                    -0.222903
      4 C                    -0.221018
      5 C                    -0.198598
      6 H                     0.182493
      7 H                     0.187441
      8 C                    -0.356694
      9 H                     0.116482
     10 H                     0.135052
     11 H                     0.157572
     12 H                     0.204284
  ----------------------------------------
  Sum of atomic charges =     0.000000

                    Cartesian Multipole Moments
 -----------------------------------------------------------------
    Charge (ESU x 10^10)
                -0.0000
    Dipole Moment (Debye)
         X       0.5203      Y      -0.2704      Z      -1.7854
       Tot       1.8792
    Quadrupole Moments (Debye-Ang)
        XX     -46.4462     XY       3.1228     YY     -37.1621
        XZ       0.3199     YZ       2.0572     ZZ     -42.0685

 Total job time:  10.49s(wall), 565.50s(cpu)
        *  Thank you very much for using Q-Chem.  Have a nice day.  *
