 Q-Chem 5.4, Q-Chem, Inc., Pleasanton, CA (2021)
 Q-Chem 5.4.0 for Intel X86 EM64T Linux

User input:
--------------------------------------------------------------
$molecule
0 1
C	-0.253545	-0.329934	-0.214556
S	0.142855	0.357066	1.365944
C	0.961655	1.775366	0.690344
C	0.245255	0.534466	-1.199956
C	0.905355	1.677866	-0.708056
H	0.127455	0.330366	-2.274456
H	1.345755	2.440766	-1.367156
C	-0.253545	-1.808134	-0.214556
H	-1.317245	-1.808734	-0.027556
H	-0.424845	-2.247434	-1.186156
H	-0.112245	-2.519134	0.586044
H	1.401955	2.538166	1.341444
$end

$rem
JOBTYPE		SP
EXCHANGE	HF
CORRELATION	pRIMP2
BASIS		cc-pvtz
METHOD		rimp2
AUX_BASIS	rimp2-cc-pvtz
SOLVENT_METHOD	PCM
PURECART	11111
SYMMETRY	false
MEM_TOTAL	110000
SCF_CONVERGENCE = 6
THRESH=10
GUI = 2
$end

$solvent
dielectric 4.90
$end
--------------------------------------------------------------

             Standard Nuclear Orientation (Angstroms)
    I     Atom           X                Y                Z
 ----------------------------------------------------------------
    1      C      -0.2535450000    -0.3299340000    -0.2145560000
    2      S       0.1428550000     0.3570660000     1.3659440000
    3      C       0.9616550000     1.7753660000     0.6903440000
    4      C       0.2452550000     0.5344660000    -1.1999560000
    5      C       0.9053550000     1.6778660000    -0.7080560000
    6      H       0.1274550000     0.3303660000    -2.2744560000
    7      H       1.3457550000     2.4407660000    -1.3671560000
    8      C      -0.2535450000    -1.8081340000    -0.2145560000
    9      H      -1.3172450000    -1.8087340000    -0.0275560000
   10      H      -0.4248450000    -2.2474340000    -1.1861560000
   11      H      -0.1122450000    -2.5191340000     0.5860440000
   12      H       1.4019550000     2.5381660000     1.3414440000
 ----------------------------------------------------------------

   10    -590.3503909207      7.13e-07  Convergence criterion met
 Total energy in the final basis set =     -590.3503909207
        RIMP2         total energy =      -591.3561375447 a.u.

                    Orbital Energies (a.u.)
 --------------------------------------------------------------

 Alpha MOs
 -- Occupied --
-91.9766 -11.2809 -11.2696 -11.2432 -11.2378 -11.2216  -8.9767  -6.6576
 -6.6570  -6.6565  -1.1583  -1.0379  -0.9725  -0.9179  -0.7567  -0.7220
 -0.6696  -0.5957  -0.5624  -0.5559  -0.5510  -0.4922  -0.4639  -0.4534
 -0.3457  -0.2971

          Ground-State Mulliken Net Atomic Charges

     Atom                 Charge (a.u.)
  ----------------------------------------
      1 C                    -0.016389
      2 S                    -0.004802
      3 C                    -0.224699
      4 C                    -0.202340
      5 C                    -0.193953
      6 H                     0.184288
      7 H                     0.185562
      8 C                    -0.365160
      9 H                     0.132146
     10 H                     0.130890
     11 H                     0.169348
     12 H                     0.205110
  ----------------------------------------
  Sum of atomic charges =     0.000000

                    Cartesian Multipole Moments
 -----------------------------------------------------------------
    Charge (ESU x 10^10)
                 0.0000
    Dipole Moment (Debye)
         X       0.0197      Y      -0.4759      Z      -0.9913
       Tot       1.0999
    Quadrupole Moments (Debye-Ang)
        XX     -45.8344     XY       5.2512     YY     -38.4570
        XZ       0.5784     YZ       0.3008     ZZ     -41.5782

 Total job time:  10.87s(wall), 565.86s(cpu)
        *  Thank you very much for using Q-Chem.  Have a nice day.  *
