 Q-Chem 5.4, Q-Chem, Inc., Pleasanton, CA (2021)
 Q-Chem 5.4.0 for Intel X86 EM64T Linux

User input:
--------------------------------------------------------------
$molecule
0 1
C	0.004901	-0.399361	-0.217353
S	0.004701	0.393839	1.363147
C	0.004701	2.031539	0.687547
C	0.004701	0.598639	-1.202753
C	0.004601	1.918839	-0.710853
H	0.004801	0.362939	-2.277253
H	0.004601	2.799839	-1.369953
C	0.004901	-1.877561	-0.217353
H	-0.822799	-1.878161	0.476447
H	-0.629299	-2.316861	-0.973153
H	0.527601	-2.588561	0.405347
H	0.004601	2.912239	1.338647
$end

$rem
JOBTYPE		SP
EXCHANGE	HF
CORRELATION	pRIMP2
BASIS		cc-pvtz
METHOD		rimp2
AUX_BASIS	rimp2-cc-pvtz
SOLVENT_METHOD	PCM
PURECART	11111
SYMMETRY	false
MEM_TOTAL	110000
SCF_CONVERGENCE = 6
THRESH=10
GUI = 2
$end

$solvent
dielectric 4.90
$end
--------------------------------------------------------------

             Standard Nuclear Orientation (Angstroms)
    I     Atom           X                Y                Z
 ----------------------------------------------------------------
    1      C       0.0049010000    -0.3993610000    -0.2173530000
    2      S       0.0047010000     0.3938390000     1.3631470000
    3      C       0.0047010000     2.0315390000     0.6875470000
    4      C       0.0047010000     0.5986390000    -1.2027530000
    5      C       0.0046010000     1.9188390000    -0.7108530000
    6      H       0.0048010000     0.3629390000    -2.2772530000
    7      H       0.0046010000     2.7998390000    -1.3699530000
    8      C       0.0049010000    -1.8775610000    -0.2173530000
    9      H      -0.8227990000    -1.8781610000     0.4764470000
   10      H      -0.6292990000    -2.3168610000    -0.9731530000
   11      H       0.5276010000    -2.5885610000     0.4053470000
   12      H       0.0046010000     2.9122390000     1.3386470000
 ----------------------------------------------------------------

   10    -590.3729688841      5.97e-07  Convergence criterion met
 Total energy in the final basis set =     -590.3729688841
        RIMP2         total energy =      -591.3735206395 a.u.

                    Orbital Energies (a.u.)
 --------------------------------------------------------------

 Alpha MOs
 -- Occupied --
-91.9777 -11.2883 -11.2662 -11.2428 -11.2348 -11.2261  -8.9778  -6.6587
 -6.6582  -6.6576  -1.1575  -1.0403  -0.9720  -0.9194  -0.7567  -0.7208
 -0.6711  -0.5983  -0.5679  -0.5601  -0.5400  -0.4953  -0.4708  -0.4537
 -0.3465  -0.3039

          Ground-State Mulliken Net Atomic Charges

     Atom                 Charge (a.u.)
  ----------------------------------------
      1 C                     0.018583
      2 S                    -0.008286
      3 C                    -0.236944
      4 C                    -0.225257
      5 C                    -0.190986
      6 H                     0.185002
      7 H                     0.185472
      8 C                    -0.351941
      9 H                     0.126101
     10 H                     0.132193
     11 H                     0.161357
     12 H                     0.204706
  ----------------------------------------
  Sum of atomic charges =     0.000000

                    Cartesian Multipole Moments
 -----------------------------------------------------------------
    Charge (ESU x 10^10)
                -0.0000
    Dipole Moment (Debye)
         X      -0.5377      Y      -0.5439      Z      -0.6559
       Tot       1.0076
    Quadrupole Moments (Debye-Ang)
        XX     -47.9699     XY       0.9798     YY     -35.9018
        XZ       0.4985     YZ      -0.2111     ZZ     -42.1211

 Total job time:  11.86s(wall), 565.65s(cpu)
        *  Thank you very much for using Q-Chem.  Have a nice day.  *
