 Q-Chem 5.4, Q-Chem, Inc., Pleasanton, CA (2021)
 Q-Chem 5.4.0 for Intel X86 EM64T Linux

User input:
--------------------------------------------------------------
$molecule
0 1
C	-0.391819	-0.214208	-0.212630
S	0.215681	0.295792	1.367870
C	1.470181	1.348492	0.692270
C	0.372581	0.427392	-1.198030
C	1.383881	1.276092	-0.706130
H	0.192081	0.275892	-2.272530
H	2.058681	1.842392	-1.365230
C	-0.391819	-1.692408	-0.212630
H	-1.455319	-1.693008	-0.400730
H	-0.220419	-2.131708	-1.184230
H	-0.532819	-2.403408	0.588070
H	2.144781	1.914692	1.343370
$end

$rem
JOBTYPE		SP
EXCHANGE	HF
CORRELATION	pRIMP2
BASIS		cc-pvtz
METHOD		rimp2
AUX_BASIS	rimp2-cc-pvtz
SOLVENT_METHOD	PCM
PURECART	11111
SYMMETRY	false
MEM_TOTAL	110000
SCF_CONVERGENCE = 6
THRESH=10
GUI = 2
$end

$solvent
dielectric 4.90
$end
--------------------------------------------------------------

             Standard Nuclear Orientation (Angstroms)
    I     Atom           X                Y                Z
 ----------------------------------------------------------------
    1      C      -0.3918190000    -0.2142080000    -0.2126300000
    2      S       0.2156810000     0.2957920000     1.3678700000
    3      C       1.4701810000     1.3484920000     0.6922700000
    4      C       0.3725810000     0.4273920000    -1.1980300000
    5      C       1.3838810000     1.2760920000    -0.7061300000
    6      H       0.1920810000     0.2758920000    -2.2725300000
    7      H       2.0586810000     1.8423920000    -1.3652300000
    8      C      -0.3918190000    -1.6924080000    -0.2126300000
    9      H      -1.4553190000    -1.6930080000    -0.4007300000
   10      H      -0.2204190000    -2.1317080000    -1.1842300000
   11      H      -0.5328190000    -2.4034080000     0.5880700000
   12      H       2.1447810000     1.9146920000     1.3433700000
 ----------------------------------------------------------------

   11    -590.3136923029      5.58e-07  Convergence criterion met
 Total energy in the final basis set =     -590.3136923029
        RIMP2         total energy =      -591.3271186467 a.u.

                    Orbital Energies (a.u.)
 --------------------------------------------------------------

 Alpha MOs
 -- Occupied --
-91.9742 -11.2809 -11.2629 -11.2486 -11.2439 -11.2136  -8.9747  -6.6555
 -6.6547  -6.6544  -1.1626  -1.0354  -0.9753  -0.9125  -0.7597  -0.7252
 -0.6691  -0.5923  -0.5617  -0.5578  -0.5483  -0.4980  -0.4593  -0.4359
 -0.3441  -0.2936

          Ground-State Mulliken Net Atomic Charges

     Atom                 Charge (a.u.)
  ----------------------------------------
      1 C                    -0.061080
      2 S                     0.006030
      3 C                    -0.190720
      4 C                    -0.151341
      5 C                    -0.213667
      6 H                     0.184760
      7 H                     0.186244
      8 C                    -0.381710
      9 H                     0.124908
     10 H                     0.130625
     11 H                     0.160859
     12 H                     0.205093
  ----------------------------------------
  Sum of atomic charges =     0.000000

                    Cartesian Multipole Moments
 -----------------------------------------------------------------
    Charge (ESU x 10^10)
                 0.0000
    Dipole Moment (Debye)
         X       0.9656      Y      -0.2110      Z      -1.2631
       Tot       1.6038
    Quadrupole Moments (Debye-Ang)
        XX     -42.8064     XY       5.8725     YY     -42.0653
        XZ       0.5474     YZ       0.5094     ZZ     -41.0319

 Total job time:  11.27s(wall), 614.19s(cpu)
        *  Thank you very much for using Q-Chem.  Have a nice day.  *
