 Q-Chem 5.4, Q-Chem, Inc., Pleasanton, CA (2021)
 Q-Chem 5.4.0 for Intel X86 EM64T Linux

User input:
--------------------------------------------------------------
$molecule
0 1
C 0.0000 0.0000 0.0000
S -0.0002 0.7932 1.5805
C -0.0002 2.4309 0.9049
C -0.0002 0.9980 -0.9854
C -0.0003 2.3182 -0.4935
H -0.0001 0.7623 -2.0599
H -0.0003 3.1992 -1.1526
C -0.0000 -1.4782 0.0000
H 1.0635 -1.4788 0.1881
H -0.1714 -1.9175 0.9716
H 0.1410 -2.1892 -0.8007
H -0.0003 3.3116 1.5560
$end

$rem
JOBTYPE         SP
EXCHANGE        HF
CORRELATION     pRIMP2
BASIS           cc-pvtz
METHOD          rimp2
AUX_BASIS       rimp2-cc-pvtz
SOLVENT_METHOD  PCM
PURECART        11111
SYMMETRY        false
MEM_TOTAL       110000
SCF_CONVERGENCE = 6
THRESH=10
GUI = 2
$end

$solvent
dielectric 4.90
$end
--------------------------------------------------------------

             Standard Nuclear Orientation (Angstroms)
    I     Atom           X                Y                Z
 ----------------------------------------------------------------
    1      C       0.0000000000     0.0000000000     0.0000000000
    2      S      -0.0002000000     0.7932000000     1.5805000000
    3      C      -0.0002000000     2.4309000000     0.9049000000
    4      C      -0.0002000000     0.9980000000    -0.9854000000
    5      C      -0.0003000000     2.3182000000    -0.4935000000
    6      H      -0.0001000000     0.7623000000    -2.0599000000
    7      H      -0.0003000000     3.1992000000    -1.1526000000
    8      C       0.0000000000    -1.4782000000     0.0000000000
    9      H       1.0635000000    -1.4788000000     0.1881000000
   10      H      -0.1714000000    -1.9175000000     0.9716000000
   11      H       0.1410000000    -2.1892000000    -0.8007000000
   12      H      -0.0003000000     3.3116000000     1.5560000000
 ----------------------------------------------------------------

   10    -590.3743994003      6.44e-07  Convergence criterion met
 Total energy in the final basis set =     -590.3743994003
        RIMP2         total energy =      -591.3738341897 a.u.

                    Orbital Energies (a.u.)
 --------------------------------------------------------------

 Alpha MOs
 -- Occupied --
-91.9792 -11.2920 -11.2625 -11.2427 -11.2300 -11.2287  -8.9791  -6.6600
 -6.6596  -6.6589  -1.1571  -1.0413  -0.9711  -0.9198  -0.7549  -0.7215
 -0.6713  -0.5974  -0.5653  -0.5582  -0.5405  -0.4973  -0.4775  -0.4567
 -0.3469  -0.2979

          Ground-State Mulliken Net Atomic Charges

     Atom                 Charge (a.u.)
  ----------------------------------------
      1 C                     0.021371
      2 S                    -0.003571
      3 C                    -0.249731
      4 C                    -0.238262
      5 C                    -0.186677
      6 H                     0.182330
      7 H                     0.184859
      8 C                    -0.362513
      9 H                     0.140838
     10 H                     0.137657
     11 H                     0.168908
     12 H                     0.204793
  ----------------------------------------
  Sum of atomic charges =     0.000000

                    Cartesian Multipole Moments
 -----------------------------------------------------------------
    Charge (ESU x 10^10)
                 0.0000
    Dipole Moment (Debye)
         X       0.7315      Y      -0.8517      Z      -0.9211
       Tot       1.4522
    Quadrupole Moments (Debye-Ang)
        XX     -48.2833     XY      -1.2029     YY     -36.4868
        XZ      -0.1678     YZ       0.2913     ZZ     -42.2174

 Total job time:  12.29s(wall), 589.34s(cpu)
        *  Thank you very much for using Q-Chem.  Have a nice day.  *
