 Q-Chem 5.4, Q-Chem, Inc., Pleasanton, CA (2021)
 Q-Chem 5.4.0 for Intel X86 EM64T Linux

User input:
--------------------------------------------------------------
$molecule
0 1
C	-0.395126	-0.214208	-0.209225
S	0.212374	0.295792	1.371275
C	1.466874	1.348492	0.695675
C	0.369274	0.427392	-1.194625
C	1.380574	1.276092	-0.702725
H	0.188774	0.275892	-2.269125
H	2.055374	1.842392	-1.361825
C	-0.395126	-1.692408	-0.209225
H	-0.934626	-1.693008	-1.144825
H	0.459374	-2.131708	-0.702525
H	-1.099126	-2.403408	0.197375
H	2.141474	1.914692	1.346775
$end

$rem
JOBTYPE		SP
EXCHANGE	HF
CORRELATION	pRIMP2
BASIS		cc-pvtz
METHOD		rimp2
AUX_BASIS	rimp2-cc-pvtz
SOLVENT_METHOD	PCM
PURECART	11111
SYMMETRY	false
MEM_TOTAL	110000
SCF_CONVERGENCE = 6
THRESH=10
GUI = 2
$end

$solvent
dielectric 4.90
$end
--------------------------------------------------------------

             Standard Nuclear Orientation (Angstroms)
    I     Atom           X                Y                Z
 ----------------------------------------------------------------
    1      C      -0.3951260000    -0.2142080000    -0.2092250000
    2      S       0.2123740000     0.2957920000     1.3712750000
    3      C       1.4668740000     1.3484920000     0.6956750000
    4      C       0.3692740000     0.4273920000    -1.1946250000
    5      C       1.3805740000     1.2760920000    -0.7027250000
    6      H       0.1887740000     0.2758920000    -2.2691250000
    7      H       2.0553740000     1.8423920000    -1.3618250000
    8      C      -0.3951260000    -1.6924080000    -0.2092250000
    9      H      -0.9346260000    -1.6930080000    -1.1448250000
   10      H       0.4593740000    -2.1317080000    -0.7025250000
   11      H      -1.0991260000    -2.4034080000     0.1973750000
   12      H       2.1414740000     1.9146920000     1.3467750000
 ----------------------------------------------------------------

   11    -590.3257615191      4.92e-07  Convergence criterion met
 Total energy in the final basis set =     -590.3257615191
        RIMP2         total energy =      -591.3378365377 a.u.

                    Orbital Energies (a.u.)
 --------------------------------------------------------------

 Alpha MOs
 -- Occupied --
-91.9730 -11.2840 -11.2632 -11.2524 -11.2451 -11.2166  -8.9737  -6.6544
 -6.6536  -6.6534  -1.1643  -1.0364  -0.9764  -0.9115  -0.7592  -0.7273
 -0.6714  -0.5940  -0.5741  -0.5576  -0.5389  -0.4956  -0.4645  -0.4261
 -0.3436  -0.3078

          Ground-State Mulliken Net Atomic Charges

     Atom                 Charge (a.u.)
  ----------------------------------------
      1 C                    -0.062292
      2 S                     0.006021
      3 C                    -0.177896
      4 C                    -0.144989
      5 C                    -0.224416
      6 H                     0.184960
      7 H                     0.187379
      8 C                    -0.368967
      9 H                     0.108916
     10 H                     0.135069
     11 H                     0.150864
     12 H                     0.205351
  ----------------------------------------
  Sum of atomic charges =     0.000000

                    Cartesian Multipole Moments
 -----------------------------------------------------------------
    Charge (ESU x 10^10)
                 0.0000
    Dipole Moment (Debye)
         X       1.4027      Y      -0.0545      Z      -1.6830
       Tot       2.1916
    Quadrupole Moments (Debye-Ang)
        XX     -42.3199     XY       5.6340     YY     -41.9472
        XZ       0.4192     YZ       1.3850     ZZ     -41.5100

 Total job time:  11.31s(wall), 614.08s(cpu)
        *  Thank you very much for using Q-Chem.  Have a nice day.  *
