 Q-Chem 5.4, Q-Chem, Inc., Pleasanton, CA (2021)
 Q-Chem 5.4.0 for Intel X86 EM64T Linux

User input:
--------------------------------------------------------------
$molecule
0 1
C	-0.392769	-0.214208	-0.210927
S	0.214731	0.295792	1.369573
C	1.469231	1.348492	0.693973
C	0.371631	0.427392	-1.196327
C	1.382931	1.276092	-0.704427
H	0.191131	0.275892	-2.270827
H	2.057731	1.842392	-1.363527
C	-0.392769	-1.692408	-0.210927
H	-1.327769	-1.693008	-0.751427
H	0.100531	-2.131708	-1.065327
H	-0.799169	-2.403408	0.493173
H	2.143831	1.914692	1.345073
$end

$rem
JOBTYPE		SP
EXCHANGE	HF
CORRELATION	pRIMP2
BASIS		cc-pvtz
METHOD		rimp2
AUX_BASIS	rimp2-cc-pvtz
SOLVENT_METHOD	PCM
PURECART	11111
SYMMETRY	false
MEM_TOTAL	110000
SCF_CONVERGENCE = 6
THRESH=10
GUI = 2
$end

$solvent
dielectric 4.90
$end
--------------------------------------------------------------

             Standard Nuclear Orientation (Angstroms)
    I     Atom           X                Y                Z
 ----------------------------------------------------------------
    1      C      -0.3927690000    -0.2142080000    -0.2109270000
    2      S       0.2147310000     0.2957920000     1.3695730000
    3      C       1.4692310000     1.3484920000     0.6939730000
    4      C       0.3716310000     0.4273920000    -1.1963270000
    5      C       1.3829310000     1.2760920000    -0.7044270000
    6      H       0.1911310000     0.2758920000    -2.2708270000
    7      H       2.0577310000     1.8423920000    -1.3635270000
    8      C      -0.3927690000    -1.6924080000    -0.2109270000
    9      H      -1.3277690000    -1.6930080000    -0.7514270000
   10      H       0.1005310000    -2.1317080000    -1.0653270000
   11      H      -0.7991690000    -2.4034080000     0.4931730000
   12      H       2.1438310000     1.9146920000     1.3450730000
 ----------------------------------------------------------------

   11    -590.3171134851      5.50e-07  Convergence criterion met
 Total energy in the final basis set =     -590.3171134851
        RIMP2         total energy =      -591.3304266383 a.u.

                    Orbital Energies (a.u.)
 --------------------------------------------------------------

 Alpha MOs
 -- Occupied --
-91.9732 -11.2812 -11.2635 -11.2499 -11.2445 -11.2146  -8.9739  -6.6546
 -6.6538  -6.6535  -1.1630  -1.0357  -0.9754  -0.9123  -0.7591  -0.7259
 -0.6698  -0.5926  -0.5667  -0.5579  -0.5429  -0.5005  -0.4612  -0.4310
 -0.3438  -0.2970

          Ground-State Mulliken Net Atomic Charges

     Atom                 Charge (a.u.)
  ----------------------------------------
      1 C                    -0.056040
      2 S                     0.007707
      3 C                    -0.186984
      4 C                    -0.158473
      5 C                    -0.213239
      6 H                     0.183461
      7 H                     0.187034
      8 C                    -0.384246
      9 H                     0.122714
     10 H                     0.135239
     11 H                     0.158909
     12 H                     0.203918
  ----------------------------------------
  Sum of atomic charges =     0.000000

                    Cartesian Multipole Moments
 -----------------------------------------------------------------
    Charge (ESU x 10^10)
                 0.0000
    Dipole Moment (Debye)
         X       1.0511      Y      -0.1983      Z      -1.4788
       Tot       1.8251
    Quadrupole Moments (Debye-Ang)
        XX     -42.6279     XY       5.8754     YY     -42.0296
        XZ       0.3383     YZ       0.8760     ZZ     -41.1754

 Total job time:  12.22s(wall), 645.11s(cpu)
        *  Thank you very much for using Q-Chem.  Have a nice day.  *
