 Q-Chem 5.4, Q-Chem, Inc., Pleasanton, CA (2021)
 Q-Chem 5.4.0 for Intel X86 EM64T Linux

User input:
--------------------------------------------------------------
$molecule
0 1
C	-0.392301	-0.214208	-0.217353
S	0.215199	0.295792	1.363147
C	1.469699	1.348492	0.687547
C	0.372099	0.427392	-1.202753
C	1.383399	1.276092	-0.710853
H	0.191599	0.275892	-2.277253
H	2.058199	1.842392	-1.369953
C	-0.392301	-1.692408	-0.217353
H	-1.220001	-1.693008	0.476447
H	-1.026501	-2.131708	-0.973153
H	0.130399	-2.403408	0.405347
H	2.144299	1.914692	1.338647
$end

$rem
JOBTYPE		SP
EXCHANGE	HF
CORRELATION	pRIMP2
BASIS		cc-pvtz
METHOD		rimp2
AUX_BASIS	rimp2-cc-pvtz
SOLVENT_METHOD	PCM
PURECART	11111
SYMMETRY	false
MEM_TOTAL	110000
SCF_CONVERGENCE = 6
THRESH=10
GUI = 2
$end

$solvent
dielectric 4.90
$end
--------------------------------------------------------------

             Standard Nuclear Orientation (Angstroms)
    I     Atom           X                Y                Z
 ----------------------------------------------------------------
    1      C      -0.3923010000    -0.2142080000    -0.2173530000
    2      S       0.2151990000     0.2957920000     1.3631470000
    3      C       1.4696990000     1.3484920000     0.6875470000
    4      C       0.3720990000     0.4273920000    -1.2027530000
    5      C       1.3833990000     1.2760920000    -0.7108530000
    6      H       0.1915990000     0.2758920000    -2.2772530000
    7      H       2.0581990000     1.8423920000    -1.3699530000
    8      C      -0.3923010000    -1.6924080000    -0.2173530000
    9      H      -1.2200010000    -1.6930080000     0.4764470000
   10      H      -1.0265010000    -2.1317080000    -0.9731530000
   11      H       0.1303990000    -2.4034080000     0.4053470000
   12      H       2.1442990000     1.9146920000     1.3386470000
 ----------------------------------------------------------------

   11    -590.3196783958      5.70e-07  Convergence criterion met
 Total energy in the final basis set =     -590.3196783958
        RIMP2         total energy =      -591.3310270831 a.u.

                    Orbital Energies (a.u.)
 --------------------------------------------------------------

 Alpha MOs
 -- Occupied --
-91.9777 -11.2869 -11.2572 -11.2505 -11.2444 -11.2143  -8.9780  -6.6589
 -6.6582  -6.6578  -1.1642  -1.0356  -0.9774  -0.9119  -0.7631  -0.7248
 -0.6704  -0.5929  -0.5655  -0.5601  -0.5499  -0.4791  -0.4524  -0.4492
 -0.3454  -0.3046

          Ground-State Mulliken Net Atomic Charges

     Atom                 Charge (a.u.)
  ----------------------------------------
      1 C                    -0.100047
      2 S                     0.005812
      3 C                    -0.172642
      4 C                    -0.115137
      5 C                    -0.220560
      6 H                     0.186380
      7 H                     0.185542
      8 C                    -0.369996
      9 H                     0.117838
     10 H                     0.118164
     11 H                     0.157080
     12 H                     0.207567
  ----------------------------------------
  Sum of atomic charges =     0.000000

                    Cartesian Multipole Moments
 -----------------------------------------------------------------
    Charge (ESU x 10^10)
                 0.0000
    Dipole Moment (Debye)
         X       1.4027      Y       0.1660      Z      -0.7713
       Tot       1.6094
    Quadrupole Moments (Debye-Ang)
        XX     -42.5192     XY       5.5371     YY     -42.0488
        XZ       1.0171     YZ      -0.1289     ZZ     -41.3595

 Total job time:  13.75s(wall), 603.41s(cpu)
        *  Thank you very much for using Q-Chem.  Have a nice day.  *
