 Q-Chem 5.4, Q-Chem, Inc., Pleasanton, CA (2021)
 Q-Chem 5.4.0 for Intel X86 EM64T Linux

User input:
--------------------------------------------------------------
$molecule
0 1
C	0.002076	-0.399361	-0.209225
S	0.001876	0.393839	1.371275
C	0.001876	2.031539	0.695675
C	0.001876	0.598639	-1.194625
C	0.001776	1.918839	-0.702725
H	0.001976	0.362939	-2.269125
H	0.001776	2.799839	-1.361825
C	0.002076	-1.877561	-0.209225
H	-0.537424	-1.878161	-1.144825
H	0.856576	-2.316861	-0.702525
H	-0.701924	-2.588561	0.197375
H	0.001776	2.912239	1.346775
$end

$rem
JOBTYPE		SP
EXCHANGE	HF
CORRELATION	pRIMP2
BASIS		cc-pvtz
METHOD		rimp2
AUX_BASIS	rimp2-cc-pvtz
SOLVENT_METHOD	PCM
PURECART	11111
SYMMETRY	false
MEM_TOTAL	110000
SCF_CONVERGENCE = 6
THRESH=10
GUI = 2
$end

$solvent
dielectric 4.90
$end
--------------------------------------------------------------

             Standard Nuclear Orientation (Angstroms)
    I     Atom           X                Y                Z
 ----------------------------------------------------------------
    1      C       0.0020760000    -0.3993610000    -0.2092250000
    2      S       0.0018760000     0.3938390000     1.3712750000
    3      C       0.0018760000     2.0315390000     0.6956750000
    4      C       0.0018760000     0.5986390000    -1.1946250000
    5      C       0.0017760000     1.9188390000    -0.7027250000
    6      H       0.0019760000     0.3629390000    -2.2691250000
    7      H       0.0017760000     2.7998390000    -1.3618250000
    8      C       0.0020760000    -1.8775610000    -0.2092250000
    9      H      -0.5374240000    -1.8781610000    -1.1448250000
   10      H       0.8565760000    -2.3168610000    -0.7025250000
   11      H      -0.7019240000    -2.5885610000     0.1973750000
   12      H       0.0017760000     2.9122390000     1.3467750000
 ----------------------------------------------------------------

   10    -590.3726992682      5.87e-07  Convergence criterion met
 Total energy in the final basis set =     -590.3726992682
        RIMP2         total energy =      -591.3747111739 a.u.

                    Orbital Energies (a.u.)
 --------------------------------------------------------------

 Alpha MOs
 -- Occupied --
-91.9756 -11.2877 -11.2660 -11.2430 -11.2385 -11.2246  -8.9756  -6.6565
 -6.6559  -6.6554  -1.1567  -1.0386  -0.9722  -0.9195  -0.7538  -0.7237
 -0.6720  -0.5981  -0.5679  -0.5609  -0.5422  -0.4985  -0.4677  -0.4416
 -0.3451  -0.3078

          Ground-State Mulliken Net Atomic Charges

     Atom                 Charge (a.u.)
  ----------------------------------------
      1 C                     0.036045
      2 S                    -0.005944
      3 C                    -0.237216
      4 C                    -0.229242
      5 C                    -0.194620
      6 H                     0.182551
      7 H                     0.186145
      8 C                    -0.363428
      9 H                     0.125716
     10 H                     0.129324
     11 H                     0.167374
     12 H                     0.203295
  ----------------------------------------
  Sum of atomic charges =     0.000000

                    Cartesian Multipole Moments
 -----------------------------------------------------------------
    Charge (ESU x 10^10)
                -0.0000
    Dipole Moment (Debye)
         X      -0.3409      Y      -0.5181      Z      -1.7122
       Tot       1.8210
    Quadrupole Moments (Debye-Ang)
        XX     -47.6648     XY       0.9491     YY     -36.0051
        XZ      -0.2747     YZ       1.8481     ZZ     -42.0001

 Total job time:  10.33s(wall), 565.15s(cpu)
        *  Thank you very much for using Q-Chem.  Have a nice day.  *
