 Q-Chem 5.4, Q-Chem, Inc., Pleasanton, CA (2021)
 Q-Chem 5.4.0 for Intel X86 EM64T Linux

User input:
--------------------------------------------------------------
$molecule
0 1
C	-0.254911	-0.329934	-0.218146
S	0.141489	0.357066	1.362354
C	0.960289	1.775366	0.686754
C	0.243889	0.534466	-1.203546
C	0.903989	1.677866	-0.711646
H	0.126089	0.330366	-2.278046
H	1.344389	2.440766	-1.370746
C	-0.254911	-1.808134	-0.218146
H	-0.949511	-1.808734	0.608854
H	-1.010711	-2.247434	-0.852346
H	0.367989	-2.519134	0.304354
H	1.400589	2.538166	1.337854
$end

$rem
JOBTYPE		SP
EXCHANGE	HF
CORRELATION	pRIMP2
BASIS		cc-pvtz
METHOD		rimp2
AUX_BASIS	rimp2-cc-pvtz
SOLVENT_METHOD	PCM
PURECART	11111
SYMMETRY	false
MEM_TOTAL	110000
SCF_CONVERGENCE = 6
THRESH=10
GUI = 2
$end

$solvent
dielectric 4.90
$end
--------------------------------------------------------------

             Standard Nuclear Orientation (Angstroms)
    I     Atom           X                Y                Z
 ----------------------------------------------------------------
    1      C      -0.2549110000    -0.3299340000    -0.2181460000
    2      S       0.1414890000     0.3570660000     1.3623540000
    3      C       0.9602890000     1.7753660000     0.6867540000
    4      C       0.2438890000     0.5344660000    -1.2035460000
    5      C       0.9039890000     1.6778660000    -0.7116460000
    6      H       0.1260890000     0.3303660000    -2.2780460000
    7      H       1.3443890000     2.4407660000    -1.3707460000
    8      C      -0.2549110000    -1.8081340000    -0.2181460000
    9      H      -0.9495110000    -1.8087340000     0.6088540000
   10      H      -1.0107110000    -2.2474340000    -0.8523460000
   11      H       0.3679890000    -2.5191340000     0.3043540000
   12      H       1.4005890000     2.5381660000     1.3378540000
 ----------------------------------------------------------------

   10    -590.3527720656      7.61e-07  Convergence criterion met
 Total energy in the final basis set =     -590.3527720656
        RIMP2         total energy =      -591.3585488555 a.u.

                    Orbital Energies (a.u.)
 --------------------------------------------------------------

 Alpha MOs
 -- Occupied --
-91.9789 -11.2749 -11.2748 -11.2436 -11.2407 -11.2203  -8.9789  -6.6598
 -6.6592  -6.6587  -1.1595  -1.0375  -0.9742  -0.9168  -0.7594  -0.7216
 -0.6708  -0.5952  -0.5666  -0.5614  -0.5444  -0.4832  -0.4642  -0.4522
 -0.3462  -0.3072

          Ground-State Mulliken Net Atomic Charges

     Atom                 Charge (a.u.)
  ----------------------------------------
      1 C                    -0.033316
      2 S                    -0.001046
      3 C                    -0.212298
      4 C                    -0.185869
      5 C                    -0.197604
      6 H                     0.184200
      7 H                     0.186359
      8 C                    -0.349798
      9 H                     0.116264
     10 H                     0.125859
     11 H                     0.161487
     12 H                     0.205763
  ----------------------------------------
  Sum of atomic charges =     0.000000

                    Cartesian Multipole Moments
 -----------------------------------------------------------------
    Charge (ESU x 10^10)
                 0.0000
    Dipole Moment (Debye)
         X       0.4494      Y      -0.0573      Z      -0.6356
       Tot       0.7805
    Quadrupole Moments (Debye-Ang)
        XX     -45.4416     XY       4.6966     YY     -38.5141
        XZ       0.7312     YZ      -0.2255     ZZ     -41.9537

 Total job time:  10.90s(wall), 563.19s(cpu)
        *  Thank you very much for using Q-Chem.  Have a nice day.  *
