 Q-Chem 5.4, Q-Chem, Inc., Pleasanton, CA (2021)
 Q-Chem 5.4.0 for Intel X86 EM64T Linux

User input:
--------------------------------------------------------------
$molecule
0 1
C	-0.050719	-0.397395	-0.214392
S	0.018181	0.392805	1.366108
C	0.160881	2.024305	0.690508
C	0.036081	0.596805	-1.199792
C	0.151081	1.912005	-0.707892
H	0.015581	0.362105	-2.274292
H	0.227781	2.789605	-1.366992
C	-0.050719	-1.875595	-0.214392
H	1.012981	-1.876195	-0.401392
H	0.120581	-2.314895	0.757208
H	-0.192019	-2.586595	-1.014992
H	0.237581	2.901605	1.341608
$end

$rem
JOBTYPE		SP
EXCHANGE	HF
CORRELATION	pRIMP2
BASIS		cc-pvtz
METHOD		rimp2
AUX_BASIS	rimp2-cc-pvtz
SOLVENT_METHOD	PCM
PURECART	11111
SYMMETRY	false
MEM_TOTAL	110000
SCF_CONVERGENCE = 6
THRESH=10
GUI = 2
$end

$solvent
dielectric 4.90
$end
--------------------------------------------------------------

             Standard Nuclear Orientation (Angstroms)
    I     Atom           X                Y                Z
 ----------------------------------------------------------------
    1      C      -0.0507190000    -0.3973950000    -0.2143920000
    2      S       0.0181810000     0.3928050000     1.3661080000
    3      C       0.1608810000     2.0243050000     0.6905080000
    4      C       0.0360810000     0.5968050000    -1.1997920000
    5      C       0.1510810000     1.9120050000    -0.7078920000
    6      H       0.0155810000     0.3621050000    -2.2742920000
    7      H       0.2277810000     2.7896050000    -1.3669920000
    8      C      -0.0507190000    -1.8755950000    -0.2143920000
    9      H       1.0129810000    -1.8761950000    -0.4013920000
   10      H       0.1205810000    -2.3148950000     0.7572080000
   11      H      -0.1920190000    -2.5865950000    -1.0149920000
   12      H       0.2375810000     2.9016050000     1.3416080000
 ----------------------------------------------------------------

   10    -590.3743510533      6.48e-07  Convergence criterion met
 Total energy in the final basis set =     -590.3743510533
        RIMP2         total energy =      -591.3741781805 a.u.

                    Orbital Energies (a.u.)
 --------------------------------------------------------------

 Alpha MOs
 -- Occupied --
-91.9795 -11.2924 -11.2615 -11.2429 -11.2298 -11.2289  -8.9793  -6.6602
 -6.6597  -6.6591  -1.1571  -1.0410  -0.9712  -0.9195  -0.7544  -0.7222
 -0.6714  -0.5974  -0.5656  -0.5551  -0.5441  -0.4971  -0.4765  -0.4564
 -0.3466  -0.2977

          Ground-State Mulliken Net Atomic Charges

     Atom                 Charge (a.u.)
  ----------------------------------------
      1 C                     0.028452
      2 S                     0.001573
      3 C                    -0.252879
      4 C                    -0.244322
      5 C                    -0.185801
      6 H                     0.179608
      7 H                     0.185428
      8 C                    -0.364228
      9 H                     0.143819
     10 H                     0.137297
     11 H                     0.167071
     12 H                     0.203983
  ----------------------------------------
  Sum of atomic charges =     0.000000

                    Cartesian Multipole Moments
 -----------------------------------------------------------------
    Charge (ESU x 10^10)
                -0.0000
    Dipole Moment (Debye)
         X       0.8248      Y      -0.8917      Z      -1.1686
       Tot       1.6856
    Quadrupole Moments (Debye-Ang)
        XX     -48.2940     XY      -0.6608     YY     -35.9622
        XZ      -0.0203     YZ       1.3258     ZZ     -41.7002

 Total job time:  10.38s(wall), 567.84s(cpu)
        *  Thank you very much for using Q-Chem.  Have a nice day.  *
