 Q-Chem 5.4, Q-Chem, Inc., Pleasanton, CA (2021)
 Q-Chem 5.4.0 for Intel X86 EM64T Linux

User input:
--------------------------------------------------------------
$molecule
0 1
C	-0.214215	-0.350804	-0.217353
S	0.120785	0.368096	1.363147
C	0.812885	1.852396	0.687547
C	0.207385	0.553796	-1.202753
C	0.765285	1.750296	-0.710853
H	0.107785	0.340196	-2.277253
H	1.137485	2.548796	-1.369953
C	-0.214215	-1.829004	-0.217353
H	-1.041915	-1.829604	0.476447
H	-0.848415	-2.268304	-0.973153
H	0.308485	-2.540004	0.405347
H	1.184985	2.650596	1.338647
$end

$rem
JOBTYPE		SP
EXCHANGE	HF
CORRELATION	pRIMP2
BASIS		cc-pvtz
METHOD		rimp2
AUX_BASIS	rimp2-cc-pvtz
SOLVENT_METHOD	PCM
PURECART	11111
SYMMETRY	false
MEM_TOTAL	110000
SCF_CONVERGENCE = 6
THRESH=10
GUI = 2
$end

$solvent
dielectric 4.90
$end
--------------------------------------------------------------

             Standard Nuclear Orientation (Angstroms)
    I     Atom           X                Y                Z
 ----------------------------------------------------------------
    1      C      -0.2142150000    -0.3508040000    -0.2173530000
    2      S       0.1207850000     0.3680960000     1.3631470000
    3      C       0.8128850000     1.8523960000     0.6875470000
    4      C       0.2073850000     0.5537960000    -1.2027530000
    5      C       0.7652850000     1.7502960000    -0.7108530000
    6      H       0.1077850000     0.3401960000    -2.2772530000
    7      H       1.1374850000     2.5487960000    -1.3699530000
    8      C      -0.2142150000    -1.8290040000    -0.2173530000
    9      H      -1.0419150000    -1.8296040000     0.4764470000
   10      H      -0.8484150000    -2.2683040000    -0.9731530000
   11      H       0.3084850000    -2.5400040000     0.4053470000
   12      H       1.1849850000     2.6505960000     1.3386470000
 ----------------------------------------------------------------

   10    -590.3582807316      6.79e-07  Convergence criterion met
 Total energy in the final basis set =     -590.3582807316
        RIMP2         total energy =      -591.3626272520 a.u.

                    Orbital Energies (a.u.)
 --------------------------------------------------------------

 Alpha MOs
 -- Occupied --
-91.9784 -11.2796 -11.2717 -11.2433 -11.2384 -11.2220  -8.9784  -6.6593
 -6.6588  -6.6582  -1.1585  -1.0382  -0.9732  -0.9181  -0.7581  -0.7214
 -0.6707  -0.5962  -0.5656  -0.5606  -0.5447  -0.4857  -0.4673  -0.4536
 -0.3463  -0.3043

          Ground-State Mulliken Net Atomic Charges

     Atom                 Charge (a.u.)
  ----------------------------------------
      1 C                    -0.024461
      2 S                    -0.005477
      3 C                    -0.217617
      4 C                    -0.193400
      5 C                    -0.197335
      6 H                     0.184246
      7 H                     0.185765
      8 C                    -0.352178
      9 H                     0.122878
     10 H                     0.127901
     11 H                     0.164331
     12 H                     0.205347
  ----------------------------------------
  Sum of atomic charges =     0.000000

                    Cartesian Multipole Moments
 -----------------------------------------------------------------
    Charge (ESU x 10^10)
                -0.0000
    Dipole Moment (Debye)
         X       0.1351      Y      -0.2398      Z      -0.6900
       Tot       0.7429
    Quadrupole Moments (Debye-Ang)
        XX     -46.2069     XY       4.4273     YY     -37.7459
        XZ       0.7150     YZ      -0.1432     ZZ     -41.9273

 Total job time:  10.24s(wall), 550.92s(cpu)
        *  Thank you very much for using Q-Chem.  Have a nice day.  *
