 Q-Chem 5.4, Q-Chem, Inc., Pleasanton, CA (2021)
 Q-Chem 5.4.0 for Intel X86 EM64T Linux

User input:
--------------------------------------------------------------
$molecule
0 1
C	-0.444144	-0.140188	-0.217353
S	0.242656	0.256612	1.363147
C	1.660956	1.075412	0.687547
C	0.420056	0.358912	-1.202753
C	1.563356	1.019112	-0.710853
H	0.215956	0.241112	-2.277253
H	2.326256	1.459712	-1.369953
C	-0.444144	-1.618388	-0.217353
H	-1.271844	-1.618988	0.476447
H	-1.078344	-2.057688	-0.973153
H	0.078556	-2.329388	0.405347
H	2.423556	1.515912	1.338647
$end

$rem
JOBTYPE		SP
EXCHANGE	HF
CORRELATION	pRIMP2
BASIS		cc-pvtz
METHOD		rimp2
AUX_BASIS	rimp2-cc-pvtz
SOLVENT_METHOD	PCM
PURECART	11111
SYMMETRY	false
MEM_TOTAL	110000
SCF_CONVERGENCE = 6
THRESH=10
GUI = 2
$end

$solvent
dielectric 4.90
$end
--------------------------------------------------------------

             Standard Nuclear Orientation (Angstroms)
    I     Atom           X                Y                Z
 ----------------------------------------------------------------
    1      C      -0.4441440000    -0.1401880000    -0.2173530000
    2      S       0.2426560000     0.2566120000     1.3631470000
    3      C       1.6609560000     1.0754120000     0.6875470000
    4      C       0.4200560000     0.3589120000    -1.2027530000
    5      C       1.5633560000     1.0191120000    -0.7108530000
    6      H       0.2159560000     0.2411120000    -2.2772530000
    7      H       2.3262560000     1.4597120000    -1.3699530000
    8      C      -0.4441440000    -1.6183880000    -0.2173530000
    9      H      -1.2718440000    -1.6189880000     0.4764470000
   10      H      -1.0783440000    -2.0576880000    -0.9731530000
   11      H       0.0785560000    -2.3293880000     0.4053470000
   12      H       2.4235560000     1.5159120000     1.3386470000
 ----------------------------------------------------------------

   11    -590.2983397317      6.76e-07  Convergence criterion met
 Total energy in the final basis set =     -590.2983397317
        RIMP2         total energy =      -591.3114963845 a.u.

                    Orbital Energies (a.u.)
 --------------------------------------------------------------

 Alpha MOs
 -- Occupied --
-91.9773 -11.2959 -11.2586 -11.2451 -11.2440 -11.2118  -8.9779  -6.6587
 -6.6579  -6.6577  -1.1687  -1.0358  -0.9804  -0.9081  -0.7666  -0.7279
 -0.6710  -0.5931  -0.5679  -0.5587  -0.5516  -0.4784  -0.4516  -0.4380
 -0.3447  -0.3052

          Ground-State Mulliken Net Atomic Charges

     Atom                 Charge (a.u.)
  ----------------------------------------
      1 C                    -0.147401
      2 S                     0.010903
      3 C                    -0.143538
      4 C                    -0.060939
      5 C                    -0.243084
      6 H                     0.189430
      7 H                     0.184889
      8 C                    -0.376957
      9 H                     0.115721
     10 H                     0.113260
     11 H                     0.148039
     12 H                     0.209678
  ----------------------------------------
  Sum of atomic charges =     0.000000

                    Cartesian Multipole Moments
 -----------------------------------------------------------------
    Charge (ESU x 10^10)
                 0.0000
    Dipole Moment (Debye)
         X       2.1235      Y       0.1985      Z      -0.8046
       Tot       2.2794
    Quadrupole Moments (Debye-Ang)
        XX     -41.0418     XY       5.1716     YY     -43.8472
        XZ       1.1561     YZ      -0.2003     ZZ     -40.9860

 Total job time:  11.48s(wall), 604.95s(cpu)
        *  Thank you very much for using Q-Chem.  Have a nice day.  *
