 Q-Chem 5.4, Q-Chem, Inc., Pleasanton, CA (2021)
 Q-Chem 5.4.0 for Intel X86 EM64T Linux

User input:
--------------------------------------------------------------
$molecule
0 1
C	-0.214683	-0.350804	-0.210927
S	0.120317	0.368096	1.369573
C	0.812417	1.852396	0.693973
C	0.206917	0.553796	-1.196327
C	0.764817	1.750296	-0.704427
H	0.107317	0.340196	-2.270827
H	1.137017	2.548796	-1.363527
C	-0.214683	-1.829004	-0.210927
H	-1.149683	-1.829604	-0.751427
H	0.278617	-2.268304	-1.065327
H	-0.621083	-2.540004	0.493173
H	1.184517	2.650596	1.345073
$end

$rem
JOBTYPE		SP
EXCHANGE	HF
CORRELATION	pRIMP2
BASIS		cc-pvtz
METHOD		rimp2
AUX_BASIS	rimp2-cc-pvtz
SOLVENT_METHOD	PCM
PURECART	11111
SYMMETRY	false
MEM_TOTAL	110000
SCF_CONVERGENCE = 6
THRESH=10
GUI = 2
$end

$solvent
dielectric 4.90
$end
--------------------------------------------------------------

             Standard Nuclear Orientation (Angstroms)
    I     Atom           X                Y                Z
 ----------------------------------------------------------------
    1      C      -0.2146830000    -0.3508040000    -0.2109270000
    2      S       0.1203170000     0.3680960000     1.3695730000
    3      C       0.8124170000     1.8523960000     0.6939730000
    4      C       0.2069170000     0.5537960000    -1.1963270000
    5      C       0.7648170000     1.7502960000    -0.7044270000
    6      H       0.1073170000     0.3401960000    -2.2708270000
    7      H       1.1370170000     2.5487960000    -1.3635270000
    8      C      -0.2146830000    -1.8290040000    -0.2109270000
    9      H      -1.1496830000    -1.8296040000    -0.7514270000
   10      H       0.2786170000    -2.2683040000    -1.0653270000
   11      H      -0.6210830000    -2.5400040000     0.4931730000
   12      H       1.1845170000     2.6505960000     1.3450730000
 ----------------------------------------------------------------

   10    -590.3578339693      6.66e-07  Convergence criterion met
 Total energy in the final basis set =     -590.3578339693
        RIMP2         total energy =      -591.3626390313 a.u.

                    Orbital Energies (a.u.)
 --------------------------------------------------------------

 Alpha MOs
 -- Occupied --
-91.9753 -11.2847 -11.2666 -11.2433 -11.2378 -11.2232  -8.9754  -6.6563
 -6.6557  -6.6552  -1.1575  -1.0383  -0.9719  -0.9185  -0.7547  -0.7229
 -0.6703  -0.5967  -0.5624  -0.5601  -0.5461  -0.5003  -0.4645  -0.4460
 -0.3452  -0.2992

          Ground-State Mulliken Net Atomic Charges

     Atom                 Charge (a.u.)
  ----------------------------------------
      1 C                     0.019813
      2 S                     0.001215
      3 C                    -0.236549
      4 C                    -0.240566
      5 C                    -0.182611
      6 H                     0.179744
      7 H                     0.187136
      8 C                    -0.372892
      9 H                     0.131669
     10 H                     0.140821
     11 H                     0.169827
     12 H                     0.202394
  ----------------------------------------
  Sum of atomic charges =     0.000000

                    Cartesian Multipole Moments
 -----------------------------------------------------------------
    Charge (ESU x 10^10)
                -0.0000
    Dipole Moment (Debye)
         X      -0.0893      Y      -0.6098      Z      -1.4729
       Tot       1.5966
    Quadrupole Moments (Debye-Ang)
        XX     -46.3145     XY       4.8215     YY     -37.7572
        XZ       0.0495     YZ       1.1826     ZZ     -41.6720

 Total job time:  10.11s(wall), 542.61s(cpu)
        *  Thank you very much for using Q-Chem.  Have a nice day.  *
