 Q-Chem 5.4, Q-Chem, Inc., Pleasanton, CA (2021)
 Q-Chem 5.4.0 for Intel X86 EM64T Linux

User input:
--------------------------------------------------------------
$molecule
0 1
C	-0.171640	-0.368118	-0.214556
S	0.099460	0.377282	1.365944
C	0.659560	1.916282	0.690344
C	0.169560	0.569782	-1.199956
C	0.620960	1.810382	-0.708056
H	0.088960	0.348282	-2.274456
H	0.922260	2.638182	-1.367156
C	-0.171640	-1.846318	-0.214556
H	-1.235340	-1.846918	-0.027556
H	-0.342940	-2.285618	-1.186156
H	-0.030340	-2.557318	0.586044
H	0.960660	2.743882	1.341444
$end

$rem
JOBTYPE		SP
EXCHANGE	HF
CORRELATION	pRIMP2
BASIS		cc-pvtz
METHOD		rimp2
AUX_BASIS	rimp2-cc-pvtz
SOLVENT_METHOD	PCM
PURECART	11111
SYMMETRY	false
MEM_TOTAL	110000
SCF_CONVERGENCE = 6
THRESH=10
GUI = 2
$end

$solvent
dielectric 4.90
$end
--------------------------------------------------------------

             Standard Nuclear Orientation (Angstroms)
    I     Atom           X                Y                Z
 ----------------------------------------------------------------
    1      C      -0.1716400000    -0.3681180000    -0.2145560000
    2      S       0.0994600000     0.3772820000     1.3659440000
    3      C       0.6595600000     1.9162820000     0.6903440000
    4      C       0.1695600000     0.5697820000    -1.1999560000
    5      C       0.6209600000     1.8103820000    -0.7080560000
    6      H       0.0889600000     0.3482820000    -2.2744560000
    7      H       0.9222600000     2.6381820000    -1.3671560000
    8      C      -0.1716400000    -1.8463180000    -0.2145560000
    9      H      -1.2353400000    -1.8469180000    -0.0275560000
   10      H      -0.3429400000    -2.2856180000    -1.1861560000
   11      H      -0.0303400000    -2.5573180000     0.5860440000
   12      H       0.9606600000     2.7438820000     1.3414440000
 ----------------------------------------------------------------

   10    -590.3624095956      6.20e-07  Convergence criterion met
 Total energy in the final basis set =     -590.3624095956
        RIMP2         total energy =      -591.3652647332 a.u.

                    Orbital Energies (a.u.)
 --------------------------------------------------------------

 Alpha MOs
 -- Occupied --
-91.9770 -11.2869 -11.2658 -11.2429 -11.2349 -11.2249  -8.9770  -6.6579
 -6.6574  -6.6568  -1.1573  -1.0393  -0.9717  -0.9194  -0.7556  -0.7216
 -0.6701  -0.5973  -0.5639  -0.5561  -0.5492  -0.4923  -0.4698  -0.4543
 -0.3460  -0.2978

          Ground-State Mulliken Net Atomic Charges

     Atom                 Charge (a.u.)
  ----------------------------------------
      1 C                     0.002056
      2 S                    -0.007501
      3 C                    -0.235794
      4 C                    -0.218661
      5 C                    -0.191889
      6 H                     0.183755
      7 H                     0.185347
      8 C                    -0.361443
      9 H                     0.135456
     10 H                     0.132964
     11 H                     0.170935
     12 H                     0.204774
  ----------------------------------------
  Sum of atomic charges =     0.000000

                    Cartesian Multipole Moments
 -----------------------------------------------------------------
    Charge (ESU x 10^10)
                -0.0000
    Dipole Moment (Debye)
         X      -0.3051      Y      -0.6573      Z      -0.9724
       Tot       1.2127
    Quadrupole Moments (Debye-Ang)
        XX     -47.0724     XY       4.2822     YY     -37.0485
        XZ       0.4755     YZ       0.3200     ZZ     -41.7260

 Total job time:  10.71s(wall), 561.19s(cpu)
        *  Thank you very much for using Q-Chem.  Have a nice day.  *
