 Q-Chem 5.4, Q-Chem, Inc., Pleasanton, CA (2021)
 Q-Chem 5.4.0 for Intel X86 EM64T Linux

User input:
--------------------------------------------------------------
$molecule
0 1
C	-0.049458	-0.397395	-0.218020
S	0.019442	0.392805	1.362480
C	0.162142	2.024305	0.686880
C	0.037342	0.596805	-1.203420
C	0.152342	1.912005	-0.711520
H	0.016842	0.362105	-2.277920
H	0.229042	2.789605	-1.370620
C	-0.049458	-1.875595	-0.218020
H	0.885542	-1.876195	0.322480
H	-0.542758	-2.314895	0.636380
H	0.356942	-2.586595	-0.922120
H	0.238842	2.901605	1.337980
$end

$rem
JOBTYPE		SP
EXCHANGE	HF
CORRELATION	pRIMP2
BASIS		cc-pvtz
METHOD		rimp2
AUX_BASIS	rimp2-cc-pvtz
SOLVENT_METHOD	PCM
PURECART	11111
SYMMETRY	false
MEM_TOTAL	110000
SCF_CONVERGENCE = 6
THRESH=10
GUI = 2
$end

$solvent
dielectric 4.90
$end
--------------------------------------------------------------

             Standard Nuclear Orientation (Angstroms)
    I     Atom           X                Y                Z
 ----------------------------------------------------------------
    1      C      -0.0494580000    -0.3973950000    -0.2180200000
    2      S       0.0194420000     0.3928050000     1.3624800000
    3      C       0.1621420000     2.0243050000     0.6868800000
    4      C       0.0373420000     0.5968050000    -1.2034200000
    5      C       0.1523420000     1.9120050000    -0.7115200000
    6      H       0.0168420000     0.3621050000    -2.2779200000
    7      H       0.2290420000     2.7896050000    -1.3706200000
    8      C      -0.0494580000    -1.8755950000    -0.2180200000
    9      H       0.8855420000    -1.8761950000     0.3224800000
   10      H      -0.5427580000    -2.3148950000     0.6363800000
   11      H       0.3569420000    -2.5865950000    -0.9221200000
   12      H       0.2388420000     2.9016050000     1.3379800000
 ----------------------------------------------------------------

   10    -590.3736684488      6.27e-07  Convergence criterion met
 Total energy in the final basis set =     -590.3736684488
        RIMP2         total energy =      -591.3733607812 a.u.

                    Orbital Energies (a.u.)
 --------------------------------------------------------------

 Alpha MOs
 -- Occupied --
-91.9787 -11.2900 -11.2648 -11.2426 -11.2318 -11.2274  -8.9787  -6.6597
 -6.6592  -6.6586  -1.1576  -1.0411  -0.9715  -0.9193  -0.7559  -0.7211
 -0.6716  -0.5973  -0.5661  -0.5617  -0.5359  -0.4994  -0.4741  -0.4560
 -0.3470  -0.3007

          Ground-State Mulliken Net Atomic Charges

     Atom                 Charge (a.u.)
  ----------------------------------------
      1 C                     0.024641
      2 S                    -0.005091
      3 C                    -0.243876
      4 C                    -0.242386
      5 C                    -0.184399
      6 H                     0.184165
      7 H                     0.185413
      8 C                    -0.358211
      9 H                     0.133148
     10 H                     0.136201
     11 H                     0.165380
     12 H                     0.205014
  ----------------------------------------
  Sum of atomic charges =     0.000000

                    Cartesian Multipole Moments
 -----------------------------------------------------------------
    Charge (ESU x 10^10)
                -0.0000
    Dipole Moment (Debye)
         X       0.7154      Y      -0.6885      Z      -0.7078
       Tot       1.2193
    Quadrupole Moments (Debye-Ang)
        XX     -48.0791     XY      -0.5712     YY     -35.9089
        XZ      -0.4303     YZ       0.3651     ZZ     -42.0280

 Total job time:  10.71s(wall), 572.75s(cpu)
        *  Thank you very much for using Q-Chem.  Have a nice day.  *
