 Q-Chem 5.4, Q-Chem, Inc., Pleasanton, CA (2021)
 Q-Chem 5.4.0 for Intel X86 EM64T Linux

User input:
--------------------------------------------------------------
$molecule
0 1
C	-0.015824	-0.400296	-0.215368
S	-0.016024	0.392904	1.365132
C	-0.016024	2.030604	0.689532
C	-0.016024	0.597704	-1.200768
C	-0.016124	1.917904	-0.708868
H	-0.015924	0.362004	-2.275268
H	-0.016124	2.798904	-1.367968
C	0.112976	-1.872896	-0.215368
H	1.188976	-1.779396	-0.214868
H	0.151276	-2.310496	0.771232
H	0.174876	-2.581096	-1.028368
H	-0.016124	2.911304	1.340632
$end

$rem
JOBTYPE		SP
EXCHANGE	HF
CORRELATION	pRIMP2
BASIS		cc-pvtz
METHOD		rimp2
AUX_BASIS	rimp2-cc-pvtz
SOLVENT_METHOD	PCM
PURECART	11111
SYMMETRY	false
MEM_TOTAL	110000
SCF_CONVERGENCE = 6
THRESH=10
GUI = 2
$end

$solvent
dielectric 4.90
$end
--------------------------------------------------------------

             Standard Nuclear Orientation (Angstroms)
    I     Atom           X                Y                Z
 ----------------------------------------------------------------
    1      C      -0.0158240000    -0.4002960000    -0.2153680000
    2      S      -0.0160240000     0.3929040000     1.3651320000
    3      C      -0.0160240000     2.0306040000     0.6895320000
    4      C      -0.0160240000     0.5977040000    -1.2007680000
    5      C      -0.0161240000     1.9179040000    -0.7088680000
    6      H      -0.0159240000     0.3620040000    -2.2752680000
    7      H      -0.0161240000     2.7989040000    -1.3679680000
    8      C       0.1129760000    -1.8728960000    -0.2153680000
    9      H       1.1889760000    -1.7793960000    -0.2148680000
   10      H       0.1512760000    -2.3104960000     0.7712320000
   11      H       0.1748760000    -2.5810960000    -1.0283680000
   12      H      -0.0161240000     2.9113040000     1.3406320000
 ----------------------------------------------------------------

   10    -590.3746150166      6.54e-07  Convergence criterion met
 Total energy in the final basis set =     -590.3746150166
        RIMP2         total energy =      -591.3741195475 a.u.

                    Orbital Energies (a.u.)
 --------------------------------------------------------------

 Alpha MOs
 -- Occupied --
-91.9794 -11.2926 -11.2617 -11.2428 -11.2295 -11.2292  -8.9792  -6.6601
 -6.6597  -6.6590  -1.1572  -1.0412  -0.9711  -0.9196  -0.7546  -0.7219
 -0.6714  -0.5974  -0.5656  -0.5566  -0.5421  -0.4970  -0.4779  -0.4568
 -0.3468  -0.2975

          Ground-State Mulliken Net Atomic Charges

     Atom                 Charge (a.u.)
  ----------------------------------------
      1 C                     0.025326
      2 S                    -0.000501
      3 C                    -0.252712
      4 C                    -0.243794
      5 C                    -0.185014
      6 H                     0.180452
      7 H                     0.185261
      8 C                    -0.363506
      9 H                     0.144233
     10 H                     0.137295
     11 H                     0.168618
     12 H                     0.204342
  ----------------------------------------
  Sum of atomic charges =     0.000000

                    Cartesian Multipole Moments
 -----------------------------------------------------------------
    Charge (ESU x 10^10)
                 0.0000
    Dipole Moment (Debye)
         X       0.9106      Y      -0.8226      Z      -1.0436
       Tot       1.6109
    Quadrupole Moments (Debye-Ang)
        XX     -48.1000     XY      -1.7695     YY     -36.1238
        XZ      -0.2463     YZ       1.0725     ZZ     -41.7536

 Total job time:  12.78s(wall), 596.47s(cpu)
        *  Thank you very much for using Q-Chem.  Have a nice day.  *
