 Q-Chem 5.4, Q-Chem, Inc., Pleasanton, CA (2021)
 Q-Chem 5.4.0 for Intel X86 EM64T Linux

User input:
--------------------------------------------------------------
$molecule
0 1
C	-0.005436	-0.399361	-0.213418
S	-0.005636	0.393839	1.367082
C	-0.005636	2.031539	0.691482
C	-0.005636	0.598639	-1.198818
C	-0.005736	1.918839	-0.706918
H	-0.005536	0.362939	-2.273318
H	-0.005736	2.799839	-1.366018
C	-0.005436	-1.877561	-0.213418
H	1.009564	-1.878161	-0.582318
H	0.331964	-2.316861	0.713682
H	-0.283636	-2.588561	-0.977318
H	-0.005736	2.912239	1.342582
$end

$rem
JOBTYPE		SP
EXCHANGE	HF
CORRELATION	pRIMP2
BASIS		cc-pvtz
METHOD		rimp2
AUX_BASIS	rimp2-cc-pvtz
SOLVENT_METHOD	PCM
PURECART	11111
SYMMETRY	false
MEM_TOTAL	110000
SCF_CONVERGENCE = 6
THRESH=10
GUI = 2
$end

$solvent
dielectric 4.90
$end
--------------------------------------------------------------

             Standard Nuclear Orientation (Angstroms)
    I     Atom           X                Y                Z
 ----------------------------------------------------------------
    1      C      -0.0054360000    -0.3993610000    -0.2134180000
    2      S      -0.0056360000     0.3938390000     1.3670820000
    3      C      -0.0056360000     2.0315390000     0.6914820000
    4      C      -0.0056360000     0.5986390000    -1.1988180000
    5      C      -0.0057360000     1.9188390000    -0.7069180000
    6      H      -0.0055360000     0.3629390000    -2.2733180000
    7      H      -0.0057360000     2.7998390000    -1.3660180000
    8      C      -0.0054360000    -1.8775610000    -0.2134180000
    9      H       1.0095640000    -1.8781610000    -0.5823180000
   10      H       0.3319640000    -2.3168610000     0.7136820000
   11      H      -0.2836360000    -2.5885610000    -0.9773180000
   12      H      -0.0057360000     2.9122390000     1.3425820000
 ----------------------------------------------------------------

   10    -590.3738278276      6.33e-07  Convergence criterion met
 Total energy in the final basis set =     -590.3738278276
        RIMP2         total energy =      -591.3741569088 a.u.

                    Orbital Energies (a.u.)
 --------------------------------------------------------------

 Alpha MOs
 -- Occupied --
-91.9792 -11.2915 -11.2619 -11.2429 -11.2310 -11.2278  -8.9789  -6.6598
 -6.6593  -6.6587  -1.1567  -1.0404  -0.9713  -0.9197  -0.7542  -0.7224
 -0.6714  -0.5972  -0.5655  -0.5545  -0.5451  -0.4985  -0.4732  -0.4552
 -0.3463  -0.2987

          Ground-State Mulliken Net Atomic Charges

     Atom                 Charge (a.u.)
  ----------------------------------------
      1 C                     0.032967
      2 S                     0.002550
      3 C                    -0.252235
      4 C                    -0.247018
      5 C                    -0.184686
      6 H                     0.179860
      7 H                     0.185500
      8 C                    -0.362745
      9 H                     0.139774
     10 H                     0.137705
     11 H                     0.164750
     12 H                     0.203578
  ----------------------------------------
  Sum of atomic charges =     0.000000

                    Cartesian Multipole Moments
 -----------------------------------------------------------------
    Charge (ESU x 10^10)
                 0.0000
    Dipole Moment (Debye)
         X       0.7051      Y      -0.8306      Z      -1.2959
       Tot       1.6930
    Quadrupole Moments (Debye-Ang)
        XX     -48.2268     XY      -1.3564     YY     -35.9409
        XZ       0.0596     YZ       1.5390     ZZ     -41.6800

 Total job time:  10.10s(wall), 543.61s(cpu)
        *  Thank you very much for using Q-Chem.  Have a nice day.  *
