 Q-Chem 5.4, Q-Chem, Inc., Pleasanton, CA (2021)
 Q-Chem 5.4.0 for Intel X86 EM64T Linux

User input:
--------------------------------------------------------------
$molecule
0 1
C	-0.451703	-0.140188	-0.209570
S	0.235097	0.256612	1.370930
C	1.653397	1.075412	0.695330
C	0.412497	0.358912	-1.194970
C	1.555797	1.019112	-0.703070
H	0.208397	0.241112	-2.269470
H	2.318697	1.459712	-1.362170
C	-0.451703	-1.618388	-0.209570
H	-0.081803	-1.618988	-1.224270
H	0.475397	-2.057688	0.127930
H	-1.215703	-2.329388	-0.487470
H	2.415997	1.515912	1.346430
$end

$rem
JOBTYPE		SP
EXCHANGE	HF
CORRELATION	pRIMP2
BASIS		cc-pvtz
METHOD		rimp2
AUX_BASIS	rimp2-cc-pvtz
SOLVENT_METHOD	PCM
PURECART	11111
SYMMETRY	false
MEM_TOTAL	110000
SCF_CONVERGENCE = 6
THRESH=10
GUI = 2
$end

$solvent
dielectric 4.90
$end
--------------------------------------------------------------

             Standard Nuclear Orientation (Angstroms)
    I     Atom           X                Y                Z
 ----------------------------------------------------------------
    1      C      -0.4517030000    -0.1401880000    -0.2095700000
    2      S       0.2350970000     0.2566120000     1.3709300000
    3      C       1.6533970000     1.0754120000     0.6953300000
    4      C       0.4124970000     0.3589120000    -1.1949700000
    5      C       1.5557970000     1.0191120000    -0.7030700000
    6      H       0.2083970000     0.2411120000    -2.2694700000
    7      H       2.3186970000     1.4597120000    -1.3621700000
    8      C      -0.4517030000    -1.6183880000    -0.2095700000
    9      H      -0.0818030000    -1.6189880000    -1.2242700000
   10      H       0.4753970000    -2.0576880000     0.1279300000
   11      H      -1.2157030000    -2.3293880000    -0.4874700000
   12      H       2.4159970000     1.5159120000     1.3464300000
 ----------------------------------------------------------------

   11    -590.2993102251      6.30e-07  Convergence criterion met
 Total energy in the final basis set =     -590.2993102251
        RIMP2         total energy =      -591.3146640653 a.u.

                    Orbital Energies (a.u.)
 --------------------------------------------------------------

 Alpha MOs
 -- Occupied --
-91.9754 -11.2923 -11.2579 -11.2536 -11.2448 -11.2129  -8.9760  -6.6567
 -6.6559  -6.6557  -1.1717  -1.0386  -0.9804  -0.9042  -0.7636  -0.7317
 -0.6726  -0.5974  -0.5779  -0.5529  -0.5431  -0.4724  -0.4698  -0.4355
 -0.3370  -0.3111

          Ground-State Mulliken Net Atomic Charges

     Atom                 Charge (a.u.)
  ----------------------------------------
      1 C                    -0.109188
      2 S                     0.013043
      3 C                    -0.158950
      4 C                    -0.088301
      5 C                    -0.246084
      6 H                     0.185260
      7 H                     0.187297
      8 C                    -0.349475
      9 H                     0.111079
     10 H                     0.120782
     11 H                     0.126387
     12 H                     0.208150
  ----------------------------------------
  Sum of atomic charges =     0.000000

                    Cartesian Multipole Moments
 -----------------------------------------------------------------
    Charge (ESU x 10^10)
                 0.0000
    Dipole Moment (Debye)
         X       2.5464      Y      -0.0483      Z      -1.6934
       Tot       3.0584
    Quadrupole Moments (Debye-Ang)
        XX     -41.3070     XY       4.2002     YY     -44.0127
        XZ       1.1871     YZ       1.4297     ZZ     -41.0246

 Total job time:  14.66s(wall), 711.54s(cpu)
        *  Thank you very much for using Q-Chem.  Have a nice day.  *
