 Q-Chem 5.4, Q-Chem, Inc., Pleasanton, CA (2021)
 Q-Chem 5.4.0 for Intel X86 EM64T Linux

User input:
--------------------------------------------------------------
$molecule
0 1
C	-0.173006	-0.368118	-0.218146
S	0.098094	0.377282	1.362354
C	0.658194	1.916282	0.686754
C	0.168194	0.569782	-1.203546
C	0.619594	1.810382	-0.711646
H	0.087594	0.348282	-2.278046
H	0.920894	2.638182	-1.370746
C	-0.173006	-1.846318	-0.218146
H	-0.867606	-1.846918	0.608854
H	-0.928806	-2.285618	-0.852346
H	0.449894	-2.557318	0.304354
H	0.959294	2.743882	1.337854
$end

$rem
JOBTYPE		SP
EXCHANGE	HF
CORRELATION	pRIMP2
BASIS		cc-pvtz
METHOD		rimp2
AUX_BASIS	rimp2-cc-pvtz
SOLVENT_METHOD	PCM
PURECART	11111
SYMMETRY	false
MEM_TOTAL	110000
SCF_CONVERGENCE = 6
THRESH=10
GUI = 2
$end

$solvent
dielectric 4.90
$end
--------------------------------------------------------------

             Standard Nuclear Orientation (Angstroms)
    I     Atom           X                Y                Z
 ----------------------------------------------------------------
    1      C      -0.1730060000    -0.3681180000    -0.2181460000
    2      S       0.0980940000     0.3772820000     1.3623540000
    3      C       0.6581940000     1.9162820000     0.6867540000
    4      C       0.1681940000     0.5697820000    -1.2035460000
    5      C       0.6195940000     1.8103820000    -0.7116460000
    6      H       0.0875940000     0.3482820000    -2.2780460000
    7      H       0.9208940000     2.6381820000    -1.3707460000
    8      C      -0.1730060000    -1.8463180000    -0.2181460000
    9      H      -0.8676060000    -1.8469180000     0.6088540000
   10      H      -0.9288060000    -2.2856180000    -0.8523460000
   11      H       0.4498940000    -2.5573180000     0.3043540000
   12      H       0.9592940000     2.7438820000     1.3378540000
 ----------------------------------------------------------------

   10    -590.3631889492      6.41e-07  Convergence criterion met
 Total energy in the final basis set =     -590.3631889492
        RIMP2         total energy =      -591.3666133947 a.u.

                    Orbital Energies (a.u.)
 --------------------------------------------------------------

 Alpha MOs
 -- Occupied --
-91.9790 -11.2808 -11.2710 -11.2433 -11.2379 -11.2227  -8.9790  -6.6599
 -6.6594  -6.6588  -1.1583  -1.0387  -0.9732  -0.9184  -0.7583  -0.7210
 -0.6711  -0.5965  -0.5671  -0.5613  -0.5424  -0.4883  -0.4666  -0.4527
 -0.3464  -0.3070

          Ground-State Mulliken Net Atomic Charges

     Atom                 Charge (a.u.)
  ----------------------------------------
      1 C                    -0.011380
      2 S                    -0.004263
      3 C                    -0.222693
      4 C                    -0.202538
      5 C                    -0.195652
      6 H                     0.184188
      7 H                     0.186077
      8 C                    -0.344650
      9 H                     0.117235
     10 H                     0.129218
     11 H                     0.159023
     12 H                     0.205435
  ----------------------------------------
  Sum of atomic charges =     0.000000

                    Cartesian Multipole Moments
 -----------------------------------------------------------------
    Charge (ESU x 10^10)
                -0.0000
    Dipole Moment (Debye)
         X       0.0832      Y      -0.2145      Z      -0.6081
       Tot       0.6501
    Quadrupole Moments (Debye-Ang)
        XX     -46.6549     XY       3.6765     YY     -37.1460
        XZ       0.6393     YZ      -0.2533     ZZ     -42.0889

 Total job time:  10.62s(wall), 568.05s(cpu)
        *  Thank you very much for using Q-Chem.  Have a nice day.  *
