 Q-Chem 5.4, Q-Chem, Inc., Pleasanton, CA (2021)
 Q-Chem 5.4.0 for Intel X86 EM64T Linux

User input:
--------------------------------------------------------------
$molecule
0 1
C	-0.253645	-0.329934	-0.215530
S	0.142755	0.357066	1.364970
C	0.961555	1.775366	0.689370
C	0.245155	0.534466	-1.200930
C	0.905255	1.677866	-0.709030
H	0.127355	0.330366	-2.275430
H	1.345655	2.440766	-1.368130
C	-0.253645	-1.808134	-0.215530
H	-1.268645	-1.808734	0.153370
H	-0.591045	-2.247434	-1.142630
H	0.024555	-2.519134	0.548370
H	1.401855	2.538166	1.340470
$end

$rem
JOBTYPE		SP
EXCHANGE	HF
CORRELATION	pRIMP2
BASIS		cc-pvtz
METHOD		rimp2
AUX_BASIS	rimp2-cc-pvtz
SOLVENT_METHOD	PCM
PURECART	11111
SYMMETRY	false
MEM_TOTAL	110000
SCF_CONVERGENCE = 6
THRESH=10
GUI = 2
$end

$solvent
dielectric 4.90
$end
--------------------------------------------------------------

             Standard Nuclear Orientation (Angstroms)
    I     Atom           X                Y                Z
 ----------------------------------------------------------------
    1      C      -0.2536450000    -0.3299340000    -0.2155300000
    2      S       0.1427550000     0.3570660000     1.3649700000
    3      C       0.9615550000     1.7753660000     0.6893700000
    4      C       0.2451550000     0.5344660000    -1.2009300000
    5      C       0.9052550000     1.6778660000    -0.7090300000
    6      H       0.1273550000     0.3303660000    -2.2754300000
    7      H       1.3456550000     2.4407660000    -1.3681300000
    8      C      -0.2536450000    -1.8081340000    -0.2155300000
    9      H      -1.2686450000    -1.8087340000     0.1533700000
   10      H      -0.5910450000    -2.2474340000    -1.1426300000
   11      H       0.0245550000    -2.5191340000     0.5483700000
   12      H       1.4018550000     2.5381660000     1.3404700000
 ----------------------------------------------------------------

   10    -590.3510050552      7.26e-07  Convergence criterion met
 Total energy in the final basis set =     -590.3510050552
        RIMP2         total energy =      -591.3566627610 a.u.

                    Orbital Energies (a.u.)
 --------------------------------------------------------------

 Alpha MOs
 -- Occupied --
-91.9771 -11.2796 -11.2710 -11.2432 -11.2384 -11.2213  -8.9772  -6.6581
 -6.6576  -6.6570  -1.1585  -1.0377  -0.9728  -0.9178  -0.7573  -0.7218
 -0.6699  -0.5957  -0.5630  -0.5580  -0.5490  -0.4889  -0.4646  -0.4541
 -0.3459  -0.2990

          Ground-State Mulliken Net Atomic Charges

     Atom                 Charge (a.u.)
  ----------------------------------------
      1 C                    -0.026929
      2 S                    -0.006398
      3 C                    -0.218366
      4 C                    -0.192329
      5 C                    -0.196593
      6 H                     0.184697
      7 H                     0.185283
      8 C                    -0.363236
      9 H                     0.131248
     10 H                     0.128343
     11 H                     0.168881
     12 H                     0.205400
  ----------------------------------------
  Sum of atomic charges =     0.000000

                    Cartesian Multipole Moments
 -----------------------------------------------------------------
    Charge (ESU x 10^10)
                 0.0000
    Dipole Moment (Debye)
         X       0.1020      Y      -0.3765      Z      -0.8812
       Tot       0.9637
    Quadrupole Moments (Debye-Ang)
        XX     -45.7663     XY       5.1596     YY     -38.4588
        XZ       0.6828     YZ       0.1291     ZZ     -41.6518

 Total job time:  11.05s(wall), 560.71s(cpu)
        *  Thank you very much for using Q-Chem.  Have a nice day.  *
