 Q-Chem 5.4, Q-Chem, Inc., Pleasanton, CA (2021)
 Q-Chem 5.4.0 for Intel X86 EM64T Linux

User input:
--------------------------------------------------------------
$molecule
0 1
C	-0.042367	-0.397395	-0.219377
S	0.026533	0.392805	1.361123
C	0.169233	2.024305	0.685523
C	0.044433	0.596805	-1.204777
C	0.159433	1.912005	-0.712877
H	0.023933	0.362105	-2.279277
H	0.236133	2.789605	-1.371977
C	-0.042367	-1.875595	-0.219377
H	-0.412267	-1.876195	0.795323
H	-0.969467	-2.314895	-0.556877
H	0.721633	-2.586595	0.058523
H	0.245933	2.901605	1.336623
$end

$rem
JOBTYPE		SP
EXCHANGE	HF
CORRELATION	pRIMP2
BASIS		cc-pvtz
METHOD		rimp2
AUX_BASIS	rimp2-cc-pvtz
SOLVENT_METHOD	PCM
PURECART	11111
SYMMETRY	false
MEM_TOTAL	110000
SCF_CONVERGENCE = 6
THRESH=10
GUI = 2
$end

$solvent
dielectric 4.90
$end
--------------------------------------------------------------

             Standard Nuclear Orientation (Angstroms)
    I     Atom           X                Y                Z
 ----------------------------------------------------------------
    1      C      -0.0423670000    -0.3973950000    -0.2193770000
    2      S       0.0265330000     0.3928050000     1.3611230000
    3      C       0.1692330000     2.0243050000     0.6855230000
    4      C       0.0444330000     0.5968050000    -1.2047770000
    5      C       0.1594330000     1.9120050000    -0.7128770000
    6      H       0.0239330000     0.3621050000    -2.2792770000
    7      H       0.2361330000     2.7896050000    -1.3719770000
    8      C      -0.0423670000    -1.8755950000    -0.2193770000
    9      H      -0.4122670000    -1.8761950000     0.7953230000
   10      H      -0.9694670000    -2.3148950000    -0.5568770000
   11      H       0.7216330000    -2.5865950000     0.0585230000
   12      H       0.2459330000     2.9016050000     1.3366230000
 ----------------------------------------------------------------

   10    -590.3703691309      5.94e-07  Convergence criterion met
 Total energy in the final basis set =     -590.3703691309
        RIMP2         total energy =      -591.3723391557 a.u.

                    Orbital Energies (a.u.)
 --------------------------------------------------------------

 Alpha MOs
 -- Occupied --
-91.9802 -11.2832 -11.2693 -11.2431 -11.2365 -11.2238  -8.9801  -6.6609
 -6.6604  -6.6598  -1.1579  -1.0397  -0.9731  -0.9186  -0.7586  -0.7204
 -0.6717  -0.5972  -0.5691  -0.5621  -0.5373  -0.4979  -0.4635  -0.4503
 -0.3465  -0.3109

          Ground-State Mulliken Net Atomic Charges

     Atom                 Charge (a.u.)
  ----------------------------------------
      1 C                     0.021067
      2 S                    -0.003760
      3 C                    -0.234092
      4 C                    -0.214998
      5 C                    -0.191795
      6 H                     0.184951
      7 H                     0.186044
      8 C                    -0.343787
      9 H                     0.111429
     10 H                     0.129905
     11 H                     0.149063
     12 H                     0.205972
  ----------------------------------------
  Sum of atomic charges =     0.000000

                    Cartesian Multipole Moments
 -----------------------------------------------------------------
    Charge (ESU x 10^10)
                -0.0000
    Dipole Moment (Debye)
         X      -0.1128      Y      -0.2209      Z      -0.4793
       Tot       0.5397
    Quadrupole Moments (Debye-Ang)
        XX     -47.4664     XY       1.0943     YY     -36.1215
        XZ       0.3475     YZ      -0.4050     ZZ     -42.3444

 Total job time:  11.12s(wall), 568.47s(cpu)
        *  Thank you very much for using Q-Chem.  Have a nice day.  *
