 Q-Chem 5.4, Q-Chem, Inc., Pleasanton, CA (2021)
 Q-Chem 5.4.0 for Intel X86 EM64T Linux

User input:
--------------------------------------------------------------
$molecule
0 1
C	-0.136106	-0.381707	-0.219723
S	0.068994	0.384493	1.360777
C	0.492794	1.966393	0.685177
C	0.121994	0.582293	-1.205123
C	0.463594	1.857593	-0.713223
H	0.061094	0.354693	-2.279623
H	0.691594	2.708493	-1.372323
C	-0.136106	-1.859907	-0.219723
H	0.403394	-1.860507	0.715877
H	-0.990606	-2.299207	0.273577
H	0.567894	-2.570907	-0.626323
H	0.720694	2.817093	1.336277
$end

$rem
JOBTYPE		SP
EXCHANGE	HF
CORRELATION	pRIMP2
BASIS		cc-pvtz
METHOD		rimp2
AUX_BASIS	rimp2-cc-pvtz
SOLVENT_METHOD	PCM
PURECART	11111
SYMMETRY	false
MEM_TOTAL	110000
SCF_CONVERGENCE = 6
THRESH=10
GUI = 2
$end

$solvent
dielectric 4.90
$end
--------------------------------------------------------------

             Standard Nuclear Orientation (Angstroms)
    I     Atom           X                Y                Z
 ----------------------------------------------------------------
    1      C      -0.1361060000    -0.3817070000    -0.2197230000
    2      S       0.0689940000     0.3844930000     1.3607770000
    3      C       0.4927940000     1.9663930000     0.6851770000
    4      C       0.1219940000     0.5822930000    -1.2051230000
    5      C       0.4635940000     1.8575930000    -0.7132230000
    6      H       0.0610940000     0.3546930000    -2.2796230000
    7      H       0.6915940000     2.7084930000    -1.3723230000
    8      C      -0.1361060000    -1.8599070000    -0.2197230000
    9      H       0.4033940000    -1.8605070000     0.7158770000
   10      H      -0.9906060000    -2.2992070000     0.2735770000
   11      H       0.5678940000    -2.5709070000    -0.6263230000
   12      H       0.7206940000     2.8170930000     1.3362770000
 ----------------------------------------------------------------

   10    -590.3661011789      6.00e-07  Convergence criterion met
 Total energy in the final basis set =     -590.3661011789
        RIMP2         total energy =      -591.3681652470 a.u.

                    Orbital Energies (a.u.)
 --------------------------------------------------------------

 Alpha MOs
 -- Occupied --
-91.9788 -11.2835 -11.2695 -11.2428 -11.2363 -11.2231  -8.9789  -6.6598
 -6.6593  -6.6587  -1.1587  -1.0399  -0.9730  -0.9175  -0.7584  -0.7207
 -0.6718  -0.5959  -0.5687  -0.5632  -0.5337  -0.5007  -0.4642  -0.4525
 -0.3462  -0.3074

          Ground-State Mulliken Net Atomic Charges

     Atom                 Charge (a.u.)
  ----------------------------------------
      1 C                     0.020590
      2 S                    -0.004475
      3 C                    -0.232090
      4 C                    -0.230217
      5 C                    -0.186167
      6 H                     0.184889
      7 H                     0.186022
      8 C                    -0.354983
      9 H                     0.120868
     10 H                     0.130481
     11 H                     0.159414
     12 H                     0.205667
  ----------------------------------------
  Sum of atomic charges =     0.000000

                    Cartesian Multipole Moments
 -----------------------------------------------------------------
    Charge (ESU x 10^10)
                -0.0000
    Dipole Moment (Debye)
         X       0.6861      Y      -0.3021      Z      -0.4994
       Tot       0.9008
    Quadrupole Moments (Debye-Ang)
        XX     -47.1688     XY       1.3757     YY     -36.7171
        XZ      -0.2763     YZ      -0.1962     ZZ     -42.2526

 Total job time:  10.06s(wall), 532.71s(cpu)
        *  Thank you very much for using Q-Chem.  Have a nice day.  *
