 Q-Chem 5.4, Q-Chem, Inc., Pleasanton, CA (2021)
 Q-Chem 5.4.0 for Intel X86 EM64T Linux

User input:
--------------------------------------------------------------
$molecule
0 1
C	-0.003468	-0.399361	-0.210119
S	-0.003668	0.393839	1.370381
C	-0.003668	2.031539	0.694781
C	-0.003668	0.598639	-1.195519
C	-0.003768	1.918839	-0.703619
H	-0.003568	0.362939	-2.270019
H	-0.003768	2.799839	-1.362719
C	-0.003468	-1.877561	-0.210119
H	0.537032	-1.878161	-1.145119
H	0.850932	-2.316861	0.283181
H	-0.707568	-2.588561	-0.616519
H	-0.003768	2.912239	1.345881
$end

$rem
JOBTYPE		SP
EXCHANGE	HF
CORRELATION	pRIMP2
BASIS		cc-pvtz
METHOD		rimp2
AUX_BASIS	rimp2-cc-pvtz
SOLVENT_METHOD	PCM
PURECART	11111
SYMMETRY	false
MEM_TOTAL	110000
SCF_CONVERGENCE = 6
THRESH=10
GUI = 2
$end

$solvent
dielectric 4.90
$end
--------------------------------------------------------------

             Standard Nuclear Orientation (Angstroms)
    I     Atom           X                Y                Z
 ----------------------------------------------------------------
    1      C      -0.0034680000    -0.3993610000    -0.2101190000
    2      S      -0.0036680000     0.3938390000     1.3703810000
    3      C      -0.0036680000     2.0315390000     0.6947810000
    4      C      -0.0036680000     0.5986390000    -1.1955190000
    5      C      -0.0037680000     1.9188390000    -0.7036190000
    6      H      -0.0035680000     0.3629390000    -2.2700190000
    7      H      -0.0037680000     2.7998390000    -1.3627190000
    8      C      -0.0034680000    -1.8775610000    -0.2101190000
    9      H       0.5370320000    -1.8781610000    -1.1451190000
   10      H       0.8509320000    -2.3168610000     0.2831810000
   11      H      -0.7075680000    -2.5885610000    -0.6165190000
   12      H      -0.0037680000     2.9122390000     1.3458810000
 ----------------------------------------------------------------

   10    -590.3736338841      5.82e-07  Convergence criterion met
 Total energy in the final basis set =     -590.3736338841
        RIMP2         total energy =      -591.3754216951 a.u.

                    Orbital Energies (a.u.)
 --------------------------------------------------------------

 Alpha MOs
 -- Occupied --
-91.9762 -11.2866 -11.2670 -11.2429 -11.2384 -11.2243  -8.9762  -6.6571
 -6.6566  -6.6560  -1.1568  -1.0384  -0.9725  -0.9194  -0.7544  -0.7238
 -0.6724  -0.5971  -0.5691  -0.5583  -0.5405  -0.5003  -0.4680  -0.4428
 -0.3452  -0.3085

          Ground-State Mulliken Net Atomic Charges

     Atom                 Charge (a.u.)
  ----------------------------------------
      1 C                     0.034450
      2 S                    -0.007086
      3 C                    -0.233165
      4 C                    -0.226735
      5 C                    -0.196010
      6 H                     0.183459
      7 H                     0.185853
      8 C                    -0.359753
      9 H                     0.124201
     10 H                     0.139692
     11 H                     0.151216
     12 H                     0.203878
  ----------------------------------------
  Sum of atomic charges =     0.000000

                    Cartesian Multipole Moments
 -----------------------------------------------------------------
    Charge (ESU x 10^10)
                -0.0000
    Dipole Moment (Debye)
         X       0.3644      Y      -0.4395      Z      -1.6870
       Tot       1.7810
    Quadrupole Moments (Debye-Ang)
        XX     -47.6776     XY      -0.6074     YY     -36.0308
        XZ       0.2716     YZ       2.0861     ZZ     -41.9450

 Total job time:  10.49s(wall), 560.90s(cpu)
        *  Thank you very much for using Q-Chem.  Have a nice day.  *
