 Q-Chem 5.4, Q-Chem, Inc., Pleasanton, CA (2021)
 Q-Chem 5.4.0 for Intel X86 EM64T Linux

User input:
--------------------------------------------------------------
$molecule
0 1
C	-0.337459	-0.278098	-0.210801
S	0.172241	0.329602	1.369699
C	1.224941	1.584202	0.694099
C	0.303941	0.486502	-1.196201
C	1.152441	1.497902	-0.704301
H	0.152441	0.306002	-2.270701
H	1.718641	2.172802	-1.363401
C	-0.337459	-1.756298	-0.210801
H	0.357141	-1.756898	-1.037801
H	0.418341	-2.195598	0.423399
H	-0.960359	-2.467298	-0.733301
H	1.790941	2.258902	1.345199
$end

$rem
JOBTYPE		SP
EXCHANGE	HF
CORRELATION	pRIMP2
BASIS		cc-pvtz
METHOD		rimp2
AUX_BASIS	rimp2-cc-pvtz
SOLVENT_METHOD	PCM
PURECART	11111
SYMMETRY	false
MEM_TOTAL	110000
SCF_CONVERGENCE = 6
THRESH=10
GUI = 2
$end

$solvent
dielectric 4.90
$end
--------------------------------------------------------------

             Standard Nuclear Orientation (Angstroms)
    I     Atom           X                Y                Z
 ----------------------------------------------------------------
    1      C      -0.3374590000    -0.2780980000    -0.2108010000
    2      S       0.1722410000     0.3296020000     1.3696990000
    3      C       1.2249410000     1.5842020000     0.6940990000
    4      C       0.3039410000     0.4865020000    -1.1962010000
    5      C       1.1524410000     1.4979020000    -0.7043010000
    6      H       0.1524410000     0.3060020000    -2.2707010000
    7      H       1.7186410000     2.1728020000    -1.3634010000
    8      C      -0.3374590000    -1.7562980000    -0.2108010000
    9      H       0.3571410000    -1.7568980000    -1.0378010000
   10      H       0.4183410000    -2.1955980000     0.4233990000
   11      H      -0.9603590000    -2.4672980000    -0.7333010000
   12      H       1.7909410000     2.2589020000     1.3451990000
 ----------------------------------------------------------------

   10    -590.3402035173      8.84e-07  Convergence criterion met
 Total energy in the final basis set =     -590.3402035173
        RIMP2         total energy =      -591.3490053098 a.u.

                    Orbital Energies (a.u.)
 --------------------------------------------------------------

 Alpha MOs
 -- Occupied --
-91.9776 -11.2760 -11.2741 -11.2436 -11.2415 -11.2188  -8.9776  -6.6584
 -6.6579  -6.6574  -1.1625  -1.0375  -0.9751  -0.9116  -0.7577  -0.7254
 -0.6711  -0.5963  -0.5697  -0.5536  -0.5459  -0.4835  -0.4702  -0.4474
 -0.3428  -0.3038

          Ground-State Mulliken Net Atomic Charges

     Atom                 Charge (a.u.)
  ----------------------------------------
      1 C                    -0.023542
      2 S                     0.005347
      3 C                    -0.210191
      4 C                    -0.181433
      5 C                    -0.210858
      6 H                     0.179782
      7 H                     0.187180
      8 C                    -0.366202
      9 H                     0.135749
     10 H                     0.137341
     11 H                     0.142620
     12 H                     0.204208
  ----------------------------------------
  Sum of atomic charges =     0.000000

                    Cartesian Multipole Moments
 -----------------------------------------------------------------
    Charge (ESU x 10^10)
                 0.0000
    Dipole Moment (Debye)
         X       1.5420      Y      -0.3086      Z      -1.5813
       Tot       2.2302
    Quadrupole Moments (Debye-Ang)
        XX     -44.6423     XY       3.7434     YY     -40.4572
        XZ       0.8260     YZ       1.7535     ZZ     -41.3908

 Total job time:  10.90s(wall), 570.47s(cpu)
        *  Thank you very much for using Q-Chem.  Have a nice day.  *
