 Q-Chem 5.4, Q-Chem, Inc., Pleasanton, CA (2021)
 Q-Chem 5.4.0 for Intel X86 EM64T Linux

User input:
--------------------------------------------------------------
$molecule
0 1
C	-0.004275	-0.399361	-0.218020
S	-0.004475	0.393839	1.362480
C	-0.004475	2.031539	0.686880
C	-0.004475	0.598639	-1.203420
C	-0.004575	1.918839	-0.711520
H	-0.004375	0.362939	-2.277920
H	-0.004575	2.799839	-1.370620
C	-0.004275	-1.877561	-0.218020
H	0.930725	-1.878161	0.322480
H	-0.497575	-2.316861	0.636380
H	0.402125	-2.588561	-0.922120
H	-0.004575	2.912239	1.337980
$end

$rem
JOBTYPE		SP
EXCHANGE	HF
CORRELATION	pRIMP2
BASIS		cc-pvtz
METHOD		rimp2
AUX_BASIS	rimp2-cc-pvtz
SOLVENT_METHOD	PCM
PURECART	11111
SYMMETRY	false
MEM_TOTAL	110000
SCF_CONVERGENCE = 6
THRESH=10
GUI = 2
$end

$solvent
dielectric 4.90
$end
--------------------------------------------------------------

             Standard Nuclear Orientation (Angstroms)
    I     Atom           X                Y                Z
 ----------------------------------------------------------------
    1      C      -0.0042750000    -0.3993610000    -0.2180200000
    2      S      -0.0044750000     0.3938390000     1.3624800000
    3      C      -0.0044750000     2.0315390000     0.6868800000
    4      C      -0.0044750000     0.5986390000    -1.2034200000
    5      C      -0.0045750000     1.9188390000    -0.7115200000
    6      H      -0.0043750000     0.3629390000    -2.2779200000
    7      H      -0.0045750000     2.7998390000    -1.3706200000
    8      C      -0.0042750000    -1.8775610000    -0.2180200000
    9      H       0.9307250000    -1.8781610000     0.3224800000
   10      H      -0.4975750000    -2.3168610000     0.6363800000
   11      H       0.4021250000    -2.5885610000    -0.9221200000
   12      H      -0.0045750000     2.9122390000     1.3379800000
 ----------------------------------------------------------------

   10    -590.3738030809      6.17e-07  Convergence criterion met
 Total energy in the final basis set =     -590.3738030809
        RIMP2         total energy =      -591.3735210283 a.u.

                    Orbital Energies (a.u.)
 --------------------------------------------------------------

 Alpha MOs
 -- Occupied --
-91.9790 -11.2899 -11.2648 -11.2426 -11.2317 -11.2272  -8.9790  -6.6599
 -6.6594  -6.6588  -1.1574  -1.0410  -0.9715  -0.9195  -0.7558  -0.7210
 -0.6715  -0.5974  -0.5656  -0.5616  -0.5368  -0.4985  -0.4742  -0.4561
 -0.3469  -0.3008

          Ground-State Mulliken Net Atomic Charges

     Atom                 Charge (a.u.)
  ----------------------------------------
      1 C                     0.020916
      2 S                    -0.005987
      3 C                    -0.241910
      4 C                    -0.234909
      5 C                    -0.187876
      6 H                     0.184391
      7 H                     0.185064
      8 C                    -0.357864
      9 H                     0.131578
     10 H                     0.136197
     11 H                     0.165292
     12 H                     0.205109
  ----------------------------------------
  Sum of atomic charges =     0.000000

                    Cartesian Multipole Moments
 -----------------------------------------------------------------
    Charge (ESU x 10^10)
                 0.0000
    Dipole Moment (Debye)
         X       0.6170      Y      -0.6785      Z      -0.7047
       Tot       1.1565
    Quadrupole Moments (Debye-Ang)
        XX     -48.0932     XY      -1.3618     YY     -35.8331
        XZ      -0.4795     YZ       0.3712     ZZ     -42.0190

 Total job time:  22.18s(wall), 593.62s(cpu)
        *  Thank you very much for using Q-Chem.  Have a nice day.  *
