 Q-Chem 5.4, Q-Chem, Inc., Pleasanton, CA (2021)
 Q-Chem 5.4.0 for Intel X86 EM64T Linux

User input:
--------------------------------------------------------------
$molecule
0 1
C	-0.093620	-0.391505	-0.218722
S	0.043880	0.389695	1.361778
C	0.328280	2.002495	0.686178
C	0.079480	0.591395	-1.204122
C	0.308680	1.891595	-0.712222
H	0.038580	0.359295	-2.278622
H	0.461580	2.759095	-1.371322
C	-0.093620	-1.869705	-0.218722
H	0.733380	-1.870305	0.475878
H	-0.727820	-2.309005	0.537078
H	0.428880	-2.580705	-0.841622
H	0.481080	2.869795	1.337278
$end

$rem
JOBTYPE		SP
EXCHANGE	HF
CORRELATION	pRIMP2
BASIS		cc-pvtz
METHOD		rimp2
AUX_BASIS	rimp2-cc-pvtz
SOLVENT_METHOD	PCM
PURECART	11111
SYMMETRY	false
MEM_TOTAL	110000
SCF_CONVERGENCE = 6
THRESH=10
GUI = 2
$end

$solvent
dielectric 4.90
$end
--------------------------------------------------------------

             Standard Nuclear Orientation (Angstroms)
    I     Atom           X                Y                Z
 ----------------------------------------------------------------
    1      C      -0.0936200000    -0.3915050000    -0.2187220000
    2      S       0.0438800000     0.3896950000     1.3617780000
    3      C       0.3282800000     2.0024950000     0.6861780000
    4      C       0.0794800000     0.5913950000    -1.2041220000
    5      C       0.3086800000     1.8915950000    -0.7122220000
    6      H       0.0385800000     0.3592950000    -2.2786220000
    7      H       0.4615800000     2.7590950000    -1.3713220000
    8      C      -0.0936200000    -1.8697050000    -0.2187220000
    9      H       0.7333800000    -1.8703050000     0.4758780000
   10      H      -0.7278200000    -2.3090050000     0.5370780000
   11      H       0.4288800000    -2.5807050000    -0.8416220000
   12      H       0.4810800000     2.8697950000     1.3372780000
 ----------------------------------------------------------------

   10    -590.3713362580      6.19e-07  Convergence criterion met
 Total energy in the final basis set =     -590.3713362580
        RIMP2         total energy =      -591.3717143471 a.u.

                    Orbital Energies (a.u.)
 --------------------------------------------------------------

 Alpha MOs
 -- Occupied --
-91.9784 -11.2880 -11.2665 -11.2427 -11.2334 -11.2260  -8.9785  -6.6594
 -6.6589  -6.6583  -1.1581  -1.0407  -0.9720  -0.9186  -0.7567  -0.7209
 -0.6717  -0.5968  -0.5669  -0.5627  -0.5341  -0.5010  -0.4703  -0.4552
 -0.3468  -0.3026

          Ground-State Mulliken Net Atomic Charges

     Atom                 Charge (a.u.)
  ----------------------------------------
      1 C                     0.026572
      2 S                    -0.004208
      3 C                    -0.240304
      4 C                    -0.244630
      5 C                    -0.182885
      6 H                     0.184458
      7 H                     0.185931
      8 C                    -0.357438
      9 H                     0.129026
     10 H                     0.135092
     11 H                     0.163284
     12 H                     0.205100
  ----------------------------------------
  Sum of atomic charges =     0.000000

                    Cartesian Multipole Moments
 -----------------------------------------------------------------
    Charge (ESU x 10^10)
                -0.0000
    Dipole Moment (Debye)
         X       0.7422      Y      -0.5627      Z      -0.6250
       Tot       1.1217
    Quadrupole Moments (Debye-Ang)
        XX     -47.7800     XY       0.3202     YY     -36.1992
        XZ      -0.4041     YZ       0.1449     ZZ     -42.1225

 Total job time:  12.06s(wall), 612.20s(cpu)
        *  Thank you very much for using Q-Chem.  Have a nice day.  *
