 Q-Chem 5.4, Q-Chem, Inc., Pleasanton, CA (2021)
 Q-Chem 5.4.0 for Intel X86 EM64T Linux

User input:
--------------------------------------------------------------
$molecule
0 1
C	-0.213522	-0.350804	-0.215530
S	0.121478	0.368096	1.364970
C	0.813578	1.852396	0.689370
C	0.208078	0.553796	-1.200930
C	0.765978	1.750296	-0.709030
H	0.108478	0.340196	-2.275430
H	1.138178	2.548796	-1.368130
C	-0.213522	-1.829004	-0.215530
H	-1.228522	-1.829604	0.153370
H	-0.550922	-2.268304	-1.142630
H	0.064678	-2.540004	0.548370
H	1.185678	2.650596	1.340470
$end

$rem
JOBTYPE		SP
EXCHANGE	HF
CORRELATION	pRIMP2
BASIS		cc-pvtz
METHOD		rimp2
AUX_BASIS	rimp2-cc-pvtz
SOLVENT_METHOD	PCM
PURECART	11111
SYMMETRY	false
MEM_TOTAL	110000
SCF_CONVERGENCE = 6
THRESH=10
GUI = 2
$end

$solvent
dielectric 4.90
$end
--------------------------------------------------------------

             Standard Nuclear Orientation (Angstroms)
    I     Atom           X                Y                Z
 ----------------------------------------------------------------
    1      C      -0.2135220000    -0.3508040000    -0.2155300000
    2      S       0.1214780000     0.3680960000     1.3649700000
    3      C       0.8135780000     1.8523960000     0.6893700000
    4      C       0.2080780000     0.5537960000    -1.2009300000
    5      C       0.7659780000     1.7502960000    -0.7090300000
    6      H       0.1084780000     0.3401960000    -2.2754300000
    7      H       1.1381780000     2.5487960000    -1.3681300000
    8      C      -0.2135220000    -1.8290040000    -0.2155300000
    9      H      -1.2285220000    -1.8296040000     0.1533700000
   10      H      -0.5509220000    -2.2683040000    -1.1426300000
   11      H       0.0646780000    -2.5400040000     0.5483700000
   12      H       1.1856780000     2.6505960000     1.3404700000
 ----------------------------------------------------------------

   10    -590.3573661021      6.53e-07  Convergence criterion met
 Total energy in the final basis set =     -590.3573661021
        RIMP2         total energy =      -591.3615380597 a.u.

                    Orbital Energies (a.u.)
 --------------------------------------------------------------

 Alpha MOs
 -- Occupied --
-91.9772 -11.2829 -11.2688 -11.2431 -11.2368 -11.2229  -8.9773  -6.6582
 -6.6577  -6.6572  -1.1579  -1.0385  -0.9724  -0.9186  -0.7567  -0.7216
 -0.6701  -0.5965  -0.5638  -0.5579  -0.5481  -0.4893  -0.4679  -0.4544
 -0.3460  -0.2992

          Ground-State Mulliken Net Atomic Charges

     Atom                 Charge (a.u.)
  ----------------------------------------
      1 C                    -0.016700
      2 S                    -0.008178
      3 C                    -0.224344
      4 C                    -0.201359
      5 C                    -0.195530
      6 H                     0.184508
      7 H                     0.185160
      8 C                    -0.360240
      9 H                     0.132457
     10 H                     0.129624
     11 H                     0.169366
     12 H                     0.205237
  ----------------------------------------
  Sum of atomic charges =     0.000000

                    Cartesian Multipole Moments
 -----------------------------------------------------------------
    Charge (ESU x 10^10)
                -0.0000
    Dipole Moment (Debye)
         X      -0.0801      Y      -0.4719      Z      -0.8692
       Tot       0.9923
    Quadrupole Moments (Debye-Ang)
        XX     -46.4257     XY       4.7218     YY     -37.7049
        XZ       0.6287     YZ       0.1301     ZZ     -41.7331

 Total job time:  10.18s(wall), 550.05s(cpu)
        *  Thank you very much for using Q-Chem.  Have a nice day.  *
