 Q-Chem 5.4, Q-Chem, Inc., Pleasanton, CA (2021)
 Q-Chem 5.4.0 for Intel X86 EM64T Linux

User input:
--------------------------------------------------------------
$molecule
0 1
C	-0.445294	-0.140188	-0.210225
S	0.241506	0.256612	1.370275
C	1.659806	1.075412	0.694675
C	0.418906	0.358912	-1.195625
C	1.562206	1.019112	-0.703725
H	0.214806	0.241112	-2.270125
H	2.325106	1.459712	-1.362825
C	-0.445294	-1.618388	-0.210225
H	-1.272294	-1.618988	-0.904825
H	0.188906	-2.057688	-0.966025
H	-0.967794	-2.329388	0.412675
H	2.422406	1.515912	1.345775
$end

$rem
JOBTYPE		SP
EXCHANGE	HF
CORRELATION	pRIMP2
BASIS		cc-pvtz
METHOD		rimp2
AUX_BASIS	rimp2-cc-pvtz
SOLVENT_METHOD	PCM
PURECART	11111
SYMMETRY	false
MEM_TOTAL	110000
SCF_CONVERGENCE = 6
THRESH=10
GUI = 2
$end

$solvent
dielectric 4.90
$end
--------------------------------------------------------------

             Standard Nuclear Orientation (Angstroms)
    I     Atom           X                Y                Z
 ----------------------------------------------------------------
    1      C      -0.4452940000    -0.1401880000    -0.2102250000
    2      S       0.2415060000     0.2566120000     1.3702750000
    3      C       1.6598060000     1.0754120000     0.6946750000
    4      C       0.4189060000     0.3589120000    -1.1956250000
    5      C       1.5622060000     1.0191120000    -0.7037250000
    6      H       0.2148060000     0.2411120000    -2.2701250000
    7      H       2.3251060000     1.4597120000    -1.3628250000
    8      C      -0.4452940000    -1.6183880000    -0.2102250000
    9      H      -1.2722940000    -1.6189880000    -0.9048250000
   10      H       0.1889060000    -2.0576880000    -0.9660250000
   11      H      -0.9677940000    -2.3293880000     0.4126750000
   12      H       2.4224060000     1.5159120000     1.3457750000
 ----------------------------------------------------------------

   11    -590.2974219793      6.97e-07  Convergence criterion met
 Total energy in the final basis set =     -590.2974219793
        RIMP2         total energy =      -591.3133083933 a.u.

                    Orbital Energies (a.u.)
 --------------------------------------------------------------

 Alpha MOs
 -- Occupied --
-91.9729 -11.2912 -11.2586 -11.2504 -11.2458 -11.2124  -8.9738  -6.6545
 -6.6535  -6.6534  -1.1680  -1.0363  -0.9784  -0.9084  -0.7622  -0.7294
 -0.6711  -0.5923  -0.5743  -0.5563  -0.5394  -0.4987  -0.4624  -0.4206
 -0.3428  -0.2998

          Ground-State Mulliken Net Atomic Charges

     Atom                 Charge (a.u.)
  ----------------------------------------
      1 C                    -0.108926
      2 S                     0.014673
      3 C                    -0.154488
      4 C                    -0.102641
      5 C                    -0.237465
      6 H                     0.188430
      7 H                     0.186838
      8 C                    -0.386500
      9 H                     0.115298
     10 H                     0.126875
     11 H                     0.151742
     12 H                     0.206163
  ----------------------------------------
  Sum of atomic charges =     0.000000

                    Cartesian Multipole Moments
 -----------------------------------------------------------------
    Charge (ESU x 10^10)
                 0.0000
    Dipole Moment (Debye)
         X       1.8484      Y      -0.0887      Z      -1.5341
       Tot       2.4038
    Quadrupole Moments (Debye-Ang)
        XX     -41.0089     XY       5.4857     YY     -43.7966
        XZ       0.4527     YZ       0.8447     ZZ     -40.9395

 Total job time:  12.29s(wall), 624.56s(cpu)
        *  Thank you very much for using Q-Chem.  Have a nice day.  *
