 Q-Chem 5.4, Q-Chem, Inc., Pleasanton, CA (2021)
 Q-Chem 5.4.0 for Intel X86 EM64T Linux

User input:
--------------------------------------------------------------
$molecule
0 1
C	-0.039488	-0.397395	-0.214556
S	0.029412	0.392805	1.365944
C	0.172112	2.024305	0.690344
C	0.047312	0.596805	-1.199956
C	0.162312	1.912005	-0.708056
H	0.026812	0.362105	-2.274456
H	0.239012	2.789605	-1.367156
C	-0.039488	-1.875595	-0.214556
H	-1.103188	-1.876195	-0.027556
H	-0.210788	-2.314895	-1.186156
H	0.101812	-2.586595	0.586044
H	0.248812	2.901605	1.341444
$end

$rem
JOBTYPE		SP
EXCHANGE	HF
CORRELATION	pRIMP2
BASIS		cc-pvtz
METHOD		rimp2
AUX_BASIS	rimp2-cc-pvtz
SOLVENT_METHOD	PCM
PURECART	11111
SYMMETRY	false
MEM_TOTAL	110000
SCF_CONVERGENCE = 6
THRESH=10
GUI = 2
$end

$solvent
dielectric 4.90
$end
--------------------------------------------------------------

             Standard Nuclear Orientation (Angstroms)
    I     Atom           X                Y                Z
 ----------------------------------------------------------------
    1      C      -0.0394880000    -0.3973950000    -0.2145560000
    2      S       0.0294120000     0.3928050000     1.3659440000
    3      C       0.1721120000     2.0243050000     0.6903440000
    4      C       0.0473120000     0.5968050000    -1.1999560000
    5      C       0.1623120000     1.9120050000    -0.7080560000
    6      H       0.0268120000     0.3621050000    -2.2744560000
    7      H       0.2390120000     2.7896050000    -1.3671560000
    8      C      -0.0394880000    -1.8755950000    -0.2145560000
    9      H      -1.1031880000    -1.8761950000    -0.0275560000
   10      H      -0.2107880000    -2.3148950000    -1.1861560000
   11      H       0.1018120000    -2.5865950000     0.5860440000
   12      H       0.2488120000     2.9016050000     1.3414440000
 ----------------------------------------------------------------

   10    -590.3726923445      6.29e-07  Convergence criterion met
 Total energy in the final basis set =     -590.3726923445
        RIMP2         total energy =      -591.3728976144 a.u.

                    Orbital Energies (a.u.)
 --------------------------------------------------------------

 Alpha MOs
 -- Occupied --
-91.9772 -11.2918 -11.2627 -11.2428 -11.2325 -11.2281  -8.9772  -6.6581
 -6.6576  -6.6570  -1.1568  -1.0407  -0.9711  -0.9201  -0.7548  -0.7214
 -0.6706  -0.5989  -0.5657  -0.5564  -0.5469  -0.4921  -0.4763  -0.4546
 -0.3464  -0.2983

          Ground-State Mulliken Net Atomic Charges

     Atom                 Charge (a.u.)
  ----------------------------------------
      1 C                     0.020888
      2 S                    -0.009703
      3 C                    -0.246223
      4 C                    -0.234110
      5 C                    -0.189470
      6 H                     0.183189
      7 H                     0.185148
      8 C                    -0.362915
      9 H                     0.140681
     10 H                     0.135219
     11 H                     0.173056
     12 H                     0.204241
  ----------------------------------------
  Sum of atomic charges =     0.000000

                    Cartesian Multipole Moments
 -----------------------------------------------------------------
    Charge (ESU x 10^10)
                -0.0000
    Dipole Moment (Debye)
         X      -0.6411      Y      -0.8436      Z      -0.9599
       Tot       1.4297
    Quadrupole Moments (Debye-Ang)
        XX     -48.1798     XY       2.2003     YY     -35.8765
        XZ       0.3395     YZ       0.3308     ZZ     -41.8530

 Total job time:  11.55s(wall), 580.60s(cpu)
        *  Thank you very much for using Q-Chem.  Have a nice day.  *
