 Q-Chem 5.4, Q-Chem, Inc., Pleasanton, CA (2021)
 Q-Chem 5.4.0 for Intel X86 EM64T Linux

User input:
--------------------------------------------------------------
$molecule
0 1
C	-0.397041	-0.214208	-0.208858
S	0.210459	0.295792	1.371642
C	1.464959	1.348492	0.696042
C	0.367359	0.427392	-1.194258
C	1.378659	1.276092	-0.702358
H	0.186859	0.275892	-2.268758
H	2.053459	1.842392	-1.361458
C	-0.397041	-1.692408	-0.208858
H	-0.584041	-1.693008	-1.272558
H	0.574559	-2.131708	-0.380158
H	-1.197641	-2.403408	-0.067558
H	2.139559	1.914692	1.347142
$end

$rem
JOBTYPE		SP
EXCHANGE	HF
CORRELATION	pRIMP2
BASIS		cc-pvtz
METHOD		rimp2
AUX_BASIS	rimp2-cc-pvtz
SOLVENT_METHOD	PCM
PURECART	11111
SYMMETRY	false
MEM_TOTAL	110000
SCF_CONVERGENCE = 6
THRESH=10
GUI = 2
$end

$solvent
dielectric 4.90
$end
--------------------------------------------------------------

             Standard Nuclear Orientation (Angstroms)
    I     Atom           X                Y                Z
 ----------------------------------------------------------------
    1      C      -0.3970410000    -0.2142080000    -0.2088580000
    2      S       0.2104590000     0.2957920000     1.3716420000
    3      C       1.4649590000     1.3484920000     0.6960420000
    4      C       0.3673590000     0.4273920000    -1.1942580000
    5      C       1.3786590000     1.2760920000    -0.7023580000
    6      H       0.1868590000     0.2758920000    -2.2687580000
    7      H       2.0534590000     1.8423920000    -1.3614580000
    8      C      -0.3970410000    -1.6924080000    -0.2088580000
    9      H      -0.5840410000    -1.6930080000    -1.2725580000
   10      H       0.5745590000    -2.1317080000    -0.3801580000
   11      H      -1.1976410000    -2.4034080000    -0.0675580000
   12      H       2.1395590000     1.9146920000     1.3471420000
 ----------------------------------------------------------------

   11    -590.3284554906      4.55e-07  Convergence criterion met
 Total energy in the final basis set =     -590.3284554906
        RIMP2         total energy =      -591.3399017770 a.u.

                    Orbital Energies (a.u.)
 --------------------------------------------------------------

 Alpha MOs
 -- Occupied --
-91.9733 -11.2850 -11.2633 -11.2529 -11.2449 -11.2170  -8.9740  -6.6548
 -6.6540  -6.6537  -1.1652  -1.0369  -0.9770  -0.9105  -0.7596  -0.7281
 -0.6719  -0.5951  -0.5763  -0.5566  -0.5392  -0.4890  -0.4667  -0.4267
 -0.3425  -0.3134

          Ground-State Mulliken Net Atomic Charges

     Atom                 Charge (a.u.)
  ----------------------------------------
      1 C                    -0.061910
      2 S                     0.005326
      3 C                    -0.179303
      4 C                    -0.141974
      5 C                    -0.224545
      6 H                     0.183169
      7 H                     0.188127
      8 C                    -0.353409
      9 H                     0.103785
     10 H                     0.132057
     11 H                     0.142518
     12 H                     0.206158
  ----------------------------------------
  Sum of atomic charges =     0.000000

                    Cartesian Multipole Moments
 -----------------------------------------------------------------
    Charge (ESU x 10^10)
                 0.0000
    Dipole Moment (Debye)
         X       1.6478      Y      -0.0021      Z      -1.7408
       Tot       2.3970
    Quadrupole Moments (Debye-Ang)
        XX     -42.3166     XY       5.2530     YY     -41.9689
        XZ       0.6743     YZ       1.5979     ZZ     -41.6079

 Total job time:  11.91s(wall), 618.06s(cpu)
        *  Thank you very much for using Q-Chem.  Have a nice day.  *
