 Q-Chem 5.4, Q-Chem, Inc., Pleasanton, CA (2021)
 Q-Chem 5.4.0 for Intel X86 EM64T Linux

User input:
--------------------------------------------------------------
$molecule
0 1
C	-0.002658	-0.399361	-0.209570
S	-0.002858	0.393839	1.370930
C	-0.002858	2.031539	0.695330
C	-0.002858	0.598639	-1.194970
C	-0.002958	1.918839	-0.703070
H	-0.002758	0.362939	-2.269470
H	-0.002958	2.799839	-1.362170
C	-0.002658	-1.877561	-0.209570
H	0.367242	-1.878161	-1.224270
H	0.924442	-2.316861	0.127930
H	-0.766658	-2.588561	-0.487470
H	-0.002958	2.912239	1.346430
$end

$rem
JOBTYPE		SP
EXCHANGE	HF
CORRELATION	pRIMP2
BASIS		cc-pvtz
METHOD		rimp2
AUX_BASIS	rimp2-cc-pvtz
SOLVENT_METHOD	PCM
PURECART	11111
SYMMETRY	false
MEM_TOTAL	110000
SCF_CONVERGENCE = 6
THRESH=10
GUI = 2
$end

$solvent
dielectric 4.90
$end
--------------------------------------------------------------

             Standard Nuclear Orientation (Angstroms)
    I     Atom           X                Y                Z
 ----------------------------------------------------------------
    1      C      -0.0026580000    -0.3993610000    -0.2095700000
    2      S      -0.0028580000     0.3938390000     1.3709300000
    3      C      -0.0028580000     2.0315390000     0.6953300000
    4      C      -0.0028580000     0.5986390000    -1.1949700000
    5      C      -0.0029580000     1.9188390000    -0.7030700000
    6      H      -0.0027580000     0.3629390000    -2.2694700000
    7      H      -0.0029580000     2.7998390000    -1.3621700000
    8      C      -0.0026580000    -1.8775610000    -0.2095700000
    9      H       0.3672420000    -1.8781610000    -1.2242700000
   10      H       0.9244420000    -2.3168610000     0.1279300000
   11      H      -0.7666580000    -2.5885610000    -0.4874700000
   12      H      -0.0029580000     2.9122390000     1.3464300000
 ----------------------------------------------------------------

   10    -590.3738246209      5.77e-07  Convergence criterion met
 Total energy in the final basis set =     -590.3738246209
        RIMP2         total energy =      -591.3757572750 a.u.

                    Orbital Energies (a.u.)
 --------------------------------------------------------------

 Alpha MOs
 -- Occupied --
-91.9755 -11.2858 -11.2682 -11.2429 -11.2400 -11.2239  -8.9756  -6.6564
 -6.6559  -6.6554  -1.1569  -1.0381  -0.9727  -0.9194  -0.7545  -0.7241
 -0.6726  -0.5971  -0.5702  -0.5590  -0.5395  -0.5005  -0.4677  -0.4396
 -0.3451  -0.3109

          Ground-State Mulliken Net Atomic Charges

     Atom                 Charge (a.u.)
  ----------------------------------------
      1 C                     0.033903
      2 S                    -0.008476
      3 C                    -0.229674
      4 C                    -0.221847
      5 C                    -0.199680
      6 H                     0.183760
      7 H                     0.186238
      8 C                    -0.357438
      9 H                     0.120605
     10 H                     0.138005
     11 H                     0.150413
     12 H                     0.204192
  ----------------------------------------
  Sum of atomic charges =     0.000000

                    Cartesian Multipole Moments
 -----------------------------------------------------------------
    Charge (ESU x 10^10)
                -0.0000
    Dipole Moment (Debye)
         X       0.2525      Y      -0.3643      Z      -1.7402
       Tot       1.7958
    Quadrupole Moments (Debye-Ang)
        XX     -47.5596     XY      -0.3495     YY     -36.0114
        XZ       0.2125     YZ       2.1357     ZZ     -42.0345

 Total job time:  16.57s(wall), 588.64s(cpu)
        *  Thank you very much for using Q-Chem.  Have a nice day.  *
