 Q-Chem 5.4, Q-Chem, Inc., Pleasanton, CA (2021)
 Q-Chem 5.4.0 for Intel X86 EM64T Linux

User input:
--------------------------------------------------------------
$molecule
0 1
C	-0.338514	-0.278098	-0.216317
S	0.171186	0.329602	1.364183
C	1.223886	1.584202	0.688583
C	0.302886	0.486502	-1.201717
C	1.151386	1.497902	-0.709817
H	0.151386	0.306002	-2.276217
H	1.717586	2.172802	-1.368917
C	-0.338514	-1.756298	-0.216317
H	0.724986	-1.756898	-0.028217
H	-0.509914	-2.195598	0.755283
H	-0.197514	-2.467298	-1.017017
H	1.789886	2.258902	1.339683
$end

$rem
JOBTYPE		SP
EXCHANGE	HF
CORRELATION	pRIMP2
BASIS		cc-pvtz
METHOD		rimp2
AUX_BASIS	rimp2-cc-pvtz
SOLVENT_METHOD	PCM
PURECART	11111
SYMMETRY	false
MEM_TOTAL	110000
SCF_CONVERGENCE = 6
THRESH=10
GUI = 2
$end

$solvent
dielectric 4.90
$end
--------------------------------------------------------------

             Standard Nuclear Orientation (Angstroms)
    I     Atom           X                Y                Z
 ----------------------------------------------------------------
    1      C      -0.3385140000    -0.2780980000    -0.2163170000
    2      S       0.1711860000     0.3296020000     1.3641830000
    3      C       1.2238860000     1.5842020000     0.6885830000
    4      C       0.3028860000     0.4865020000    -1.2017170000
    5      C       1.1513860000     1.4979020000    -0.7098170000
    6      H       0.1513860000     0.3060020000    -2.2762170000
    7      H       1.7175860000     2.1728020000    -1.3689170000
    8      C      -0.3385140000    -1.7562980000    -0.2163170000
    9      H       0.7249860000    -1.7568980000    -0.0282170000
   10      H      -0.5099140000    -2.1955980000     0.7552830000
   11      H      -0.1975140000    -2.4672980000    -1.0170170000
   12      H       1.7898860000     2.2589020000     1.3396830000
 ----------------------------------------------------------------

   10    -590.3451530113      6.83e-07  Convergence criterion met
 Total energy in the final basis set =     -590.3451530113
        RIMP2         total energy =      -591.3515373337 a.u.

                    Orbital Energies (a.u.)
 --------------------------------------------------------------

 Alpha MOs
 -- Occupied --
-91.9769 -11.2812 -11.2730 -11.2444 -11.2372 -11.2250  -8.9774  -6.6582
 -6.6577  -6.6571  -1.1637  -1.0400  -0.9743  -0.9126  -0.7590  -0.7236
 -0.6721  -0.5951  -0.5680  -0.5619  -0.5340  -0.4986  -0.4688  -0.4554
 -0.3473  -0.2967

          Ground-State Mulliken Net Atomic Charges

     Atom                 Charge (a.u.)
  ----------------------------------------
      1 C                    -0.007347
      2 S                    -0.001084
      3 C                    -0.225992
      4 C                    -0.216613
      5 C                    -0.189607
      6 H                     0.180109
      7 H                     0.187706
      8 C                    -0.355915
      9 H                     0.141798
     10 H                     0.124853
     11 H                     0.156563
     12 H                     0.205528
  ----------------------------------------
  Sum of atomic charges =     0.000000

                    Cartesian Multipole Moments
 -----------------------------------------------------------------
    Charge (ESU x 10^10)
                 0.0000
    Dipole Moment (Debye)
         X       1.6541      Y      -0.5470      Z      -0.9953
       Tot       2.0065
    Quadrupole Moments (Debye-Ang)
        XX     -45.1749     XY       3.4268     YY     -39.9991
        XZ       0.1331     YZ       0.8149     ZZ     -41.5686

 Total job time:  11.28s(wall), 587.82s(cpu)
        *  Thank you very much for using Q-Chem.  Have a nice day.  *
