 Q-Chem 5.4, Q-Chem, Inc., Pleasanton, CA (2021)
 Q-Chem 5.4.0 for Intel X86 EM64T Linux

User input:
--------------------------------------------------------------
$molecule
0 1
C	-0.085699	-0.391505	-0.218146
S	0.051801	0.389695	1.362354
C	0.336201	2.002495	0.686754
C	0.087401	0.591395	-1.203546
C	0.316601	1.891595	-0.711646
H	0.046501	0.359295	-2.278046
H	0.469501	2.759095	-1.370746
C	-0.085699	-1.869705	-0.218146
H	-0.780299	-1.870305	0.608854
H	-0.841499	-2.309005	-0.852346
H	0.537201	-2.580705	0.304354
H	0.489001	2.869795	1.337854
$end

$rem
JOBTYPE		SP
EXCHANGE	HF
CORRELATION	pRIMP2
BASIS		cc-pvtz
METHOD		rimp2
AUX_BASIS	rimp2-cc-pvtz
SOLVENT_METHOD	PCM
PURECART	11111
SYMMETRY	false
MEM_TOTAL	110000
SCF_CONVERGENCE = 6
THRESH=10
GUI = 2
$end

$solvent
dielectric 4.90
$end
--------------------------------------------------------------

             Standard Nuclear Orientation (Angstroms)
    I     Atom           X                Y                Z
 ----------------------------------------------------------------
    1      C      -0.0856990000    -0.3915050000    -0.2181460000
    2      S       0.0518010000     0.3896950000     1.3623540000
    3      C       0.3362010000     2.0024950000     0.6867540000
    4      C       0.0874010000     0.5913950000    -1.2035460000
    5      C       0.3166010000     1.8915950000    -0.7116460000
    6      H       0.0465010000     0.3592950000    -2.2780460000
    7      H       0.4695010000     2.7590950000    -1.3707460000
    8      C      -0.0856990000    -1.8697050000    -0.2181460000
    9      H      -0.7802990000    -1.8703050000     0.6088540000
   10      H      -0.8414990000    -2.3090050000    -0.8523460000
   11      H       0.5372010000    -2.5807050000     0.3043540000
   12      H       0.4890010000     2.8697950000     1.3378540000
 ----------------------------------------------------------------

   10    -590.3697343480      5.96e-07  Convergence criterion met
 Total energy in the final basis set =     -590.3697343480
        RIMP2         total energy =      -591.3715102062 a.u.

                    Orbital Energies (a.u.)
 --------------------------------------------------------------

 Alpha MOs
 -- Occupied --
-91.9789 -11.2846 -11.2685 -11.2431 -11.2362 -11.2243  -8.9789  -6.6597
 -6.6592  -6.6587  -1.1577  -1.0395  -0.9726  -0.9191  -0.7576  -0.7207
 -0.6713  -0.5975  -0.5678  -0.5611  -0.5404  -0.4930  -0.4676  -0.4530
 -0.3465  -0.3067

          Ground-State Mulliken Net Atomic Charges

     Atom                 Charge (a.u.)
  ----------------------------------------
      1 C                     0.007220
      2 S                    -0.005947
      3 C                    -0.230303
      4 C                    -0.212698
      5 C                    -0.194940
      6 H                     0.184562
      7 H                     0.185814
      8 C                    -0.344209
      9 H                     0.118099
     10 H                     0.131325
     11 H                     0.155878
     12 H                     0.205199
  ----------------------------------------
  Sum of atomic charges =     0.000000

                    Cartesian Multipole Moments
 -----------------------------------------------------------------
    Charge (ESU x 10^10)
                -0.0000
    Dipole Moment (Debye)
         X      -0.2037      Y      -0.3422      Z      -0.5900
       Tot       0.7118
    Quadrupole Moments (Debye-Ang)
        XX     -47.4783     XY       2.3189     YY     -36.2639
        XZ       0.5594     YZ      -0.2855     ZZ     -42.1710

 Total job time:  12.98s(wall), 598.76s(cpu)
        *  Thank you very much for using Q-Chem.  Have a nice day.  *
