 Q-Chem 5.4, Q-Chem, Inc., Pleasanton, CA (2021)
 Q-Chem 5.4.0 for Intel X86 EM64T Linux

User input:
--------------------------------------------------------------
$molecule
0 1
C	-0.398179	-0.214208	-0.219989
S	0.209321	0.295792	1.360511
C	1.463821	1.348492	0.684911
C	0.366221	0.427392	-1.205389
C	1.377521	1.276092	-0.713489
H	0.185721	0.275892	-2.279889
H	2.052321	1.842392	-1.372589
C	-0.398179	-1.692408	-0.219989
H	-0.029279	-1.693008	0.795011
H	-1.325279	-2.131708	0.117411
H	0.365721	-2.403408	-0.498189
H	2.138421	1.914692	1.336011
$end

$rem
JOBTYPE		SP
EXCHANGE	HF
CORRELATION	pRIMP2
BASIS		cc-pvtz
METHOD		rimp2
AUX_BASIS	rimp2-cc-pvtz
SOLVENT_METHOD	PCM
PURECART	11111
SYMMETRY	false
MEM_TOTAL	110000
SCF_CONVERGENCE = 6
THRESH=10
GUI = 2
$end

$solvent
dielectric 4.90
$end
--------------------------------------------------------------

             Standard Nuclear Orientation (Angstroms)
    I     Atom           X                Y                Z
 ----------------------------------------------------------------
    1      C      -0.3981790000    -0.2142080000    -0.2199890000
    2      S       0.2093210000     0.2957920000     1.3605110000
    3      C       1.4638210000     1.3484920000     0.6849110000
    4      C       0.3662210000     0.4273920000    -1.2053890000
    5      C       1.3775210000     1.2760920000    -0.7134890000
    6      H       0.1857210000     0.2758920000    -2.2798890000
    7      H       2.0523210000     1.8423920000    -1.3725890000
    8      C      -0.3981790000    -1.6924080000    -0.2199890000
    9      H      -0.0292790000    -1.6930080000     0.7950110000
   10      H      -1.3252790000    -2.1317080000     0.1174110000
   11      H       0.3657210000    -2.4034080000    -0.4981890000
   12      H       2.1384210000     1.9146920000     1.3360110000
 ----------------------------------------------------------------

   11    -590.3116470255      3.55e-07  Convergence criterion met
 Total energy in the final basis set =     -590.3116470255
        RIMP2         total energy =      -591.3235455482 a.u.

                    Orbital Energies (a.u.)
 --------------------------------------------------------------

 Alpha MOs
 -- Occupied --
-91.9741 -11.2866 -11.2600 -11.2525 -11.2432 -11.2114  -8.9754  -6.6562
 -6.6553  -6.6550  -1.1671  -1.0383  -0.9787  -0.9075  -0.7659  -0.7246
 -0.6719  -0.5894  -0.5747  -0.5637  -0.5382  -0.4834  -0.4627  -0.4417
 -0.3396  -0.3082

          Ground-State Mulliken Net Atomic Charges

     Atom                 Charge (a.u.)
  ----------------------------------------
      1 C                    -0.077675
      2 S                     0.000014
      3 C                    -0.177274
      4 C                    -0.129618
      5 C                    -0.224614
      6 H                     0.186076
      7 H                     0.186831
      8 C                    -0.366145
      9 H                     0.128120
     10 H                     0.111854
     11 H                     0.154929
     12 H                     0.207501
  ----------------------------------------
  Sum of atomic charges =     0.000000

                    Cartesian Multipole Moments
 -----------------------------------------------------------------
    Charge (ESU x 10^10)
                 0.0000
    Dipole Moment (Debye)
         X       2.0584      Y       0.0976      Z      -0.5370
       Tot       2.1295
    Quadrupole Moments (Debye-Ang)
        XX     -42.7400     XY       3.9557     YY     -42.3174
        XZ       0.1833     YZ      -0.5701     ZZ     -41.6275

 Total job time:  11.21s(wall), 595.47s(cpu)
        *  Thank you very much for using Q-Chem.  Have a nice day.  *
