 Q-Chem 5.4, Q-Chem, Inc., Pleasanton, CA (2021)
 Q-Chem 5.4.0 for Intel X86 EM64T Linux

User input:
--------------------------------------------------------------
$molecule
0 1
C	-0.172901	-0.368118	-0.210927
S	0.098199	0.377282	1.369573
C	0.658299	1.916282	0.693973
C	0.168299	0.569782	-1.196327
C	0.619699	1.810382	-0.704427
H	0.087699	0.348282	-2.270827
H	0.920999	2.638182	-1.363527
C	-0.172901	-1.846318	-0.210927
H	-1.107901	-1.846918	-0.751427
H	0.320399	-2.285618	-1.065327
H	-0.579301	-2.557318	0.493173
H	0.959399	2.743882	1.345073
$end

$rem
JOBTYPE		SP
EXCHANGE	HF
CORRELATION	pRIMP2
BASIS		cc-pvtz
METHOD		rimp2
AUX_BASIS	rimp2-cc-pvtz
SOLVENT_METHOD	PCM
PURECART	11111
SYMMETRY	false
MEM_TOTAL	110000
SCF_CONVERGENCE = 6
THRESH=10
GUI = 2
$end

$solvent
dielectric 4.90
$end
--------------------------------------------------------------

             Standard Nuclear Orientation (Angstroms)
    I     Atom           X                Y                Z
 ----------------------------------------------------------------
    1      C      -0.1729010000    -0.3681180000    -0.2109270000
    2      S       0.0981990000     0.3772820000     1.3695730000
    3      C       0.6582990000     1.9162820000     0.6939730000
    4      C       0.1682990000     0.5697820000    -1.1963270000
    5      C       0.6196990000     1.8103820000    -0.7044270000
    6      H       0.0876990000     0.3482820000    -2.2708270000
    7      H       0.9209990000     2.6381820000    -1.3635270000
    8      C      -0.1729010000    -1.8463180000    -0.2109270000
    9      H      -1.1079010000    -1.8469180000    -0.7514270000
   10      H       0.3203990000    -2.2856180000    -1.0653270000
   11      H      -0.5793010000    -2.5573180000     0.4931730000
   12      H       0.9593990000     2.7438820000     1.3450730000
 ----------------------------------------------------------------

   10    -590.3628646934      6.37e-07  Convergence criterion met
 Total energy in the final basis set =     -590.3628646934
        RIMP2         total energy =      -591.3664194767 a.u.

                    Orbital Energies (a.u.)
 --------------------------------------------------------------

 Alpha MOs
 -- Occupied --
-91.9757 -11.2871 -11.2650 -11.2432 -11.2365 -11.2244  -8.9758  -6.6567
 -6.6561  -6.6556  -1.1570  -1.0388  -0.9716  -0.9191  -0.7542  -0.7227
 -0.6705  -0.5974  -0.5627  -0.5599  -0.5465  -0.4998  -0.4657  -0.4475
 -0.3453  -0.2995

          Ground-State Mulliken Net Atomic Charges

     Atom                 Charge (a.u.)
  ----------------------------------------
      1 C                     0.028326
      2 S                     0.000641
      3 C                    -0.242190
      4 C                    -0.247479
      5 C                    -0.180881
      6 H                     0.179705
      7 H                     0.186882
      8 C                    -0.372056
      9 H                     0.132985
     10 H                     0.139769
     11 H                     0.171926
     12 H                     0.202374
  ----------------------------------------
  Sum of atomic charges =     0.000000

                    Cartesian Multipole Moments
 -----------------------------------------------------------------
    Charge (ESU x 10^10)
                -0.0000
    Dipole Moment (Debye)
         X      -0.2299      Y      -0.6814      Z      -1.4680
       Tot       1.6347
    Quadrupole Moments (Debye-Ang)
        XX     -46.8887     XY       4.2789     YY     -37.1257
        XZ      -0.0008     YZ       1.2174     ZZ     -41.7204

 Total job time:  11.06s(wall), 554.42s(cpu)
        *  Thank you very much for using Q-Chem.  Have a nice day.  *
