 Q-Chem 5.4, Q-Chem, Inc., Pleasanton, CA (2021)
 Q-Chem 5.4.0 for Intel X86 EM64T Linux

User input:
--------------------------------------------------------------
$molecule
0 1
C	-0.094851	-0.391505	-0.217210
S	0.042649	0.389695	1.363290
C	0.327049	2.002495	0.687690
C	0.078249	0.591395	-1.202610
C	0.307449	1.891595	-0.710710
H	0.037349	0.359295	-2.277110
H	0.460349	2.759095	-1.369810
C	-0.094851	-1.869705	-0.217210
H	0.919849	-1.870305	0.152690
H	-0.432351	-2.309005	0.709890
H	0.183049	-2.580705	-0.981210
H	0.479849	2.869795	1.338790
$end

$rem
JOBTYPE		SP
EXCHANGE	HF
CORRELATION	pRIMP2
BASIS		cc-pvtz
METHOD		rimp2
AUX_BASIS	rimp2-cc-pvtz
SOLVENT_METHOD	PCM
PURECART	11111
SYMMETRY	false
MEM_TOTAL	110000
SCF_CONVERGENCE = 6
THRESH=10
GUI = 2
$end

$solvent
dielectric 4.90
$end
--------------------------------------------------------------

             Standard Nuclear Orientation (Angstroms)
    I     Atom           X                Y                Z
 ----------------------------------------------------------------
    1      C      -0.0948510000    -0.3915050000    -0.2172100000
    2      S       0.0426490000     0.3896950000     1.3632900000
    3      C       0.3270490000     2.0024950000     0.6876900000
    4      C       0.0782490000     0.5913950000    -1.2026100000
    5      C       0.3074490000     1.8915950000    -0.7107100000
    6      H       0.0373490000     0.3592950000    -2.2771100000
    7      H       0.4603490000     2.7590950000    -1.3698100000
    8      C      -0.0948510000    -1.8697050000    -0.2172100000
    9      H       0.9198490000    -1.8703050000     0.1526900000
   10      H      -0.4323510000    -2.3090050000     0.7098900000
   11      H       0.1830490000    -2.5807050000    -0.9812100000
   12      H       0.4798490000     2.8697950000     1.3387900000
 ----------------------------------------------------------------

   10    -590.3733181647      6.49e-07  Convergence criterion met
 Total energy in the final basis set =     -590.3733181647
        RIMP2         total energy =      -591.3729564713 a.u.

                    Orbital Energies (a.u.)
 --------------------------------------------------------------

 Alpha MOs
 -- Occupied --
-91.9786 -11.2910 -11.2639 -11.2427 -11.2309 -11.2284  -8.9786  -6.6595
 -6.6591  -6.6584  -1.1578  -1.0412  -0.9714  -0.9190  -0.7555  -0.7214
 -0.6715  -0.5972  -0.5662  -0.5603  -0.5369  -0.4991  -0.4763  -0.4563
 -0.3471  -0.2989

          Ground-State Mulliken Net Atomic Charges

     Atom                 Charge (a.u.)
  ----------------------------------------
      1 C                     0.026691
      2 S                    -0.004286
      3 C                    -0.248196
      4 C                    -0.250245
      5 C                    -0.180753
      6 H                     0.182517
      7 H                     0.185697
      8 C                    -0.359490
      9 H                     0.140307
     10 H                     0.135861
     11 H                     0.167181
     12 H                     0.204717
  ----------------------------------------
  Sum of atomic charges =     0.000000

                    Cartesian Multipole Moments
 -----------------------------------------------------------------
    Charge (ESU x 10^10)
                 0.0000
    Dipole Moment (Debye)
         X       0.8703      Y      -0.7859      Z      -0.8162
       Tot       1.4288
    Quadrupole Moments (Debye-Ang)
        XX     -48.0629     XY       0.1209     YY     -36.1070
        XZ      -0.3178     YZ       0.5957     ZZ     -41.9301

 Total job time:  12.43s(wall), 596.08s(cpu)
        *  Thank you very much for using Q-Chem.  Have a nice day.  *
