 Q-Chem 5.4, Q-Chem, Inc., Pleasanton, CA (2021)
 Q-Chem 5.4.0 for Intel X86 EM64T Linux

User input:
--------------------------------------------------------------
$molecule
0 1
C	-0.257317	-0.329934	-0.219778
S	0.139083	0.357066	1.360722
C	0.957883	1.775366	0.685122
C	0.241483	0.534466	-1.205178
C	0.901583	1.677866	-0.713278
H	0.123683	0.330366	-2.279678
H	1.341983	2.440766	-1.372378
C	-0.257317	-1.808134	-0.219778
H	-0.445417	-1.808734	0.843722
H	-1.228917	-2.247434	-0.391178
H	0.543383	-2.519134	-0.078778
H	1.398183	2.538166	1.336222
$end

$rem
JOBTYPE		SP
EXCHANGE	HF
CORRELATION	pRIMP2
BASIS		cc-pvtz
METHOD		rimp2
AUX_BASIS	rimp2-cc-pvtz
SOLVENT_METHOD	PCM
PURECART	11111
SYMMETRY	false
MEM_TOTAL	110000
SCF_CONVERGENCE = 6
THRESH=10
GUI = 2
$end

$solvent
dielectric 4.90
$end
--------------------------------------------------------------

             Standard Nuclear Orientation (Angstroms)
    I     Atom           X                Y                Z
 ----------------------------------------------------------------
    1      C      -0.2573170000    -0.3299340000    -0.2197780000
    2      S       0.1390830000     0.3570660000     1.3607220000
    3      C       0.9578830000     1.7753660000     0.6851220000
    4      C       0.2414830000     0.5344660000    -1.2051780000
    5      C       0.9015830000     1.6778660000    -0.7132780000
    6      H       0.1236830000     0.3303660000    -2.2796780000
    7      H       1.3419830000     2.4407660000    -1.3723780000
    8      C      -0.2573170000    -1.8081340000    -0.2197780000
    9      H      -0.4454170000    -1.8087340000     0.8437220000
   10      H      -1.2289170000    -2.2474340000    -0.3911780000
   11      H       0.5433830000    -2.5191340000    -0.0787780000
   12      H       1.3981830000     2.5381660000     1.3362220000
 ----------------------------------------------------------------

   10    -590.3512373982      7.36e-07  Convergence criterion met
 Total energy in the final basis set =     -590.3512373982
        RIMP2         total energy =      -591.3574377031 a.u.

                    Orbital Energies (a.u.)
 --------------------------------------------------------------

 Alpha MOs
 -- Occupied --
-91.9795 -11.2760 -11.2727 -11.2435 -11.2417 -11.2195  -8.9796  -6.6604
 -6.6598  -6.6593  -1.1602  -1.0381  -0.9749  -0.9153  -0.7610  -0.7214
 -0.6715  -0.5942  -0.5697  -0.5623  -0.5406  -0.4871  -0.4622  -0.4466
 -0.3453  -0.3128

          Ground-State Mulliken Net Atomic Charges

     Atom                 Charge (a.u.)
  ----------------------------------------
      1 C                    -0.020392
      2 S                    -0.000572
      3 C                    -0.216693
      4 C                    -0.197386
      5 C                    -0.191612
      6 H                     0.184279
      7 H                     0.186570
      8 C                    -0.338258
      9 H                     0.109322
     10 H                     0.121664
     11 H                     0.156317
     12 H                     0.206761
  ----------------------------------------
  Sum of atomic charges =     0.000000

                    Cartesian Multipole Moments
 -----------------------------------------------------------------
    Charge (ESU x 10^10)
                 0.0000
    Dipole Moment (Debye)
         X       0.7859      Y       0.0539      Z      -0.4941
       Tot       0.9299
    Quadrupole Moments (Debye-Ang)
        XX     -45.2818     XY       3.9964     YY     -38.6239
        XZ       0.3788     YZ      -0.3984     ZZ     -42.1532

 Total job time:  12.42s(wall), 578.71s(cpu)
        *  Thank you very much for using Q-Chem.  Have a nice day.  *
