 Q-Chem 5.4, Q-Chem, Inc., Pleasanton, CA (2021)
 Q-Chem 5.4.0 for Intel X86 EM64T Linux

User input:
--------------------------------------------------------------
$molecule
0 1
C	-0.040855	-0.397395	-0.218146
S	0.028045	0.392805	1.362354
C	0.170745	2.024305	0.686754
C	0.045945	0.596805	-1.203546
C	0.160945	1.912005	-0.711646
H	0.025445	0.362105	-2.278046
H	0.237645	2.789605	-1.370746
C	-0.040855	-1.875595	-0.218146
H	-0.735455	-1.876195	0.608854
H	-0.796655	-2.314895	-0.852346
H	0.582045	-2.586595	0.304354
H	0.247445	2.901605	1.337854
$end

$rem
JOBTYPE		SP
EXCHANGE	HF
CORRELATION	pRIMP2
BASIS		cc-pvtz
METHOD		rimp2
AUX_BASIS	rimp2-cc-pvtz
SOLVENT_METHOD	PCM
PURECART	11111
SYMMETRY	false
MEM_TOTAL	110000
SCF_CONVERGENCE = 6
THRESH=10
GUI = 2
$end

$solvent
dielectric 4.90
$end
--------------------------------------------------------------

             Standard Nuclear Orientation (Angstroms)
    I     Atom           X                Y                Z
 ----------------------------------------------------------------
    1      C      -0.0408550000    -0.3973950000    -0.2181460000
    2      S       0.0280450000     0.3928050000     1.3623540000
    3      C       0.1707450000     2.0243050000     0.6867540000
    4      C       0.0459450000     0.5968050000    -1.2035460000
    5      C       0.1609450000     1.9120050000    -0.7116460000
    6      H       0.0254450000     0.3621050000    -2.2780460000
    7      H       0.2376450000     2.7896050000    -1.3707460000
    8      C      -0.0408550000    -1.8755950000    -0.2181460000
    9      H      -0.7354550000    -1.8761950000     0.6088540000
   10      H      -0.7966550000    -2.3148950000    -0.8523460000
   11      H       0.5820450000    -2.5865950000     0.3043540000
   12      H       0.2474450000     2.9016050000     1.3378540000
 ----------------------------------------------------------------

   10    -590.3715102528      5.90e-07  Convergence criterion met
 Total energy in the final basis set =     -590.3715102528
        RIMP2         total energy =      -591.3727798692 a.u.

                    Orbital Energies (a.u.)
 --------------------------------------------------------------

 Alpha MOs
 -- Occupied --
-91.9787 -11.2858 -11.2678 -11.2430 -11.2357 -11.2248  -8.9787  -6.6596
 -6.6591  -6.6585  -1.1576  -1.0398  -0.9725  -0.9192  -0.7574  -0.7207
 -0.6713  -0.5978  -0.5681  -0.5610  -0.5395  -0.4951  -0.4677  -0.4530
 -0.3465  -0.3066

          Ground-State Mulliken Net Atomic Charges

     Atom                 Charge (a.u.)
  ----------------------------------------
      1 C                     0.014720
      2 S                    -0.005975
      3 C                    -0.233368
      4 C                    -0.217320
      5 C                    -0.193539
      6 H                     0.184858
      7 H                     0.185710
      8 C                    -0.346348
      9 H                     0.118855
     10 H                     0.131615
     11 H                     0.155662
     12 H                     0.205128
  ----------------------------------------
  Sum of atomic charges =     0.000000

                    Cartesian Multipole Moments
 -----------------------------------------------------------------
    Charge (ESU x 10^10)
                -0.0000
    Dipole Moment (Debye)
         X      -0.3277      Y      -0.3887      Z      -0.5844
       Tot       0.7746
    Quadrupole Moments (Debye-Ang)
        XX     -47.7119     XY       1.5600     YY     -36.0354
        XZ       0.5214     YZ      -0.3014     ZZ     -42.1935

 Total job time:  10.91s(wall), 544.21s(cpu)
        *  Thank you very much for using Q-Chem.  Have a nice day.  *
