 Q-Chem 5.4, Q-Chem, Inc., Pleasanton, CA (2021)
 Q-Chem 5.4.0 for Intel X86 EM64T Linux

User input:
--------------------------------------------------------------
$molecule
0 1
C	-0.000977	-0.399361	-0.219989
S	-0.001177	0.393839	1.360511
C	-0.001177	2.031539	0.684911
C	-0.001177	0.598639	-1.205389
C	-0.001277	1.918839	-0.713489
H	-0.001077	0.362939	-2.279889
H	-0.001277	2.799839	-1.372589
C	-0.000977	-1.877561	-0.219989
H	0.367923	-1.878161	0.795011
H	-0.928077	-2.316861	0.117411
H	0.762923	-2.588561	-0.498189
H	-0.001277	2.912239	1.336011
$end

$rem
JOBTYPE		SP
EXCHANGE	HF
CORRELATION	pRIMP2
BASIS		cc-pvtz
METHOD		rimp2
AUX_BASIS	rimp2-cc-pvtz
SOLVENT_METHOD	PCM
PURECART	11111
SYMMETRY	false
MEM_TOTAL	110000
SCF_CONVERGENCE = 6
THRESH=10
GUI = 2
$end

$solvent
dielectric 4.90
$end
--------------------------------------------------------------

             Standard Nuclear Orientation (Angstroms)
    I     Atom           X                Y                Z
 ----------------------------------------------------------------
    1      C      -0.0009770000    -0.3993610000    -0.2199890000
    2      S      -0.0011770000     0.3938390000     1.3605110000
    3      C      -0.0011770000     2.0315390000     0.6849110000
    4      C      -0.0011770000     0.5986390000    -1.2053890000
    5      C      -0.0012770000     1.9188390000    -0.7134890000
    6      H      -0.0010770000     0.3629390000    -2.2798890000
    7      H      -0.0012770000     2.7998390000    -1.3725890000
    8      C      -0.0009770000    -1.8775610000    -0.2199890000
    9      H       0.3679230000    -1.8781610000     0.7950110000
   10      H      -0.9280770000    -2.3168610000     0.1174110000
   11      H       0.7629230000    -2.5885610000    -0.4981890000
   12      H      -0.0012770000     2.9122390000     1.3360110000
 ----------------------------------------------------------------

   10    -590.3711754594      5.83e-07  Convergence criterion met
 Total energy in the final basis set =     -590.3711754594
        RIMP2         total energy =      -591.3726694548 a.u.

                    Orbital Energies (a.u.)
 --------------------------------------------------------------

 Alpha MOs
 -- Occupied --
-91.9805 -11.2841 -11.2688 -11.2430 -11.2354 -11.2241  -8.9804  -6.6613
 -6.6608  -6.6602  -1.1580  -1.0401  -0.9729  -0.9185  -0.7583  -0.7204
 -0.6718  -0.5971  -0.5686  -0.5630  -0.5345  -0.5010  -0.4635  -0.4516
 -0.3467  -0.3102

          Ground-State Mulliken Net Atomic Charges

     Atom                 Charge (a.u.)
  ----------------------------------------
      1 C                     0.025471
      2 S                    -0.004832
      3 C                    -0.235436
      4 C                    -0.218524
      5 C                    -0.189858
      6 H                     0.185318
      7 H                     0.185872
      8 C                    -0.350388
      9 H                     0.113338
     10 H                     0.127119
     11 H                     0.155699
     12 H                     0.206222
  ----------------------------------------
  Sum of atomic charges =     0.000000

                    Cartesian Multipole Moments
 -----------------------------------------------------------------
    Charge (ESU x 10^10)
                -0.0000
    Dipole Moment (Debye)
         X       0.2046      Y      -0.2645      Z      -0.4540
       Tot       0.5638
    Quadrupole Moments (Debye-Ang)
        XX     -47.5428     XY      -0.6706     YY     -36.0213
        XZ      -0.2825     YZ      -0.2591     ZZ     -42.3718

 Total job time:  11.34s(wall), 549.76s(cpu)
        *  Thank you very much for using Q-Chem.  Have a nice day.  *
