 Q-Chem 5.4, Q-Chem, Inc., Pleasanton, CA (2021)
 Q-Chem 5.4.0 for Intel X86 EM64T Linux

User input:
--------------------------------------------------------------
$molecule
0 1
C	-0.393577	-0.214208	-0.218828
S	0.213923	0.295792	1.361672
C	1.468423	1.348492	0.686072
C	0.370823	0.427392	-1.204228
C	1.382123	1.276092	-0.712328
H	0.190323	0.275892	-2.278728
H	2.056923	1.842392	-1.371428
C	-0.393577	-1.692408	-0.218828
H	-0.934077	-1.693008	0.716172
H	-1.247977	-2.131708	-0.712128
H	0.310523	-2.403408	0.187572
H	2.143023	1.914692	1.337172
$end

$rem
JOBTYPE		SP
EXCHANGE	HF
CORRELATION	pRIMP2
BASIS		cc-pvtz
METHOD		rimp2
AUX_BASIS	rimp2-cc-pvtz
SOLVENT_METHOD	PCM
PURECART	11111
SYMMETRY	false
MEM_TOTAL	110000
SCF_CONVERGENCE = 6
THRESH=10
GUI = 2
$end

$solvent
dielectric 4.90
$end
--------------------------------------------------------------

             Standard Nuclear Orientation (Angstroms)
    I     Atom           X                Y                Z
 ----------------------------------------------------------------
    1      C      -0.3935770000    -0.2142080000    -0.2188280000
    2      S       0.2139230000     0.2957920000     1.3616720000
    3      C       1.4684230000     1.3484920000     0.6860720000
    4      C       0.3708230000     0.4273920000    -1.2042280000
    5      C       1.3821230000     1.2760920000    -0.7123280000
    6      H       0.1903230000     0.2758920000    -2.2787280000
    7      H       2.0569230000     1.8423920000    -1.3714280000
    8      C      -0.3935770000    -1.6924080000    -0.2188280000
    9      H      -0.9340770000    -1.6930080000     0.7161720000
   10      H      -1.2479770000    -2.1317080000    -0.7121280000
   11      H       0.3105230000    -2.4034080000     0.1875720000
   12      H       2.1430230000     1.9146920000     1.3371720000
 ----------------------------------------------------------------

   11    -590.3210071382      5.24e-07  Convergence criterion met
 Total energy in the final basis set =     -590.3210071382
        RIMP2         total energy =      -591.3320755700 a.u.

                    Orbital Energies (a.u.)
 --------------------------------------------------------------

 Alpha MOs
 -- Occupied --
-91.9780 -11.2881 -11.2557 -11.2516 -11.2442 -11.2149  -8.9784  -6.6592
 -6.6585  -6.6581  -1.1649  -1.0363  -0.9781  -0.9108  -0.7644  -0.7247
 -0.6711  -0.5925  -0.5697  -0.5609  -0.5473  -0.4733  -0.4548  -0.4475
 -0.3444  -0.3111

          Ground-State Mulliken Net Atomic Charges

     Atom                 Charge (a.u.)
  ----------------------------------------
      1 C                    -0.097754
      2 S                     0.007493
      3 C                    -0.174287
      4 C                    -0.117825
      5 C                    -0.220728
      6 H                     0.186139
      7 H                     0.186013
      8 C                    -0.353562
      9 H                     0.108714
     10 H                     0.115954
     11 H                     0.151722
     12 H                     0.208120
  ----------------------------------------
  Sum of atomic charges =     0.000000

                    Cartesian Multipole Moments
 -----------------------------------------------------------------
    Charge (ESU x 10^10)
                -0.0000
    Dipole Moment (Debye)
         X       1.6103      Y       0.2455      Z      -0.6435
       Tot       1.7514
    Quadrupole Moments (Debye-Ang)
        XX     -42.3854     XY       5.2013     YY     -42.0561
        XZ       0.8675     YZ      -0.3080     ZZ     -41.5744

 Total job time:  17.21s(wall), 631.75s(cpu)
        *  Thank you very much for using Q-Chem.  Have a nice day.  *
