 Q-Chem 5.4, Q-Chem, Inc., Pleasanton, CA (2021)
 Q-Chem 5.4.0 for Intel X86 EM64T Linux

User input:
--------------------------------------------------------------
$molecule
0 1
C	-0.332154	-0.278098	-0.208958
S	0.177546	0.329602	1.371542
C	1.230246	1.584202	0.695942
C	0.309246	0.486502	-1.194358
C	1.157746	1.497902	-0.702458
H	0.157746	0.306002	-2.268858
H	1.723946	2.172802	-1.361558
C	-0.332154	-1.756298	-0.208958
H	-0.701054	-1.756898	-1.223958
H	0.594946	-2.195598	-0.546358
H	-1.096054	-2.467298	0.069242
H	1.796246	2.258902	1.347042
$end

$rem
JOBTYPE		SP
EXCHANGE	HF
CORRELATION	pRIMP2
BASIS		cc-pvtz
METHOD		rimp2
AUX_BASIS	rimp2-cc-pvtz
SOLVENT_METHOD	PCM
PURECART	11111
SYMMETRY	false
MEM_TOTAL	110000
SCF_CONVERGENCE = 6
THRESH=10
GUI = 2
$end

$solvent
dielectric 4.90
$end
--------------------------------------------------------------

             Standard Nuclear Orientation (Angstroms)
    I     Atom           X                Y                Z
 ----------------------------------------------------------------
    1      C      -0.3321540000    -0.2780980000    -0.2089580000
    2      S       0.1775460000     0.3296020000     1.3715420000
    3      C       1.2302460000     1.5842020000     0.6959420000
    4      C       0.3092460000     0.4865020000    -1.1943580000
    5      C       1.1577460000     1.4979020000    -0.7024580000
    6      H       0.1577460000     0.3060020000    -2.2688580000
    7      H       1.7239460000     2.1728020000    -1.3615580000
    8      C      -0.3321540000    -1.7562980000    -0.2089580000
    9      H      -0.7010540000    -1.7568980000    -1.2239580000
   10      H       0.5949460000    -2.1955980000    -0.5463580000
   11      H      -1.0960540000    -2.4672980000     0.0692420000
   12      H       1.7962460000     2.2589020000     1.3470420000
 ----------------------------------------------------------------

   10    -590.3445629472      7.94e-07  Convergence criterion met
 Total energy in the final basis set =     -590.3445629472
        RIMP2         total energy =      -591.3532067013 a.u.

                    Orbital Energies (a.u.)
 --------------------------------------------------------------

 Alpha MOs
 -- Occupied --
-91.9732 -11.2780 -11.2721 -11.2481 -11.2441 -11.2193  -8.9737  -6.6546
 -6.6538  -6.6535  -1.1614  -1.0367  -0.9749  -0.9142  -0.7572  -0.7259
 -0.6715  -0.5953  -0.5727  -0.5585  -0.5390  -0.4962  -0.4656  -0.4303
 -0.3441  -0.3106

          Ground-State Mulliken Net Atomic Charges

     Atom                 Charge (a.u.)
  ----------------------------------------
      1 C                    -0.025589
      2 S                     0.000156
      3 C                    -0.198426
      4 C                    -0.181802
      5 C                    -0.210470
      6 H                     0.182601
      7 H                     0.187485
      8 C                    -0.360779
      9 H                     0.110662
     10 H                     0.137975
     11 H                     0.153603
     12 H                     0.204584
  ----------------------------------------
  Sum of atomic charges =     0.000000

                    Cartesian Multipole Moments
 -----------------------------------------------------------------
    Charge (ESU x 10^10)
                 0.0000
    Dipole Moment (Debye)
         X       1.0026      Y      -0.1193      Z      -1.7457
       Tot       2.0167
    Quadrupole Moments (Debye-Ang)
        XX     -43.8303     XY       5.2991     YY     -40.1282
        XZ       0.3795     YZ       1.6858     ZZ     -41.7996

 Total job time:  30.80s(wall), 610.40s(cpu)
        *  Thank you very much for using Q-Chem.  Have a nice day.  *
