 Q-Chem 5.4, Q-Chem, Inc., Pleasanton, CA (2021)
 Q-Chem 5.4.0 for Intel X86 EM64T Linux

User input:
--------------------------------------------------------------
$molecule
0 1
C	-0.218955	-0.350804	-0.208858
S	0.116045	0.368096	1.371642
C	0.808145	1.852396	0.696042
C	0.202645	0.553796	-1.194258
C	0.760545	1.750296	-0.702358
H	0.103045	0.340196	-2.268758
H	1.132745	2.548796	-1.361458
C	-0.218955	-1.829004	-0.208858
H	-0.405955	-1.829604	-1.272558
H	0.752645	-2.268304	-0.380158
H	-1.019555	-2.540004	-0.067558
H	1.180245	2.650596	1.347142
$end

$rem
JOBTYPE		SP
EXCHANGE	HF
CORRELATION	pRIMP2
BASIS		cc-pvtz
METHOD		rimp2
AUX_BASIS	rimp2-cc-pvtz
SOLVENT_METHOD	PCM
PURECART	11111
SYMMETRY	false
MEM_TOTAL	110000
SCF_CONVERGENCE = 6
THRESH=10
GUI = 2
$end

$solvent
dielectric 4.90
$end
--------------------------------------------------------------

             Standard Nuclear Orientation (Angstroms)
    I     Atom           X                Y                Z
 ----------------------------------------------------------------
    1      C      -0.2189550000    -0.3508040000    -0.2088580000
    2      S       0.1160450000     0.3680960000     1.3716420000
    3      C       0.8081450000     1.8523960000     0.6960420000
    4      C       0.2026450000     0.5537960000    -1.1942580000
    5      C       0.7605450000     1.7502960000    -0.7023580000
    6      H       0.1030450000     0.3401960000    -2.2687580000
    7      H       1.1327450000     2.5487960000    -1.3614580000
    8      C      -0.2189550000    -1.8290040000    -0.2088580000
    9      H      -0.4059550000    -1.8296040000    -1.2725580000
   10      H       0.7526450000    -2.2683040000    -0.3801580000
   11      H      -1.0195550000    -2.5400040000    -0.0675580000
   12      H       1.1802450000     2.6505960000     1.3471420000
 ----------------------------------------------------------------

   10    -590.3631943248      6.57e-07  Convergence criterion met
 Total energy in the final basis set =     -590.3631943248
        RIMP2         total energy =      -591.3677939099 a.u.

                    Orbital Energies (a.u.)
 --------------------------------------------------------------

 Alpha MOs
 -- Occupied --
-91.9739 -11.2807 -11.2720 -11.2441 -11.2429 -11.2221  -8.9742  -6.6551
 -6.6545  -6.6540  -1.1586  -1.0374  -0.9735  -0.9172  -0.7554  -0.7248
 -0.6720  -0.5968  -0.5715  -0.5595  -0.5389  -0.4987  -0.4667  -0.4343
 -0.3446  -0.3123

          Ground-State Mulliken Net Atomic Charges

     Atom                 Charge (a.u.)
  ----------------------------------------
      1 C                     0.012969
      2 S                    -0.005650
      3 C                    -0.218743
      4 C                    -0.216032
      5 C                    -0.199193
      6 H                     0.182390
      7 H                     0.187336
      8 C                    -0.357132
      9 H                     0.114802
     10 H                     0.135803
     11 H                     0.159263
     12 H                     0.204185
  ----------------------------------------
  Sum of atomic charges =     0.000000

                    Cartesian Multipole Moments
 -----------------------------------------------------------------
    Charge (ESU x 10^10)
                -0.0000
    Dipole Moment (Debye)
         X       0.5494      Y      -0.2462      Z      -1.7809
       Tot       1.8799
    Quadrupole Moments (Debye-Ang)
        XX     -45.8818     XY       3.9608     YY     -37.7583
        XZ       0.2721     YZ       1.9587     ZZ     -42.0312

 Total job time:  11.46s(wall), 602.11s(cpu)
        *  Thank you very much for using Q-Chem.  Have a nice day.  *
