 Q-Chem 5.4, Q-Chem, Inc., Pleasanton, CA (2021)
 Q-Chem 5.4.0 for Intel X86 EM64T Linux

User input:
--------------------------------------------------------------
$molecule
0 1
C	-0.213788	-0.350804	-0.216471
S	0.121212	0.368096	1.364029
C	0.813312	1.852396	0.688429
C	0.207812	0.553796	-1.201871
C	0.765712	1.750296	-0.709971
H	0.108212	0.340196	-2.276371
H	1.137912	2.548796	-1.369071
C	-0.213788	-1.829004	-0.216471
H	-1.149388	-1.829604	0.323029
H	-0.707088	-2.268304	-1.070971
H	0.192812	-2.540004	0.487529
H	1.185412	2.650596	1.339529
$end

$rem
JOBTYPE		SP
EXCHANGE	HF
CORRELATION	pRIMP2
BASIS		cc-pvtz
METHOD		rimp2
AUX_BASIS	rimp2-cc-pvtz
SOLVENT_METHOD	PCM
PURECART	11111
SYMMETRY	false
MEM_TOTAL	110000
SCF_CONVERGENCE = 6
THRESH=10
GUI = 2
$end

$solvent
dielectric 4.90
$end
--------------------------------------------------------------

             Standard Nuclear Orientation (Angstroms)
    I     Atom           X                Y                Z
 ----------------------------------------------------------------
    1      C      -0.2137880000    -0.3508040000    -0.2164710000
    2      S       0.1212120000     0.3680960000     1.3640290000
    3      C       0.8133120000     1.8523960000     0.6884290000
    4      C       0.2078120000     0.5537960000    -1.2018710000
    5      C       0.7657120000     1.7502960000    -0.7099710000
    6      H       0.1082120000     0.3401960000    -2.2763710000
    7      H       1.1379120000     2.5487960000    -1.3690710000
    8      C      -0.2137880000    -1.8290040000    -0.2164710000
    9      H      -1.1493880000    -1.8296040000     0.3230290000
   10      H      -0.7070880000    -2.2683040000    -1.0709710000
   11      H       0.1928120000    -2.5400040000     0.4875290000
   12      H       1.1854120000     2.6505960000     1.3395290000
 ----------------------------------------------------------------

   10    -590.3578725577      6.65e-07  Convergence criterion met
 Total energy in the final basis set =     -590.3578725577
        RIMP2         total energy =      -591.3620931476 a.u.

                    Orbital Energies (a.u.)
 --------------------------------------------------------------

 Alpha MOs
 -- Occupied --
-91.9778 -11.2813 -11.2703 -11.2432 -11.2376 -11.2225  -8.9779  -6.6587
 -6.6582  -6.6577  -1.1582  -1.0383  -0.9728  -0.9184  -0.7574  -0.7214
 -0.6703  -0.5964  -0.5646  -0.5595  -0.5463  -0.4869  -0.4681  -0.4542
 -0.3462  -0.3016

          Ground-State Mulliken Net Atomic Charges

     Atom                 Charge (a.u.)
  ----------------------------------------
      1 C                    -0.023194
      2 S                    -0.007852
      3 C                    -0.219470
      4 C                    -0.194949
      5 C                    -0.197255
      6 H                     0.184462
      7 H                     0.185305
      8 C                    -0.356761
      9 H                     0.128701
     10 H                     0.128328
     11 H                     0.167408
     12 H                     0.205278
  ----------------------------------------
  Sum of atomic charges =     0.000000

                    Cartesian Multipole Moments
 -----------------------------------------------------------------
    Charge (ESU x 10^10)
                -0.0000
    Dipole Moment (Debye)
         X       0.0201      Y      -0.3563      Z      -0.7724
       Tot       0.8509
    Quadrupole Moments (Debye-Ang)
        XX     -46.3252     XY       4.5902     YY     -37.7211
        XZ       0.6954     YZ      -0.0212     ZZ     -41.8257

 Total job time:  10.96s(wall), 572.59s(cpu)
        *  Thank you very much for using Q-Chem.  Have a nice day.  *
