 Q-Chem 5.4, Q-Chem, Inc., Pleasanton, CA (2021)
 Q-Chem 5.4.0 for Intel X86 EM64T Linux

User input:
--------------------------------------------------------------
$molecule
0 1
C	-0.005170	-0.399361	-0.212476
S	-0.005370	0.393839	1.368024
C	-0.005370	2.031539	0.692424
C	-0.005370	0.598639	-1.197876
C	-0.005470	1.918839	-0.705976
H	-0.005270	0.362939	-2.272376
H	-0.005470	2.799839	-1.365076
C	-0.005170	-1.877561	-0.212476
H	0.930430	-1.878161	-0.751976
H	0.488130	-2.316861	0.642024
H	-0.411770	-2.588561	-0.916476
H	-0.005470	2.912239	1.343524
$end

$rem
JOBTYPE		SP
EXCHANGE	HF
CORRELATION	pRIMP2
BASIS		cc-pvtz
METHOD		rimp2
AUX_BASIS	rimp2-cc-pvtz
SOLVENT_METHOD	PCM
PURECART	11111
SYMMETRY	false
MEM_TOTAL	110000
SCF_CONVERGENCE = 6
THRESH=10
GUI = 2
$end

$solvent
dielectric 4.90
$end
--------------------------------------------------------------

             Standard Nuclear Orientation (Angstroms)
    I     Atom           X                Y                Z
 ----------------------------------------------------------------
    1      C      -0.0051700000    -0.3993610000    -0.2124760000
    2      S      -0.0053700000     0.3938390000     1.3680240000
    3      C      -0.0053700000     2.0315390000     0.6924240000
    4      C      -0.0053700000     0.5986390000    -1.1978760000
    5      C      -0.0054700000     1.9188390000    -0.7059760000
    6      H      -0.0052700000     0.3629390000    -2.2723760000
    7      H      -0.0054700000     2.7998390000    -1.3650760000
    8      C      -0.0051700000    -1.8775610000    -0.2124760000
    9      H       0.9304300000    -1.8781610000    -0.7519760000
   10      H       0.4881300000    -2.3168610000     0.6420240000
   11      H      -0.4117700000    -2.5885610000    -0.9164760000
   12      H      -0.0054700000     2.9122390000     1.3435240000
 ----------------------------------------------------------------

   10    -590.3735728723      6.16e-07  Convergence criterion met
 Total energy in the final basis set =     -590.3735728723
        RIMP2         total energy =      -591.3743653106 a.u.

                    Orbital Energies (a.u.)
 --------------------------------------------------------------

 Alpha MOs
 -- Occupied --
-91.9787 -11.2904 -11.2628 -11.2430 -11.2325 -11.2269  -8.9785  -6.6593
 -6.6588  -6.6583  -1.1567  -1.0399  -0.9715  -0.9196  -0.7541  -0.7227
 -0.6716  -0.5972  -0.5659  -0.5552  -0.5445  -0.4991  -0.4711  -0.4532
 -0.3459  -0.3005

          Ground-State Mulliken Net Atomic Charges

     Atom                 Charge (a.u.)
  ----------------------------------------
      1 C                     0.036293
      2 S                     0.000941
      3 C                    -0.248517
      4 C                    -0.245635
      5 C                    -0.185732
      6 H                     0.180476
      7 H                     0.185506
      8 C                    -0.362253
      9 H                     0.136454
     10 H                     0.138107
     11 H                     0.161006
     12 H                     0.203353
  ----------------------------------------
  Sum of atomic charges =     0.000000

                    Cartesian Multipole Moments
 -----------------------------------------------------------------
    Charge (ESU x 10^10)
                 0.0000
    Dipole Moment (Debye)
         X       0.6448      Y      -0.7491      Z      -1.4146
       Tot       1.7257
    Quadrupole Moments (Debye-Ang)
        XX     -48.1135     XY      -1.2236     YY     -35.9933
        XZ       0.1702     YZ       1.7249     ZZ     -41.7048

 Total job time:  10.58s(wall), 568.87s(cpu)
        *  Thank you very much for using Q-Chem.  Have a nice day.  *
