 Q-Chem 5.4, Q-Chem, Inc., Pleasanton, CA (2021)
 Q-Chem 5.4.0 for Intel X86 EM64T Linux

User input:
--------------------------------------------------------------
$molecule
0 1
C	-0.391608	-0.214208	-0.215530
S	0.215892	0.295792	1.364970
C	1.470392	1.348492	0.689370
C	0.372792	0.427392	-1.200930
C	1.384092	1.276092	-0.709030
H	0.192292	0.275892	-2.275430
H	2.058892	1.842392	-1.368130
C	-0.391608	-1.692408	-0.215530
H	-1.406608	-1.693008	0.153370
H	-0.729008	-2.131708	-1.142630
H	-0.113408	-2.403408	0.548370
H	2.144992	1.914692	1.340470
$end

$rem
JOBTYPE		SP
EXCHANGE	HF
CORRELATION	pRIMP2
BASIS		cc-pvtz
METHOD		rimp2
AUX_BASIS	rimp2-cc-pvtz
SOLVENT_METHOD	PCM
PURECART	11111
SYMMETRY	false
MEM_TOTAL	110000
SCF_CONVERGENCE = 6
THRESH=10
GUI = 2
$end

$solvent
dielectric 4.90
$end
--------------------------------------------------------------

             Standard Nuclear Orientation (Angstroms)
    I     Atom           X                Y                Z
 ----------------------------------------------------------------
    1      C      -0.3916080000    -0.2142080000    -0.2155300000
    2      S       0.2158920000     0.2957920000     1.3649700000
    3      C       1.4703920000     1.3484920000     0.6893700000
    4      C       0.3727920000     0.4273920000    -1.2009300000
    5      C       1.3840920000     1.2760920000    -0.7090300000
    6      H       0.1922920000     0.2758920000    -2.2754300000
    7      H       2.0588920000     1.8423920000    -1.3681300000
    8      C      -0.3916080000    -1.6924080000    -0.2155300000
    9      H      -1.4066080000    -1.6930080000     0.1533700000
   10      H      -0.7290080000    -2.1317080000    -1.1426300000
   11      H      -0.1134080000    -2.4034080000     0.5483700000
   12      H       2.1449920000     1.9146920000     1.3404700000
 ----------------------------------------------------------------

   11    -590.3159106777      6.02e-07  Convergence criterion met
 Total energy in the final basis set =     -590.3159106777
        RIMP2         total energy =      -591.3281795315 a.u.

                    Orbital Energies (a.u.)
 --------------------------------------------------------------

 Alpha MOs
 -- Occupied --
-91.9764 -11.2843 -11.2597 -11.2491 -11.2441 -11.2135  -8.9768  -6.6577
 -6.6569  -6.6566  -1.1633  -1.0353  -0.9764  -0.9124  -0.7616  -0.7248
 -0.6696  -0.5927  -0.5609  -0.5585  -0.5525  -0.4873  -0.4561  -0.4438
 -0.3451  -0.2977

          Ground-State Mulliken Net Atomic Charges

     Atom                 Charge (a.u.)
  ----------------------------------------
      1 C                    -0.091171
      2 S                     0.002581
      3 C                    -0.177972
      4 C                    -0.122978
      5 C                    -0.218715
      6 H                     0.187047
      7 H                     0.184952
      8 C                    -0.378156
      9 H                     0.125970
     10 H                     0.121002
     11 H                     0.160176
     12 H                     0.207262
  ----------------------------------------
  Sum of atomic charges =     0.000000

                    Cartesian Multipole Moments
 -----------------------------------------------------------------
    Charge (ESU x 10^10)
                 0.0000
    Dipole Moment (Debye)
         X       1.1667      Y      -0.0042      Z      -0.9350
       Tot       1.4951
    Quadrupole Moments (Debye-Ang)
        XX     -42.7197     XY       5.7340     YY     -42.0657
        XZ       0.9449     YZ       0.0746     ZZ     -41.1344

 Total job time:  11.95s(wall), 636.33s(cpu)
        *  Thank you very much for using Q-Chem.  Have a nice day.  *
