 Q-Chem 5.4, Q-Chem, Inc., Pleasanton, CA (2021)
 Q-Chem 5.4.0 for Intel X86 EM64T Linux

User input:
--------------------------------------------------------------
$molecule
0 1
C	-0.216301	-0.350804	-0.219377
S	0.118699	0.368096	1.361123
C	0.810799	1.852396	0.685523
C	0.205299	0.553796	-1.204777
C	0.763199	1.750296	-0.712877
H	0.105699	0.340196	-2.279277
H	1.135399	2.548796	-1.371977
C	-0.216301	-1.829004	-0.219377
H	-0.586201	-1.829604	0.795323
H	-1.143401	-2.268304	-0.556877
H	0.547699	-2.540004	0.058523
H	1.182899	2.650596	1.336623
$end

$rem
JOBTYPE		SP
EXCHANGE	HF
CORRELATION	pRIMP2
BASIS		cc-pvtz
METHOD		rimp2
AUX_BASIS	rimp2-cc-pvtz
SOLVENT_METHOD	PCM
PURECART	11111
SYMMETRY	false
MEM_TOTAL	110000
SCF_CONVERGENCE = 6
THRESH=10
GUI = 2
$end

$solvent
dielectric 4.90
$end
--------------------------------------------------------------

             Standard Nuclear Orientation (Angstroms)
    I     Atom           X                Y                Z
 ----------------------------------------------------------------
    1      C      -0.2163010000    -0.3508040000    -0.2193770000
    2      S       0.1186990000     0.3680960000     1.3611230000
    3      C       0.8107990000     1.8523960000     0.6855230000
    4      C       0.2052990000     0.5537960000    -1.2047770000
    5      C       0.7631990000     1.7502960000    -0.7128770000
    6      H       0.1056990000     0.3401960000    -2.2792770000
    7      H       1.1353990000     2.5487960000    -1.3719770000
    8      C      -0.2163010000    -1.8290040000    -0.2193770000
    9      H      -0.5862010000    -1.8296040000     0.7953230000
   10      H      -1.1434010000    -2.2683040000    -0.5568770000
   11      H       0.5476990000    -2.5400040000     0.0585230000
   12      H       1.1828990000     2.6505960000     1.3366230000
 ----------------------------------------------------------------

   10    -590.3577800287      6.96e-07  Convergence criterion met
 Total energy in the final basis set =     -590.3577800287
        RIMP2         total energy =      -591.3627004610 a.u.

                    Orbital Energies (a.u.)
 --------------------------------------------------------------

 Alpha MOs
 -- Occupied --
-91.9799 -11.2760 -11.2740 -11.2435 -11.2400 -11.2210  -8.9799  -6.6607
 -6.6601  -6.6596  -1.1593  -1.0383  -0.9742  -0.9168  -0.7599  -0.7211
 -0.6714  -0.5953  -0.5688  -0.5621  -0.5409  -0.4883  -0.4629  -0.4489
 -0.3461  -0.3116

          Ground-State Mulliken Net Atomic Charges

     Atom                 Charge (a.u.)
  ----------------------------------------
      1 C                    -0.012679
      2 S                    -0.000846
      3 C                    -0.221182
      4 C                    -0.202994
      5 C                    -0.191637
      6 H                     0.184260
      7 H                     0.186553
      8 C                    -0.337994
      9 H                     0.109426
     10 H                     0.125503
     11 H                     0.155241
     12 H                     0.206348
  ----------------------------------------
  Sum of atomic charges =     0.000000

                    Cartesian Multipole Moments
 -----------------------------------------------------------------
    Charge (ESU x 10^10)
                -0.0000
    Dipole Moment (Debye)
         X       0.4863      Y      -0.0182      Z      -0.5163
       Tot       0.7095
    Quadrupole Moments (Debye-Ang)
        XX     -45.9217     XY       3.7818     YY     -37.8516
        XZ       0.4846     YZ      -0.3635     ZZ     -42.1868

 Total job time:  15.59s(wall), 560.86s(cpu)
        *  Thank you very much for using Q-Chem.  Have a nice day.  *
