 Q-Chem 5.4, Q-Chem, Inc., Pleasanton, CA (2021)
 Q-Chem 5.4.0 for Intel X86 EM64T Linux

User input:
--------------------------------------------------------------
$molecule
0 1
C	0.005594	-0.399361	-0.215530
S	0.005394	0.393839	1.364970
C	0.005394	2.031539	0.689370
C	0.005394	0.598639	-1.200930
C	0.005294	1.918839	-0.709030
H	0.005494	0.362939	-2.275430
H	0.005294	2.799839	-1.368130
C	0.005594	-1.877561	-0.215530
H	-1.009406	-1.878161	0.153370
H	-0.331806	-2.316861	-1.142630
H	0.283794	-2.588561	0.548370
H	0.005294	2.912239	1.340470
$end

$rem
JOBTYPE		SP
EXCHANGE	HF
CORRELATION	pRIMP2
BASIS		cc-pvtz
METHOD		rimp2
AUX_BASIS	rimp2-cc-pvtz
SOLVENT_METHOD	PCM
PURECART	11111
SYMMETRY	false
MEM_TOTAL	110000
SCF_CONVERGENCE = 6
THRESH=10
GUI = 2
$end

$solvent
dielectric 4.90
$end
--------------------------------------------------------------

             Standard Nuclear Orientation (Angstroms)
    I     Atom           X                Y                Z
 ----------------------------------------------------------------
    1      C       0.0055940000    -0.3993610000    -0.2155300000
    2      S       0.0053940000     0.3938390000     1.3649700000
    3      C       0.0053940000     2.0315390000     0.6893700000
    4      C       0.0053940000     0.5986390000    -1.2009300000
    5      C       0.0052940000     1.9188390000    -0.7090300000
    6      H       0.0054940000     0.3629390000    -2.2754300000
    7      H       0.0052940000     2.7998390000    -1.3681300000
    8      C       0.0055940000    -1.8775610000    -0.2155300000
    9      H      -1.0094060000    -1.8781610000     0.1533700000
   10      H      -0.3318060000    -2.3168610000    -1.1426300000
   11      H       0.2837940000    -2.5885610000     0.5483700000
   12      H       0.0052940000     2.9122390000     1.3404700000
 ----------------------------------------------------------------

   10    -590.3739342841      6.23e-07  Convergence criterion met
 Total energy in the final basis set =     -590.3739342841
        RIMP2         total energy =      -591.3738498319 a.u.

                    Orbital Energies (a.u.)
 --------------------------------------------------------------

 Alpha MOs
 -- Occupied --
-91.9771 -11.2914 -11.2636 -11.2428 -11.2330 -11.2281  -8.9772  -6.6581
 -6.6576  -6.6570  -1.1571  -1.0408  -0.9713  -0.9199  -0.7553  -0.7213
 -0.6708  -0.5990  -0.5668  -0.5578  -0.5439  -0.4927  -0.4764  -0.4545
 -0.3465  -0.2997

          Ground-State Mulliken Net Atomic Charges

     Atom                 Charge (a.u.)
  ----------------------------------------
      1 C                     0.019898
      2 S                    -0.011243
      3 C                    -0.243414
      4 C                    -0.233222
      5 C                    -0.189047
      6 H                     0.184078
      7 H                     0.185164
      8 C                    -0.359864
      9 H                     0.138789
     10 H                     0.134072
     11 H                     0.170497
     12 H                     0.204292
  ----------------------------------------
  Sum of atomic charges =     0.000000

                    Cartesian Multipole Moments
 -----------------------------------------------------------------
    Charge (ESU x 10^10)
                -0.0000
    Dipole Moment (Debye)
         X      -0.6858      Y      -0.7850      Z      -0.8460
       Tot       1.3425
    Quadrupole Moments (Debye-Ang)
        XX     -48.2294     XY       1.3042     YY     -35.8003
        XZ       0.3974     YZ       0.1173     ZZ     -41.9502

 Total job time:  11.29s(wall), 562.56s(cpu)
        *  Thank you very much for using Q-Chem.  Have a nice day.  *
