 Q-Chem 5.4, Q-Chem, Inc., Pleasanton, CA (2021)
 Q-Chem 5.4.0 for Intel X86 EM64T Linux

User input:
--------------------------------------------------------------
$molecule
0 1
C	-0.181504	-0.368118	-0.210801
S	0.089596	0.377282	1.369699
C	0.649696	1.916282	0.694099
C	0.159696	0.569782	-1.196201
C	0.611096	1.810382	-0.704301
H	0.079096	0.348282	-2.270701
H	0.912396	2.638182	-1.363401
C	-0.181504	-1.846318	-0.210801
H	0.513096	-1.846918	-1.037801
H	0.574296	-2.285618	0.423399
H	-0.804404	-2.557318	-0.733301
H	0.950796	2.743882	1.345199
$end

$rem
JOBTYPE		SP
EXCHANGE	HF
CORRELATION	pRIMP2
BASIS		cc-pvtz
METHOD		rimp2
AUX_BASIS	rimp2-cc-pvtz
SOLVENT_METHOD	PCM
PURECART	11111
SYMMETRY	false
MEM_TOTAL	110000
SCF_CONVERGENCE = 6
THRESH=10
GUI = 2
$end

$solvent
dielectric 4.90
$end
--------------------------------------------------------------

             Standard Nuclear Orientation (Angstroms)
    I     Atom           X                Y                Z
 ----------------------------------------------------------------
    1      C      -0.1815040000    -0.3681180000    -0.2108010000
    2      S       0.0895960000     0.3772820000     1.3696990000
    3      C       0.6496960000     1.9162820000     0.6940990000
    4      C       0.1596960000     0.5697820000    -1.1962010000
    5      C       0.6110960000     1.8103820000    -0.7043010000
    6      H       0.0790960000     0.3482820000    -2.2707010000
    7      H       0.9123960000     2.6381820000    -1.3634010000
    8      C      -0.1815040000    -1.8463180000    -0.2108010000
    9      H       0.5130960000    -1.8469180000    -1.0378010000
   10      H       0.5742960000    -2.2856180000     0.4233990000
   11      H      -0.8044040000    -2.5573180000    -0.7333010000
   12      H       0.9507960000     2.7438820000     1.3451990000
 ----------------------------------------------------------------

   10    -590.3661227101      6.07e-07  Convergence criterion met
 Total energy in the final basis set =     -590.3661227101
        RIMP2         total energy =      -591.3692083186 a.u.

                    Orbital Energies (a.u.)
 --------------------------------------------------------------

 Alpha MOs
 -- Occupied --
-91.9776 -11.2859 -11.2668 -11.2430 -11.2367 -11.2238  -8.9775  -6.6583
 -6.6578  -6.6573  -1.1582  -1.0385  -0.9728  -0.9171  -0.7550  -0.7238
 -0.6717  -0.5972  -0.5683  -0.5560  -0.5434  -0.4945  -0.4698  -0.4477
 -0.3448  -0.3050

          Ground-State Mulliken Net Atomic Charges

     Atom                 Charge (a.u.)
  ----------------------------------------
      1 C                     0.023489
      2 S                    -0.002837
      3 C                    -0.232200
      4 C                    -0.224041
      5 C                    -0.195201
      6 H                     0.180780
      7 H                     0.186535
      8 C                    -0.368359
      9 H                     0.135055
     10 H                     0.138624
     11 H                     0.154640
     12 H                     0.203514
  ----------------------------------------
  Sum of atomic charges =     0.000000

                    Cartesian Multipole Moments
 -----------------------------------------------------------------
    Charge (ESU x 10^10)
                -0.0000
    Dipole Moment (Debye)
         X       0.9009      Y      -0.5129      Z      -1.6024
       Tot       1.9085
    Quadrupole Moments (Debye-Ang)
        XX     -46.9974     XY       2.0574     YY     -37.3169
        XZ       0.5415     YZ       1.9447     ZZ     -41.7365

 Total job time:  10.17s(wall), 548.23s(cpu)
        *  Thank you very much for using Q-Chem.  Have a nice day.  *
