 Q-Chem 5.4, Q-Chem, Inc., Pleasanton, CA (2021)
 Q-Chem 5.4.0 for Intel X86 EM64T Linux

User input:
--------------------------------------------------------------
$molecule
0 1
C	-0.181609	-0.368118	-0.218020
S	0.089491	0.377282	1.362480
C	0.649591	1.916282	0.686880
C	0.159591	0.569782	-1.203420
C	0.610991	1.810382	-0.711520
H	0.078991	0.348282	-2.277920
H	0.912291	2.638182	-1.370620
C	-0.181609	-1.846318	-0.218020
H	0.753391	-1.846918	0.322480
H	-0.674909	-2.285618	0.636380
H	0.224791	-2.557318	-0.922120
H	0.950691	2.743882	1.337980
$end

$rem
JOBTYPE		SP
EXCHANGE	HF
CORRELATION	pRIMP2
BASIS		cc-pvtz
METHOD		rimp2
AUX_BASIS	rimp2-cc-pvtz
SOLVENT_METHOD	PCM
PURECART	11111
SYMMETRY	false
MEM_TOTAL	110000
SCF_CONVERGENCE = 6
THRESH=10
GUI = 2
$end

$solvent
dielectric 4.90
$end
--------------------------------------------------------------

             Standard Nuclear Orientation (Angstroms)
    I     Atom           X                Y                Z
 ----------------------------------------------------------------
    1      C      -0.1816090000    -0.3681180000    -0.2180200000
    2      S       0.0894910000     0.3772820000     1.3624800000
    3      C       0.6495910000     1.9162820000     0.6868800000
    4      C       0.1595910000     0.5697820000    -1.2034200000
    5      C       0.6109910000     1.8103820000    -0.7115200000
    6      H       0.0789910000     0.3482820000    -2.2779200000
    7      H       0.9122910000     2.6381820000    -1.3706200000
    8      C      -0.1816090000    -1.8463180000    -0.2180200000
    9      H       0.7533910000    -1.8469180000     0.3224800000
   10      H      -0.6749090000    -2.2856180000     0.6363800000
   11      H       0.2247910000    -2.5573180000    -0.9221200000
   12      H       0.9506910000     2.7438820000     1.3379800000
 ----------------------------------------------------------------

   10    -590.3667343290      6.45e-07  Convergence criterion met
 Total energy in the final basis set =     -590.3667343290
        RIMP2         total energy =      -591.3679050667 a.u.

                    Orbital Energies (a.u.)
 --------------------------------------------------------------

 Alpha MOs
 -- Occupied --
-91.9774 -11.2878 -11.2669 -11.2429 -11.2336 -11.2264  -8.9777  -6.6586
 -6.6581  -6.6575  -1.1591  -1.0407  -0.9722  -0.9174  -0.7568  -0.7215
 -0.6717  -0.5962  -0.5673  -0.5621  -0.5336  -0.5013  -0.4717  -0.4554
 -0.3471  -0.3001

          Ground-State Mulliken Net Atomic Charges

     Atom                 Charge (a.u.)
  ----------------------------------------
      1 C                     0.026385
      2 S                    -0.004995
      3 C                    -0.241265
      4 C                    -0.255418
      5 C                    -0.177418
      6 H                     0.182775
      7 H                     0.186570
      8 C                    -0.358742
      9 H                     0.138536
     10 H                     0.133115
     11 H                     0.165680
     12 H                     0.204775
  ----------------------------------------
  Sum of atomic charges =     0.000000

                    Cartesian Multipole Moments
 -----------------------------------------------------------------
    Charge (ESU x 10^10)
                -0.0000
    Dipole Moment (Debye)
         X       1.0350      Y      -0.6292      Z      -0.7386
       Tot       1.4187
    Quadrupole Moments (Debye-Ang)
        XX     -47.2869     XY       1.6106     YY     -37.0303
        XZ      -0.2755     YZ       0.3480     ZZ     -41.9925

 Total job time:  11.12s(wall), 570.09s(cpu)
        *  Thank you very much for using Q-Chem.  Have a nice day.  *
