 Q-Chem 5.4, Q-Chem, Inc., Pleasanton, CA (2021)
 Q-Chem 5.4.0 for Intel X86 EM64T Linux

User input:
--------------------------------------------------------------
$molecule
0 1
C	-0.253616	-0.329934	-0.213580
S	0.142784	0.357066	1.366920
C	0.961584	1.775366	0.691320
C	0.245184	0.534466	-1.198980
C	0.905284	1.677866	-0.707080
H	0.127384	0.330366	-2.273480
H	1.345684	2.440766	-1.366180
C	-0.253616	-1.808134	-0.213580
H	-1.333616	-1.808734	-0.214080
H	-0.253616	-2.247434	-1.200180
H	-0.253516	-2.519134	0.599420
H	1.401884	2.538166	1.342420
$end

$rem
JOBTYPE		SP
EXCHANGE	HF
CORRELATION	pRIMP2
BASIS		cc-pvtz
METHOD		rimp2
AUX_BASIS	rimp2-cc-pvtz
SOLVENT_METHOD	PCM
PURECART	11111
SYMMETRY	false
MEM_TOTAL	110000
SCF_CONVERGENCE = 6
THRESH=10
GUI = 2
$end

$solvent
dielectric 4.90
$end
--------------------------------------------------------------

             Standard Nuclear Orientation (Angstroms)
    I     Atom           X                Y                Z
 ----------------------------------------------------------------
    1      C      -0.2536160000    -0.3299340000    -0.2135800000
    2      S       0.1427840000     0.3570660000     1.3669200000
    3      C       0.9615840000     1.7753660000     0.6913200000
    4      C       0.2451840000     0.5344660000    -1.1989800000
    5      C       0.9052840000     1.6778660000    -0.7070800000
    6      H       0.1273840000     0.3303660000    -2.2734800000
    7      H       1.3456840000     2.4407660000    -1.3661800000
    8      C      -0.2536160000    -1.8081340000    -0.2135800000
    9      H      -1.3336160000    -1.8087340000    -0.2140800000
   10      H      -0.2536160000    -2.2474340000    -1.2001800000
   11      H      -0.2535160000    -2.5191340000     0.5994200000
   12      H       1.4018840000     2.5381660000     1.3424200000
 ----------------------------------------------------------------

   10    -590.3500685189      7.08e-07  Convergence criterion met
 Total energy in the final basis set =     -590.3500685189
        RIMP2         total energy =      -591.3559457691 a.u.

                    Orbital Energies (a.u.)
 --------------------------------------------------------------

 Alpha MOs
 -- Occupied --
-91.9761 -11.2819 -11.2685 -11.2431 -11.2375 -11.2218  -8.9763  -6.6572
 -6.6566  -6.6561  -1.1581  -1.0379  -0.9722  -0.9179  -0.7561  -0.7222
 -0.6695  -0.5957  -0.5619  -0.5538  -0.5529  -0.4952  -0.4633  -0.4519
 -0.3455  -0.2961

          Ground-State Mulliken Net Atomic Charges

     Atom                 Charge (a.u.)
  ----------------------------------------
      1 C                    -0.005420
      2 S                    -0.002123
      3 C                    -0.230260
      4 C                    -0.213164
      5 C                    -0.190886
      6 H                     0.183151
      7 H                     0.186177
      8 C                    -0.367295
      9 H                     0.131964
     10 H                     0.134081
     11 H                     0.169282
     12 H                     0.204494
  ----------------------------------------
  Sum of atomic charges =     0.000000

                    Cartesian Multipole Moments
 -----------------------------------------------------------------
    Charge (ESU x 10^10)
                 0.0000
    Dipole Moment (Debye)
         X      -0.0286      Y      -0.5470      Z      -1.1123
       Tot       1.2398
    Quadrupole Moments (Debye-Ang)
        XX     -45.8589     XY       5.3091     YY     -38.4631
        XZ       0.4491     YZ       0.4956     ZZ     -41.5333

 Total job time:  11.30s(wall), 556.99s(cpu)
        *  Thank you very much for using Q-Chem.  Have a nice day.  *
