 Q-Chem 5.4, Q-Chem, Inc., Pleasanton, CA (2021)
 Q-Chem 5.4.0 for Intel X86 EM64T Linux

User input:
--------------------------------------------------------------
$molecule
0 1
C	-0.215490	-0.350804	-0.218828
S	0.119510	0.368096	1.361672
C	0.811610	1.852396	0.686072
C	0.206110	0.553796	-1.204228
C	0.764010	1.750296	-0.712328
H	0.106510	0.340196	-2.278728
H	1.136210	2.548796	-1.371428
C	-0.215490	-1.829004	-0.218828
H	-0.755990	-1.829604	0.716172
H	-1.069890	-2.268304	-0.712128
H	0.488610	-2.540004	0.187572
H	1.183710	2.650596	1.337172
$end

$rem
JOBTYPE		SP
EXCHANGE	HF
CORRELATION	pRIMP2
BASIS		cc-pvtz
METHOD		rimp2
AUX_BASIS	rimp2-cc-pvtz
SOLVENT_METHOD	PCM
PURECART	11111
SYMMETRY	false
MEM_TOTAL	110000
SCF_CONVERGENCE = 6
THRESH=10
GUI = 2
$end

$solvent
dielectric 4.90
$end
--------------------------------------------------------------

             Standard Nuclear Orientation (Angstroms)
    I     Atom           X                Y                Z
 ----------------------------------------------------------------
    1      C      -0.2154900000    -0.3508040000    -0.2188280000
    2      S       0.1195100000     0.3680960000     1.3616720000
    3      C       0.8116100000     1.8523960000     0.6860720000
    4      C       0.2061100000     0.5537960000    -1.2042280000
    5      C       0.7640100000     1.7502960000    -0.7123280000
    6      H       0.1065100000     0.3401960000    -2.2787280000
    7      H       1.1362100000     2.5487960000    -1.3714280000
    8      C      -0.2154900000    -1.8290040000    -0.2188280000
    9      H      -0.7559900000    -1.8296040000     0.7161720000
   10      H      -1.0698900000    -2.2683040000    -0.7121280000
   11      H       0.4886100000    -2.5400040000     0.1875720000
   12      H       1.1837100000     2.6505960000     1.3371720000
 ----------------------------------------------------------------

   10    -590.3582943272      6.97e-07  Convergence criterion met
 Total energy in the final basis set =     -590.3582943272
        RIMP2         total energy =      -591.3630286968 a.u.

                    Orbital Energies (a.u.)
 --------------------------------------------------------------

 Alpha MOs
 -- Occupied --
-91.9795 -11.2768 -11.2736 -11.2435 -11.2397 -11.2212  -8.9795  -6.6603
 -6.6598  -6.6593  -1.1590  -1.0382  -0.9740  -0.9173  -0.7594  -0.7212
 -0.6712  -0.5956  -0.5679  -0.5618  -0.5421  -0.4868  -0.4640  -0.4508
 -0.3463  -0.3096

          Ground-State Mulliken Net Atomic Charges

     Atom                 Charge (a.u.)
  ----------------------------------------
      1 C                    -0.017483
      2 S                    -0.001093
      3 C                    -0.219497
      4 C                    -0.198979
      5 C                    -0.194101
      6 H                     0.184174
      7 H                     0.186490
      8 C                    -0.341744
      9 H                     0.112029
     10 H                     0.126887
     11 H                     0.157347
     12 H                     0.205970
  ----------------------------------------
  Sum of atomic charges =     0.000000

                    Cartesian Multipole Moments
 -----------------------------------------------------------------
    Charge (ESU x 10^10)
                -0.0000
    Dipole Moment (Debye)
         X       0.3729      Y      -0.0629      Z      -0.5629
       Tot       0.6781
    Quadrupole Moments (Debye-Ang)
        XX     -45.9891     XY       4.0194     YY     -37.8129
        XZ       0.6039     YZ      -0.3117     ZZ     -42.1181

 Total job time:  10.83s(wall), 569.83s(cpu)
        *  Thank you very much for using Q-Chem.  Have a nice day.  *
