 Q-Chem 5.4, Q-Chem, Inc., Pleasanton, CA (2021)
 Q-Chem 5.4.0 for Intel X86 EM64T Linux

User input:
--------------------------------------------------------------
$molecule
0 1
C	-0.139724	-0.381707	-0.214392
S	0.065376	0.384493	1.366108
C	0.489176	1.966393	0.690508
C	0.118376	0.582293	-1.199792
C	0.459976	1.857593	-0.707892
H	0.057476	0.354693	-2.274292
H	0.687976	2.708493	-1.366992
C	-0.139724	-1.859907	-0.214392
H	0.923976	-1.860507	-0.401392
H	0.031576	-2.299207	0.757208
H	-0.281024	-2.570907	-1.014992
H	0.717076	2.817093	1.341608
$end

$rem
JOBTYPE		SP
EXCHANGE	HF
CORRELATION	pRIMP2
BASIS		cc-pvtz
METHOD		rimp2
AUX_BASIS	rimp2-cc-pvtz
SOLVENT_METHOD	PCM
PURECART	11111
SYMMETRY	false
MEM_TOTAL	110000
SCF_CONVERGENCE = 6
THRESH=10
GUI = 2
$end

$solvent
dielectric 4.90
$end
--------------------------------------------------------------

             Standard Nuclear Orientation (Angstroms)
    I     Atom           X                Y                Z
 ----------------------------------------------------------------
    1      C      -0.1397240000    -0.3817070000    -0.2143920000
    2      S       0.0653760000     0.3844930000     1.3661080000
    3      C       0.4891760000     1.9663930000     0.6905080000
    4      C       0.1183760000     0.5822930000    -1.1997920000
    5      C       0.4599760000     1.8575930000    -0.7078920000
    6      H       0.0574760000     0.3546930000    -2.2742920000
    7      H       0.6879760000     2.7084930000    -1.3669920000
    8      C      -0.1397240000    -1.8599070000    -0.2143920000
    9      H       0.9239760000    -1.8605070000    -0.4013920000
   10      H       0.0315760000    -2.2992070000     0.7572080000
   11      H      -0.2810240000    -2.5709070000    -1.0149920000
   12      H       0.7170760000     2.8170930000     1.3416080000
 ----------------------------------------------------------------

   10    -590.3715062621      6.47e-07  Convergence criterion met
 Total energy in the final basis set =     -590.3715062621
        RIMP2         total energy =      -591.3720337728 a.u.

                    Orbital Energies (a.u.)
 --------------------------------------------------------------

 Alpha MOs
 -- Occupied --
-91.9796 -11.2916 -11.2623 -11.2431 -11.2300 -11.2287  -8.9794  -6.6602
 -6.6598  -6.6592  -1.1579  -1.0408  -0.9715  -0.9184  -0.7548  -0.7223
 -0.6714  -0.5973  -0.5660  -0.5553  -0.5434  -0.4952  -0.4774  -0.4567
 -0.3467  -0.2975

          Ground-State Mulliken Net Atomic Charges

     Atom                 Charge (a.u.)
  ----------------------------------------
      1 C                     0.025938
      2 S                     0.001468
      3 C                    -0.250087
      4 C                    -0.242787
      5 C                    -0.186006
      6 H                     0.178811
      7 H                     0.185904
      8 C                    -0.364422
      9 H                     0.147280
     10 H                     0.135275
     11 H                     0.164666
     12 H                     0.203960
  ----------------------------------------
  Sum of atomic charges =     0.000000

                    Cartesian Multipole Moments
 -----------------------------------------------------------------
    Charge (ESU x 10^10)
                 0.0000
    Dipole Moment (Debye)
         X       0.9946      Y      -0.8688      Z      -1.1682
       Tot       1.7631
    Quadrupole Moments (Debye-Ang)
        XX     -47.9065     XY       0.8417     YY     -36.5803
        XZ       0.0757     YZ       1.3191     ZZ     -41.6816

 Total job time:  10.00s(wall), 546.67s(cpu)
        *  Thank you very much for using Q-Chem.  Have a nice day.  *
