 Q-Chem 5.4, Q-Chem, Inc., Pleasanton, CA (2021)
 Q-Chem 5.4.0 for Intel X86 EM64T Linux

User input:
--------------------------------------------------------------
$molecule
0 1
C	-0.094770	-0.391505	-0.211595
S	0.042730	0.389695	1.368905
C	0.327130	2.002495	0.693305
C	0.078330	0.591395	-1.196995
C	0.307530	1.891595	-0.705095
H	0.037430	0.359295	-2.271495
H	0.460430	2.759095	-1.364195
C	-0.094770	-1.869705	-0.211595
H	0.732930	-1.870305	-0.905395
H	0.539430	-2.309005	0.544205
H	-0.617470	-2.580705	-0.834295
H	0.479930	2.869795	1.344405
$end

$rem
JOBTYPE		SP
EXCHANGE	HF
CORRELATION	pRIMP2
BASIS		cc-pvtz
METHOD		rimp2
AUX_BASIS	rimp2-cc-pvtz
SOLVENT_METHOD	PCM
PURECART	11111
SYMMETRY	false
MEM_TOTAL	110000
SCF_CONVERGENCE = 6
THRESH=10
GUI = 2
$end

$solvent
dielectric 4.90
$end
--------------------------------------------------------------

             Standard Nuclear Orientation (Angstroms)
    I     Atom           X                Y                Z
 ----------------------------------------------------------------
    1      C      -0.0947700000    -0.3915050000    -0.2115950000
    2      S       0.0427300000     0.3896950000     1.3689050000
    3      C       0.3271300000     2.0024950000     0.6933050000
    4      C       0.0783300000     0.5913950000    -1.1969950000
    5      C       0.3075300000     1.8915950000    -0.7050950000
    6      H       0.0374300000     0.3592950000    -2.2714950000
    7      H       0.4604300000     2.7590950000    -1.3641950000
    8      C      -0.0947700000    -1.8697050000    -0.2115950000
    9      H       0.7329300000    -1.8703050000    -0.9053950000
   10      H       0.5394300000    -2.3090050000     0.5442050000
   11      H      -0.6174700000    -2.5807050000    -0.8342950000
   12      H       0.4799300000     2.8697950000     1.3444050000
 ----------------------------------------------------------------

   10    -590.3720758308      6.00e-07  Convergence criterion met
 Total energy in the final basis set =     -590.3720758308
        RIMP2         total energy =      -591.3735171425 a.u.

                    Orbital Energies (a.u.)
 --------------------------------------------------------------

 Alpha MOs
 -- Occupied --
-91.9784 -11.2892 -11.2640 -11.2430 -11.2340 -11.2259  -8.9781  -6.6590
 -6.6585  -6.6579  -1.1571  -1.0393  -0.9720  -0.9187  -0.7543  -0.7231
 -0.6717  -0.5974  -0.5670  -0.5558  -0.5439  -0.4972  -0.4707  -0.4510
 -0.3455  -0.3026

          Ground-State Mulliken Net Atomic Charges

     Atom                 Charge (a.u.)
  ----------------------------------------
      1 C                     0.033389
      2 S                    -0.002247
      3 C                    -0.240883
      4 C                    -0.233710
      5 C                    -0.192098
      6 H                     0.180841
      7 H                     0.185799
      8 C                    -0.366605
      9 H                     0.136214
     10 H                     0.137757
     11 H                     0.158099
     12 H                     0.203443
  ----------------------------------------
  Sum of atomic charges =     0.000000

                    Cartesian Multipole Moments
 -----------------------------------------------------------------
    Charge (ESU x 10^10)
                 0.0000
    Dipole Moment (Debye)
         X       0.7578      Y      -0.6610      Z      -1.5156
       Tot       1.8188
    Quadrupole Moments (Debye-Ang)
        XX     -47.8170     XY       0.4840     YY     -36.3755
        XZ       0.3640     YZ       1.8704     ZZ     -41.7355

 Total job time:  21.11s(wall), 624.36s(cpu)
        *  Thank you very much for using Q-Chem.  Have a nice day.  *
