 Q-Chem 5.4, Q-Chem, Inc., Pleasanton, CA (2021)
 Q-Chem 5.4.0 for Intel X86 EM64T Linux

User input:
--------------------------------------------------------------
$molecule
0 1
C	-0.135952	-0.381707	-0.209169
S	0.069148	0.384493	1.371331
C	0.492948	1.966393	0.695731
C	0.122148	0.582293	-1.194569
C	0.463748	1.857593	-0.702669
H	0.061248	0.354693	-2.269069
H	0.691748	2.708493	-1.361769
C	-0.135952	-1.859907	-0.209169
H	0.052148	-1.860507	-1.272669
H	0.835648	-2.299207	-0.037769
H	-0.936652	-2.570907	-0.350169
H	0.720848	2.817093	1.346831
$end

$rem
JOBTYPE		SP
EXCHANGE	HF
CORRELATION	pRIMP2
BASIS		cc-pvtz
METHOD		rimp2
AUX_BASIS	rimp2-cc-pvtz
SOLVENT_METHOD	PCM
PURECART	11111
SYMMETRY	false
MEM_TOTAL	110000
SCF_CONVERGENCE = 6
THRESH=10
GUI = 2
$end

$solvent
dielectric 4.90
$end
--------------------------------------------------------------

             Standard Nuclear Orientation (Angstroms)
    I     Atom           X                Y                Z
 ----------------------------------------------------------------
    1      C      -0.1359520000    -0.3817070000    -0.2091690000
    2      S       0.0691480000     0.3844930000     1.3713310000
    3      C       0.4929480000     1.9663930000     0.6957310000
    4      C       0.1221480000     0.5822930000    -1.1945690000
    5      C       0.4637480000     1.8575930000    -0.7026690000
    6      H       0.0612480000     0.3546930000    -2.2690690000
    7      H       0.6917480000     2.7084930000    -1.3617690000
    8      C      -0.1359520000    -1.8599070000    -0.2091690000
    9      H       0.0521480000    -1.8605070000    -1.2726690000
   10      H       0.8356480000    -2.2992070000    -0.0377690000
   11      H      -0.9366520000    -2.5709070000    -0.3501690000
   12      H       0.7208480000     2.8170930000     1.3468310000
 ----------------------------------------------------------------

   10    -590.3703686334      5.92e-07  Convergence criterion met
 Total energy in the final basis set =     -590.3703686334
        RIMP2         total energy =      -591.3731448922 a.u.

                    Orbital Energies (a.u.)
 --------------------------------------------------------------

 Alpha MOs
 -- Occupied --
-91.9749 -11.2841 -11.2696 -11.2430 -11.2413 -11.2231  -8.9751  -6.6559
 -6.6553  -6.6549  -1.1576  -1.0378  -0.9731  -0.9183  -0.7548  -0.7245
 -0.6723  -0.5973  -0.5711  -0.5590  -0.5392  -0.4989  -0.4677  -0.4374
 -0.3447  -0.3124

          Ground-State Mulliken Net Atomic Charges

     Atom                 Charge (a.u.)
  ----------------------------------------
      1 C                     0.030434
      2 S                    -0.008071
      3 C                    -0.226232
      4 C                    -0.223526
      5 C                    -0.198471
      6 H                     0.182610
      7 H                     0.187223
      8 C                    -0.358567
      9 H                     0.119463
     10 H                     0.135532
     11 H                     0.155403
     12 H                     0.204204
  ----------------------------------------
  Sum of atomic charges =     0.000000

                    Cartesian Multipole Moments
 -----------------------------------------------------------------
    Charge (ESU x 10^10)
                -0.0000
    Dipole Moment (Debye)
         X       0.4983      Y      -0.3131      Z      -1.7713
       Tot       1.8665
    Quadrupole Moments (Debye-Ang)
        XX     -46.9416     XY       2.1905     YY     -36.6913
        XZ       0.3546     YZ       2.1097     ZZ     -42.0587

 Total job time:  9.91s(wall), 538.77s(cpu)
        *  Thank you very much for using Q-Chem.  Have a nice day.  *
