 Q-Chem 5.4, Q-Chem, Inc., Pleasanton, CA (2021)
 Q-Chem 5.4.0 for Intel X86 EM64T Linux

User input:
--------------------------------------------------------------
$molecule
0 1
C	-0.391875	-0.214208	-0.216471
S	0.215625	0.295792	1.364029
C	1.470125	1.348492	0.688429
C	0.372525	0.427392	-1.201871
C	1.383825	1.276092	-0.709971
H	0.192025	0.275892	-2.276371
H	2.058625	1.842392	-1.369071
C	-0.391875	-1.692408	-0.216471
H	-1.327475	-1.693008	0.323029
H	-0.885175	-2.131708	-1.070971
H	0.014725	-2.403408	0.487529
H	2.144725	1.914692	1.339529
$end

$rem
JOBTYPE		SP
EXCHANGE	HF
CORRELATION	pRIMP2
BASIS		cc-pvtz
METHOD		rimp2
AUX_BASIS	rimp2-cc-pvtz
SOLVENT_METHOD	PCM
PURECART	11111
SYMMETRY	false
MEM_TOTAL	110000
SCF_CONVERGENCE = 6
THRESH=10
GUI = 2
$end

$solvent
dielectric 4.90
$end
--------------------------------------------------------------

             Standard Nuclear Orientation (Angstroms)
    I     Atom           X                Y                Z
 ----------------------------------------------------------------
    1      C      -0.3918750000    -0.2142080000    -0.2164710000
    2      S       0.2156250000     0.2957920000     1.3640290000
    3      C       1.4701250000     1.3484920000     0.6884290000
    4      C       0.3725250000     0.4273920000    -1.2018710000
    5      C       1.3838250000     1.2760920000    -0.7099710000
    6      H       0.1920250000     0.2758920000    -2.2763710000
    7      H       2.0586250000     1.8423920000    -1.3690710000
    8      C      -0.3918750000    -1.6924080000    -0.2164710000
    9      H      -1.3274750000    -1.6930080000     0.3230290000
   10      H      -0.8851750000    -2.1317080000    -1.0709710000
   11      H       0.0147250000    -2.4034080000     0.4875290000
   12      H       2.1447250000     1.9146920000     1.3395290000
 ----------------------------------------------------------------

   11    -590.3178580154      5.90e-07  Convergence criterion met
 Total energy in the final basis set =     -590.3178580154
        RIMP2         total energy =      -591.3296186979 a.u.

                    Orbital Energies (a.u.)
 --------------------------------------------------------------

 Alpha MOs
 -- Occupied --
-91.9771 -11.2857 -11.2583 -11.2498 -11.2442 -11.2139  -8.9775  -6.6583
 -6.6576  -6.6573  -1.1638  -1.0354  -0.9769  -0.9122  -0.7624  -0.7248
 -0.6700  -0.5929  -0.5630  -0.5595  -0.5512  -0.4830  -0.4545  -0.4465
 -0.3454  -0.3010

          Ground-State Mulliken Net Atomic Charges

     Atom                 Charge (a.u.)
  ----------------------------------------
      1 C                    -0.097931
      2 S                     0.003839
      3 C                    -0.174020
      4 C                    -0.117116
      5 C                    -0.219820
      6 H                     0.186738
      7 H                     0.185152
      8 C                    -0.375589
      9 H                     0.123149
     10 H                     0.119177
     11 H                     0.159006
     12 H                     0.207415
  ----------------------------------------
  Sum of atomic charges =     0.000000

                    Cartesian Multipole Moments
 -----------------------------------------------------------------
    Charge (ESU x 10^10)
                 0.0000
    Dipole Moment (Debye)
         X       1.2840      Y       0.0877      Z      -0.8473
       Tot       1.5408
    Quadrupole Moments (Debye-Ang)
        XX     -42.6207     XY       5.6498     YY     -42.0578
        XZ       1.0092     YZ      -0.0331     ZZ     -41.2398

 Total job time:  11.38s(wall), 616.53s(cpu)
        *  Thank you very much for using Q-Chem.  Have a nice day.  *
