 Q-Chem 5.4, Q-Chem, Inc., Pleasanton, CA (2021)
 Q-Chem 5.4.0 for Intel X86 EM64T Linux

User input:
--------------------------------------------------------------
$molecule
0 1
C	-0.089865	-0.391505	-0.208858
S	0.047635	0.389695	1.371642
C	0.332035	2.002495	0.696042
C	0.083235	0.591395	-1.194258
C	0.312435	1.891595	-0.702358
H	0.042335	0.359295	-2.268758
H	0.465335	2.759095	-1.361458
C	-0.089865	-1.869705	-0.208858
H	-0.276865	-1.870305	-1.272558
H	0.881735	-2.309005	-0.380158
H	-0.890465	-2.580705	-0.067558
H	0.484835	2.869795	1.347142
$end

$rem
JOBTYPE		SP
EXCHANGE	HF
CORRELATION	pRIMP2
BASIS		cc-pvtz
METHOD		rimp2
AUX_BASIS	rimp2-cc-pvtz
SOLVENT_METHOD	PCM
PURECART	11111
SYMMETRY	false
MEM_TOTAL	110000
SCF_CONVERGENCE = 6
THRESH=10
GUI = 2
$end

$solvent
dielectric 4.90
$end
--------------------------------------------------------------

             Standard Nuclear Orientation (Angstroms)
    I     Atom           X                Y                Z
 ----------------------------------------------------------------
    1      C      -0.0898650000    -0.3915050000    -0.2088580000
    2      S       0.0476350000     0.3896950000     1.3716420000
    3      C       0.3320350000     2.0024950000     0.6960420000
    4      C       0.0832350000     0.5913950000    -1.1942580000
    5      C       0.3124350000     1.8915950000    -0.7023580000
    6      H       0.0423350000     0.3592950000    -2.2687580000
    7      H       0.4653350000     2.7590950000    -1.3614580000
    8      C      -0.0898650000    -1.8697050000    -0.2088580000
    9      H      -0.2768650000    -1.8703050000    -1.2725580000
   10      H       0.8817350000    -2.3090050000    -0.3801580000
   11      H      -0.8904650000    -2.5807050000    -0.0675580000
   12      H       0.4848350000     2.8697950000     1.3471420000
 ----------------------------------------------------------------

   10    -590.3722810166      5.85e-07  Convergence criterion met
 Total energy in the final basis set =     -590.3722810166
        RIMP2         total energy =      -591.3747250373 a.u.

                    Orbital Energies (a.u.)
 --------------------------------------------------------------

 Alpha MOs
 -- Occupied --
-91.9745 -11.2851 -11.2689 -11.2431 -11.2413 -11.2236  -8.9747  -6.6555
 -6.6550  -6.6545  -1.1572  -1.0380  -0.9728  -0.9191  -0.7544  -0.7243
 -0.6724  -0.5976  -0.5706  -0.5603  -0.5391  -0.5004  -0.4672  -0.4364
 -0.3449  -0.3122

          Ground-State Mulliken Net Atomic Charges

     Atom                 Charge (a.u.)
  ----------------------------------------
      1 C                     0.031714
      2 S                    -0.008064
      3 C                    -0.227800
      4 C                    -0.223072
      5 C                    -0.199947
      6 H                     0.183216
      7 H                     0.186805
      8 C                    -0.356851
      9 H                     0.117719
     10 H                     0.129915
     11 H                     0.162255
     12 H                     0.204110
  ----------------------------------------
  Sum of atomic charges =     0.000000

                    Cartesian Multipole Moments
 -----------------------------------------------------------------
    Charge (ESU x 10^10)
                -0.0000
    Dipole Moment (Debye)
         X       0.1336      Y      -0.3442      Z      -1.7839
       Tot       1.8217
    Quadrupole Moments (Debye-Ang)
        XX     -47.1914     XY       2.0122     YY     -36.2735
        XZ       0.0397     YZ       2.0514     ZZ     -42.1177

 Total job time:  12.06s(wall), 619.76s(cpu)
        *  Thank you very much for using Q-Chem.  Have a nice day.  *
