 Q-Chem 5.4, Q-Chem, Inc., Pleasanton, CA (2021)
 Q-Chem 5.4.0 for Intel X86 EM64T Linux

User input:
--------------------------------------------------------------
$molecule
0 1
C	-0.134191	-0.381707	-0.220089
S	0.070909	0.384493	1.360411
C	0.494709	1.966393	0.684811
C	0.123909	0.582293	-1.205489
C	0.465509	1.857593	-0.713589
H	0.063009	0.354693	-2.279989
H	0.693509	2.708493	-1.372689
C	-0.134191	-1.859907	-0.220089
H	0.052809	-1.860507	0.843611
H	-1.105791	-2.299207	-0.048789
H	0.666409	-2.570907	-0.361389
H	0.722609	2.817093	1.335911
$end

$rem
JOBTYPE		SP
EXCHANGE	HF
CORRELATION	pRIMP2
BASIS		cc-pvtz
METHOD		rimp2
AUX_BASIS	rimp2-cc-pvtz
SOLVENT_METHOD	PCM
PURECART	11111
SYMMETRY	false
MEM_TOTAL	110000
SCF_CONVERGENCE = 6
THRESH=10
GUI = 2
$end

$solvent
dielectric 4.90
$end
--------------------------------------------------------------

             Standard Nuclear Orientation (Angstroms)
    I     Atom           X                Y                Z
 ----------------------------------------------------------------
    1      C      -0.1341910000    -0.3817070000    -0.2200890000
    2      S       0.0709090000     0.3844930000     1.3604110000
    3      C       0.4947090000     1.9663930000     0.6848110000
    4      C       0.1239090000     0.5822930000    -1.2054890000
    5      C       0.4655090000     1.8575930000    -0.7135890000
    6      H       0.0630090000     0.3546930000    -2.2799890000
    7      H       0.6935090000     2.7084930000    -1.3726890000
    8      C      -0.1341910000    -1.8599070000    -0.2200890000
    9      H       0.0528090000    -1.8605070000     0.8436110000
   10      H      -1.1057910000    -2.2992070000    -0.0487890000
   11      H       0.6664090000    -2.5709070000    -0.3613890000
   12      H       0.7226090000     2.8170930000     1.3359110000
 ----------------------------------------------------------------

   10    -590.3649377871      6.05e-07  Convergence criterion met
 Total energy in the final basis set =     -590.3649377871
        RIMP2         total energy =      -591.3679058227 a.u.

                    Orbital Energies (a.u.)
 --------------------------------------------------------------

 Alpha MOs
 -- Occupied --
-91.9801 -11.2808 -11.2708 -11.2430 -11.2375 -11.2222  -8.9801  -6.6609
 -6.6604  -6.6598  -1.1586  -1.0395  -0.9735  -0.9174  -0.7593  -0.7205
 -0.6718  -0.5958  -0.5694  -0.5629  -0.5356  -0.4984  -0.4625  -0.4489
 -0.3460  -0.3116

          Ground-State Mulliken Net Atomic Charges

     Atom                 Charge (a.u.)
  ----------------------------------------
      1 C                     0.016452
      2 S                    -0.005240
      3 C                    -0.231220
      4 C                    -0.216612
      5 C                    -0.188519
      6 H                     0.184948
      7 H                     0.185982
      8 C                    -0.346021
      9 H                     0.113756
     10 H                     0.126115
     11 H                     0.153869
     12 H                     0.206490
  ----------------------------------------
  Sum of atomic charges =     0.000000

                    Cartesian Multipole Moments
 -----------------------------------------------------------------
    Charge (ESU x 10^10)
                -0.0000
    Dipole Moment (Debye)
         X       0.4828      Y      -0.1496      Z      -0.4413
       Tot       0.6710
    Quadrupole Moments (Debye-Ang)
        XX     -46.9251     XY       1.8206     YY     -36.7758
        XZ      -0.0401     YZ      -0.3648     ZZ     -42.3425

 Total job time:  10.05s(wall), 541.36s(cpu)
        *  Thank you very much for using Q-Chem.  Have a nice day.  *
