 Q-Chem 5.4, Q-Chem, Inc., Pleasanton, CA (2021)
 Q-Chem 5.4.0 for Intel X86 EM64T Linux

User input:
--------------------------------------------------------------
$molecule
0 1
C	-0.332316	-0.278098	-0.220018
S	0.177384	0.329602	1.360482
C	1.230084	1.584202	0.684882
C	0.309084	0.486502	-1.205418
C	1.157584	1.497902	-0.713518
H	0.157584	0.306002	-2.279918
H	1.723784	2.172802	-1.372618
C	-0.332316	-1.756298	-0.220018
H	-0.332816	-1.756898	0.859982
H	-1.318916	-2.195598	-0.220018
H	0.480684	-2.467298	-0.220118
H	1.796084	2.258902	1.335982
$end

$rem
JOBTYPE		SP
EXCHANGE	HF
CORRELATION	pRIMP2
BASIS		cc-pvtz
METHOD		rimp2
AUX_BASIS	rimp2-cc-pvtz
SOLVENT_METHOD	PCM
PURECART	11111
SYMMETRY	false
MEM_TOTAL	110000
SCF_CONVERGENCE = 6
THRESH=10
GUI = 2
$end

$solvent
dielectric 4.90
$end
--------------------------------------------------------------

             Standard Nuclear Orientation (Angstroms)
    I     Atom           X                Y                Z
 ----------------------------------------------------------------
    1      C      -0.3323160000    -0.2780980000    -0.2200180000
    2      S       0.1773840000     0.3296020000     1.3604820000
    3      C       1.2300840000     1.5842020000     0.6848820000
    4      C       0.3090840000     0.4865020000    -1.2054180000
    5      C       1.1575840000     1.4979020000    -0.7135180000
    6      H       0.1575840000     0.3060020000    -2.2799180000
    7      H       1.7237840000     2.1728020000    -1.3726180000
    8      C      -0.3323160000    -1.7562980000    -0.2200180000
    9      H      -0.3328160000    -1.7568980000     0.8599820000
   10      H      -1.3189160000    -2.1955980000    -0.2200180000
   11      H       0.4806840000    -2.4672980000    -0.2201180000
   12      H       1.7960840000     2.2589020000     1.3359820000
 ----------------------------------------------------------------

   11    -590.3349108013      3.24e-07  Convergence criterion met
 Total energy in the final basis set =     -590.3349108013
        RIMP2         total energy =      -591.3438603138 a.u.

                    Orbital Energies (a.u.)
 --------------------------------------------------------------

 Alpha MOs
 -- Occupied --
-91.9778 -11.2808 -11.2659 -11.2465 -11.2431 -11.2162  -8.9783  -6.6591
 -6.6584  -6.6580  -1.1627  -1.0377  -0.9764  -0.9121  -0.7631  -0.7225
 -0.6715  -0.5921  -0.5715  -0.5624  -0.5409  -0.4825  -0.4619  -0.4440
 -0.3428  -0.3131

          Ground-State Mulliken Net Atomic Charges

     Atom                 Charge (a.u.)
  ----------------------------------------
      1 C                    -0.047873
      2 S                     0.000864
      3 C                    -0.200856
      4 C                    -0.170489
      5 C                    -0.200907
      6 H                     0.184534
      7 H                     0.186441
      8 C                    -0.344972
      9 H                     0.113409
     10 H                     0.115935
     11 H                     0.156657
     12 H                     0.207256
  ----------------------------------------
  Sum of atomic charges =     0.000000

                    Cartesian Multipole Moments
 -----------------------------------------------------------------
    Charge (ESU x 10^10)
                 0.0000
    Dipole Moment (Debye)
         X       1.3344      Y       0.1365      Z      -0.4935
       Tot       1.4292
    Quadrupole Moments (Debye-Ang)
        XX     -43.9448     XY       4.3284     YY     -40.3679
        XZ       0.3171     YZ      -0.4637     ZZ     -41.9556

 Total job time:  11.63s(wall), 607.74s(cpu)
        *  Thank you very much for using Q-Chem.  Have a nice day.  *
