 Q-Chem 5.4, Q-Chem, Inc., Pleasanton, CA (2021)
 Q-Chem 5.4.0 for Intel X86 EM64T Linux

User input:
--------------------------------------------------------------
$molecule
0 1
C	-0.262833	-0.329934	-0.218722
S	0.133567	0.357066	1.361778
C	0.952367	1.775366	0.686178
C	0.235967	0.534466	-1.204122
C	0.896067	1.677866	-0.712222
H	0.118167	0.330366	-2.278622
H	1.336467	2.440766	-1.371322
C	-0.262833	-1.808134	-0.218722
H	0.564167	-1.808734	0.475878
H	-0.897033	-2.247434	0.537078
H	0.259667	-2.519134	-0.841622
H	1.392667	2.538166	1.337278
$end

$rem
JOBTYPE		SP
EXCHANGE	HF
CORRELATION	pRIMP2
BASIS		cc-pvtz
METHOD		rimp2
AUX_BASIS	rimp2-cc-pvtz
SOLVENT_METHOD	PCM
PURECART	11111
SYMMETRY	false
MEM_TOTAL	110000
SCF_CONVERGENCE = 6
THRESH=10
GUI = 2
$end

$solvent
dielectric 4.90
$end
--------------------------------------------------------------

             Standard Nuclear Orientation (Angstroms)
    I     Atom           X                Y                Z
 ----------------------------------------------------------------
    1      C      -0.2628330000    -0.3299340000    -0.2187220000
    2      S       0.1335670000     0.3570660000     1.3617780000
    3      C       0.9523670000     1.7753660000     0.6861780000
    4      C       0.2359670000     0.5344660000    -1.2041220000
    5      C       0.8960670000     1.6778660000    -0.7122220000
    6      H       0.1181670000     0.3303660000    -2.2786220000
    7      H       1.3364670000     2.4407660000    -1.3713220000
    8      C      -0.2628330000    -1.8081340000    -0.2187220000
    9      H       0.5641670000    -1.8087340000     0.4758780000
   10      H      -0.8970330000    -2.2474340000     0.5370780000
   11      H       0.2596670000    -2.5191340000    -0.8416220000
   12      H       1.3926670000     2.5381660000     1.3372780000
 ----------------------------------------------------------------

   10    -590.3543031847      6.43e-07  Convergence criterion met
 Total energy in the final basis set =     -590.3543031847
        RIMP2         total energy =      -591.3582184137 a.u.

                    Orbital Energies (a.u.)
 --------------------------------------------------------------

 Alpha MOs
 -- Occupied --
-91.9759 -11.2820 -11.2716 -11.2431 -11.2380 -11.2227  -8.9765  -6.6574
 -6.6568  -6.6562  -1.1610  -1.0398  -0.9735  -0.9149  -0.7587  -0.7219
 -0.6717  -0.5945  -0.5689  -0.5635  -0.5319  -0.5009  -0.4664  -0.4533
 -0.3465  -0.3014

          Ground-State Mulliken Net Atomic Charges

     Atom                 Charge (a.u.)
  ----------------------------------------
      1 C                     0.011493
      2 S                    -0.006324
      3 C                    -0.226025
      4 C                    -0.237301
      5 C                    -0.184715
      6 H                     0.183247
      7 H                     0.187071
      8 C                    -0.362347
      9 H                     0.136402
     10 H                     0.128915
     11 H                     0.164632
     12 H                     0.204951
  ----------------------------------------
  Sum of atomic charges =     0.000000

                    Cartesian Multipole Moments
 -----------------------------------------------------------------
    Charge (ESU x 10^10)
                 0.0000
    Dipole Moment (Debye)
         X       1.2772      Y      -0.4096      Z      -0.6850
       Tot       1.5061
    Quadrupole Moments (Debye-Ang)
        XX     -46.0578     XY       2.7942     YY     -38.4887
        XZ      -0.1847     YZ       0.0952     ZZ     -41.9755

 Total job time:  11.30s(wall), 579.68s(cpu)
        *  Thank you very much for using Q-Chem.  Have a nice day.  *
