 Q-Chem 5.4, Q-Chem, Inc., Pleasanton, CA (2021)
 Q-Chem 5.4.0 for Intel X86 EM64T Linux

User input:
--------------------------------------------------------------
$molecule
0 1
C	-0.026065	-0.402130	-0.215368
S	-0.026265	0.391070	1.365132
C	-0.026265	2.028770	0.689532
C	-0.026265	0.595870	-1.200768
C	-0.026365	1.916070	-0.708868
H	-0.026165	0.360170	-2.275268
H	-0.026365	2.797070	-1.367968
C	0.230635	-1.857930	-0.215368
H	1.294335	-1.670930	-0.214868
H	0.306835	-2.290530	0.771232
H	0.353935	-2.558030	-1.028368
H	-0.026365	2.909470	1.340632
$end

$rem
JOBTYPE		SP
EXCHANGE	HF
CORRELATION	pRIMP2
BASIS		cc-pvtz
METHOD		rimp2
AUX_BASIS	rimp2-cc-pvtz
SOLVENT_METHOD	PCM
PURECART	11111
SYMMETRY	false
MEM_TOTAL	110000
SCF_CONVERGENCE = 6
THRESH=10
GUI = 2
$end

$solvent
dielectric 4.90
$end
--------------------------------------------------------------

             Standard Nuclear Orientation (Angstroms)
    I     Atom           X                Y                Z
 ----------------------------------------------------------------
    1      C      -0.0260650000    -0.4021300000    -0.2153680000
    2      S      -0.0262650000     0.3910700000     1.3651320000
    3      C      -0.0262650000     2.0287700000     0.6895320000
    4      C      -0.0262650000     0.5958700000    -1.2007680000
    5      C      -0.0263650000     1.9160700000    -0.7088680000
    6      H      -0.0261650000     0.3601700000    -2.2752680000
    7      H      -0.0263650000     2.7970700000    -1.3679680000
    8      C       0.2306350000    -1.8579300000    -0.2153680000
    9      H       1.2943350000    -1.6709300000    -0.2148680000
   10      H       0.3068350000    -2.2905300000     0.7712320000
   11      H       0.3539350000    -2.5580300000    -1.0283680000
   12      H      -0.0263650000     2.9094700000     1.3406320000
 ----------------------------------------------------------------

   10    -590.3738111369      6.56e-07  Convergence criterion met
 Total energy in the final basis set =     -590.3738111369
        RIMP2         total energy =      -591.3735148135 a.u.

                    Orbital Energies (a.u.)
 --------------------------------------------------------------

 Alpha MOs
 -- Occupied --
-91.9794 -11.2924 -11.2620 -11.2429 -11.2296 -11.2293  -8.9792  -6.6601
 -6.6597  -6.6590  -1.1576  -1.0412  -0.9712  -0.9191  -0.7548  -0.7220
 -0.6714  -0.5974  -0.5659  -0.5567  -0.5416  -0.4967  -0.4783  -0.4568
 -0.3469  -0.2974

          Ground-State Mulliken Net Atomic Charges

     Atom                 Charge (a.u.)
  ----------------------------------------
      1 C                     0.025997
      2 S                    -0.000442
      3 C                    -0.252174
      4 C                    -0.246313
      5 C                    -0.183797
      6 H                     0.179913
      7 H                     0.185566
      8 C                    -0.362767
      9 H                     0.145914
     10 H                     0.136168
     11 H                     0.167653
     12 H                     0.204282
  ----------------------------------------
  Sum of atomic charges =     0.000000

                    Cartesian Multipole Moments
 -----------------------------------------------------------------
    Charge (ESU x 10^10)
                 0.0000
    Dipole Moment (Debye)
         X       1.0607      Y      -0.7212      Z      -1.0453
       Tot       1.6546
    Quadrupole Moments (Debye-Ang)
        XX     -47.8443     XY      -1.9922     YY     -36.4758
        XZ      -0.2906     YZ       1.0543     ZZ     -41.7544

 Total job time:  14.08s(wall), 649.81s(cpu)
        *  Thank you very much for using Q-Chem.  Have a nice day.  *
