 Q-Chem 5.4, Q-Chem, Inc., Pleasanton, CA (2021)
 Q-Chem 5.4.0 for Intel X86 EM64T Linux

User input:
--------------------------------------------------------------
$molecule
0 1
C	-0.445419	-0.140188	-0.218828
S	0.241381	0.256612	1.361672
C	1.659681	1.075412	0.686072
C	0.418781	0.358912	-1.204228
C	1.562081	1.019112	-0.712328
H	0.214681	0.241112	-2.278728
H	2.324981	1.459712	-1.371428
C	-0.445419	-1.618388	-0.218828
H	-0.985919	-1.618988	0.716172
H	-1.299819	-2.057688	-0.712128
H	0.258681	-2.329388	0.187572
H	2.422281	1.515912	1.337172
$end

$rem
JOBTYPE		SP
EXCHANGE	HF
CORRELATION	pRIMP2
BASIS		cc-pvtz
METHOD		rimp2
AUX_BASIS	rimp2-cc-pvtz
SOLVENT_METHOD	PCM
PURECART	11111
SYMMETRY	false
MEM_TOTAL	110000
SCF_CONVERGENCE = 6
THRESH=10
GUI = 2
$end

$solvent
dielectric 4.90
$end
--------------------------------------------------------------

             Standard Nuclear Orientation (Angstroms)
    I     Atom           X                Y                Z
 ----------------------------------------------------------------
    1      C      -0.4454190000    -0.1401880000    -0.2188280000
    2      S       0.2413810000     0.2566120000     1.3616720000
    3      C       1.6596810000     1.0754120000     0.6860720000
    4      C       0.4187810000     0.3589120000    -1.2042280000
    5      C       1.5620810000     1.0191120000    -0.7123280000
    6      H       0.2146810000     0.2411120000    -2.2787280000
    7      H       2.3249810000     1.4597120000    -1.3714280000
    8      C      -0.4454190000    -1.6183880000    -0.2188280000
    9      H      -0.9859190000    -1.6189880000     0.7161720000
   10      H      -1.2998190000    -2.0576880000    -0.7121280000
   11      H       0.2586810000    -2.3293880000     0.1875720000
   12      H       2.4222810000     1.5159120000     1.3371720000
 ----------------------------------------------------------------

   11    -590.2997448153      5.96e-07  Convergence criterion met
 Total energy in the final basis set =     -590.2997448153
        RIMP2         total energy =      -591.3125736551 a.u.

                    Orbital Energies (a.u.)
 --------------------------------------------------------------

 Alpha MOs
 -- Occupied --
-91.9772 -11.2965 -11.2595 -11.2445 -11.2438 -11.2129  -8.9779  -6.6587
 -6.6578  -6.6576  -1.1696  -1.0368  -0.9810  -0.9069  -0.7678  -0.7277
 -0.6718  -0.5925  -0.5719  -0.5603  -0.5491  -0.4716  -0.4465  -0.4453
 -0.3425  -0.3124

          Ground-State Mulliken Net Atomic Charges

     Atom                 Charge (a.u.)
  ----------------------------------------
      1 C                    -0.143603
      2 S                     0.011273
      3 C                    -0.146169
      4 C                    -0.064678
      5 C                    -0.243560
      6 H                     0.189051
      7 H                     0.185203
      8 C                    -0.358552
      9 H                     0.107573
     10 H                     0.111234
     11 H                     0.142341
     12 H                     0.209888
  ----------------------------------------
  Sum of atomic charges =     0.000000

                    Cartesian Multipole Moments
 -----------------------------------------------------------------
    Charge (ESU x 10^10)
                 0.0000
    Dipole Moment (Debye)
         X       2.2787      Y       0.2319      Z      -0.6760
       Tot       2.3881
    Quadrupole Moments (Debye-Ang)
        XX     -40.9467     XY       4.8602     YY     -43.8320
        XZ       0.9937     YZ      -0.3854     ZZ     -41.2183

 Total job time:  12.59s(wall), 655.84s(cpu)
        *  Thank you very much for using Q-Chem.  Have a nice day.  *
