 Q-Chem 5.4, Q-Chem, Inc., Pleasanton, CA (2021)
 Q-Chem 5.4.0 for Intel X86 EM64T Linux

User input:
--------------------------------------------------------------
$molecule
0 1
C	-0.443351	-0.140188	-0.214556
S	0.243449	0.256612	1.365944
C	1.661749	1.075412	0.690344
C	0.420849	0.358912	-1.199956
C	1.564149	1.019112	-0.708056
H	0.216749	0.241112	-2.274456
H	2.327049	1.459712	-1.367156
C	-0.443351	-1.618388	-0.214556
H	-1.507051	-1.618988	-0.027556
H	-0.614651	-2.057688	-1.186156
H	-0.302051	-2.329388	0.586044
H	2.424349	1.515912	1.341444
$end

$rem
JOBTYPE		SP
EXCHANGE	HF
CORRELATION	pRIMP2
BASIS		cc-pvtz
METHOD		rimp2
AUX_BASIS	rimp2-cc-pvtz
SOLVENT_METHOD	PCM
PURECART	11111
SYMMETRY	false
MEM_TOTAL	110000
SCF_CONVERGENCE = 6
THRESH=10
GUI = 2
$end

$solvent
dielectric 4.90
$end
--------------------------------------------------------------

             Standard Nuclear Orientation (Angstroms)
    I     Atom           X                Y                Z
 ----------------------------------------------------------------
    1      C      -0.4433510000    -0.1401880000    -0.2145560000
    2      S       0.2434490000     0.2566120000     1.3659440000
    3      C       1.6617490000     1.0754120000     0.6903440000
    4      C       0.4208490000     0.3589120000    -1.1999560000
    5      C       1.5641490000     1.0191120000    -0.7080560000
    6      H       0.2167490000     0.2411120000    -2.2744560000
    7      H       2.3270490000     1.4597120000    -1.3671560000
    8      C      -0.4433510000    -1.6183880000    -0.2145560000
    9      H      -1.5070510000    -1.6189880000    -0.0275560000
   10      H      -0.6146510000    -2.0576880000    -1.1861560000
   11      H      -0.3020510000    -2.3293880000     0.5860440000
   12      H       2.4243490000     1.5159120000     1.3414440000
 ----------------------------------------------------------------

   11    -590.2908634844      7.92e-07  Convergence criterion met
 Total energy in the final basis set =     -590.2908634844
        RIMP2         total energy =      -591.3061705330 a.u.

                    Orbital Energies (a.u.)
 --------------------------------------------------------------

 Alpha MOs
 -- Occupied --
-91.9754 -11.2925 -11.2572 -11.2463 -11.2447 -11.2095  -8.9761  -6.6568
 -6.6560  -6.6558  -1.1673  -1.0350  -0.9789  -0.9087  -0.7643  -0.7279
 -0.6698  -0.5922  -0.5638  -0.5551  -0.5525  -0.4913  -0.4571  -0.4298
 -0.3439  -0.2944

          Ground-State Mulliken Net Atomic Charges

     Atom                 Charge (a.u.)
  ----------------------------------------
      1 C                    -0.132095
      2 S                     0.008406
      3 C                    -0.152684
      4 C                    -0.075713
      5 C                    -0.240370
      6 H                     0.190024
      7 H                     0.184620
      8 C                    -0.388337
      9 H                     0.125575
     10 H                     0.118501
     11 H                     0.153375
     12 H                     0.208699
  ----------------------------------------
  Sum of atomic charges =     0.000000

                    Cartesian Multipole Moments
 -----------------------------------------------------------------
    Charge (ESU x 10^10)
                 0.0000
    Dipole Moment (Debye)
         X       1.8187      Y      -0.0077      Z      -1.0531
       Tot       2.1016
    Quadrupole Moments (Debye-Ang)
        XX     -41.3077     XY       5.3870     YY     -43.8972
        XZ       0.9818     YZ       0.0797     ZZ     -40.6511

 Total job time:  16.97s(wall), 608.95s(cpu)
        *  Thank you very much for using Q-Chem.  Have a nice day.  *
