 Q-Chem 5.4, Q-Chem, Inc., Pleasanton, CA (2021)
 Q-Chem 5.4.0 for Intel X86 EM64T Linux

User input:
--------------------------------------------------------------
$molecule
0 1
C	-0.264409	-0.329934	-0.212476
S	0.131991	0.357066	1.368024
C	0.950791	1.775366	0.692424
C	0.234391	0.534466	-1.197876
C	0.894491	1.677866	-0.705976
H	0.116591	0.330366	-2.272376
H	1.334891	2.440766	-1.365076
C	-0.264409	-1.808134	-0.212476
H	0.671191	-1.808734	-0.751976
H	0.228891	-2.247434	0.642024
H	-0.671009	-2.519134	-0.916476
H	1.391091	2.538166	1.343524
$end

$rem
JOBTYPE		SP
EXCHANGE	HF
CORRELATION	pRIMP2
BASIS		cc-pvtz
METHOD		rimp2
AUX_BASIS	rimp2-cc-pvtz
SOLVENT_METHOD	PCM
PURECART	11111
SYMMETRY	false
MEM_TOTAL	110000
SCF_CONVERGENCE = 6
THRESH=10
GUI = 2
$end

$solvent
dielectric 4.90
$end
--------------------------------------------------------------

             Standard Nuclear Orientation (Angstroms)
    I     Atom           X                Y                Z
 ----------------------------------------------------------------
    1      C      -0.2644090000    -0.3299340000    -0.2124760000
    2      S       0.1319910000     0.3570660000     1.3680240000
    3      C       0.9507910000     1.7753660000     0.6924240000
    4      C       0.2343910000     0.5344660000    -1.1978760000
    5      C       0.8944910000     1.6778660000    -0.7059760000
    6      H       0.1165910000     0.3303660000    -2.2723760000
    7      H       1.3348910000     2.4407660000    -1.3650760000
    8      C      -0.2644090000    -1.8081340000    -0.2124760000
    9      H       0.6711910000    -1.8087340000    -0.7519760000
   10      H       0.2288910000    -2.2474340000     0.6420240000
   11      H      -0.6710090000    -2.5191340000    -0.9164760000
   12      H       1.3910910000     2.5381660000     1.3435240000
 ----------------------------------------------------------------

   10    -590.3564501190      6.47e-07  Convergence criterion met
 Total energy in the final basis set =     -590.3564501190
        RIMP2         total energy =      -591.3612170995 a.u.

                    Orbital Energies (a.u.)
 --------------------------------------------------------------

 Alpha MOs
 -- Occupied --
-91.9793 -11.2852 -11.2669 -11.2434 -11.2342 -11.2240  -8.9791  -6.6600
 -6.6595  -6.6589  -1.1601  -1.0389  -0.9731  -0.9149  -0.7560  -0.7235
 -0.6711  -0.5967  -0.5668  -0.5538  -0.5462  -0.4888  -0.4730  -0.4547
 -0.3453  -0.2991

          Ground-State Mulliken Net Atomic Charges

     Atom                 Charge (a.u.)
  ----------------------------------------
      1 C                     0.002803
      2 S                     0.004743
      3 C                    -0.232477
      4 C                    -0.211783
      5 C                    -0.198857
      6 H                     0.178585
      7 H                     0.186753
      8 C                    -0.368774
      9 H                     0.145684
     10 H                     0.135980
     11 H                     0.153510
     12 H                     0.203833
  ----------------------------------------
  Sum of atomic charges =     0.000000

                    Cartesian Multipole Moments
 -----------------------------------------------------------------
    Charge (ESU x 10^10)
                 0.0000
    Dipole Moment (Debye)
         X       1.2651      Y      -0.6154      Z      -1.3913
       Tot       1.9787
    Quadrupole Moments (Debye-Ang)
        XX     -46.3184     XY       2.7712     YY     -38.6546
        XZ       0.4975     YZ       1.6328     ZZ     -41.4859

 Total job time:  11.66s(wall), 591.32s(cpu)
        *  Thank you very much for using Q-Chem.  Have a nice day.  *
