 Q-Chem 5.4, Q-Chem, Inc., Pleasanton, CA (2021)
 Q-Chem 5.4.0 for Intel X86 EM64T Linux

User input:
--------------------------------------------------------------
$molecule
0 1
C	-0.213493	-0.350804	-0.213580
S	0.121507	0.368096	1.366920
C	0.813607	1.852396	0.691320
C	0.208107	0.553796	-1.198980
C	0.766007	1.750296	-0.707080
H	0.108507	0.340196	-2.273480
H	1.138207	2.548796	-1.366180
C	-0.213493	-1.829004	-0.213580
H	-1.293493	-1.829604	-0.214080
H	-0.213493	-2.268304	-1.200180
H	-0.213393	-2.540004	0.599420
H	1.185707	2.650596	1.342420
$end

$rem
JOBTYPE		SP
EXCHANGE	HF
CORRELATION	pRIMP2
BASIS		cc-pvtz
METHOD		rimp2
AUX_BASIS	rimp2-cc-pvtz
SOLVENT_METHOD	PCM
PURECART	11111
SYMMETRY	false
MEM_TOTAL	110000
SCF_CONVERGENCE = 6
THRESH=10
GUI = 2
$end

$solvent
dielectric 4.90
$end
--------------------------------------------------------------

             Standard Nuclear Orientation (Angstroms)
    I     Atom           X                Y                Z
 ----------------------------------------------------------------
    1      C      -0.2134930000    -0.3508040000    -0.2135800000
    2      S       0.1215070000     0.3680960000     1.3669200000
    3      C       0.8136070000     1.8523960000     0.6913200000
    4      C       0.2081070000     0.5537960000    -1.1989800000
    5      C       0.7660070000     1.7502960000    -0.7070800000
    6      H       0.1085070000     0.3401960000    -2.2734800000
    7      H       1.1382070000     2.5487960000    -1.3661800000
    8      C      -0.2134930000    -1.8290040000    -0.2135800000
    9      H      -1.2934930000    -1.8296040000    -0.2140800000
   10      H      -0.2134930000    -2.2683040000    -1.2001800000
   11      H      -0.2133930000    -2.5400040000     0.5994200000
   12      H       1.1857070000     2.6505960000     1.3424200000
 ----------------------------------------------------------------

   10    -590.3566484291      6.48e-07  Convergence criterion met
 Total energy in the final basis set =     -590.3566484291
        RIMP2         total energy =      -591.3609561164 a.u.

                    Orbital Energies (a.u.)
 --------------------------------------------------------------

 Alpha MOs
 -- Occupied --
-91.9764 -11.2851 -11.2664 -11.2430 -11.2359 -11.2236  -8.9765  -6.6574
 -6.6568  -6.6563  -1.1575  -1.0387  -0.9718  -0.9188  -0.7555  -0.7219
 -0.6698  -0.5966  -0.5627  -0.5542  -0.5520  -0.4951  -0.4658  -0.4530
 -0.3457  -0.2966

          Ground-State Mulliken Net Atomic Charges

     Atom                 Charge (a.u.)
  ----------------------------------------
      1 C                     0.004436
      2 S                    -0.003060
      3 C                    -0.236716
      4 C                    -0.222753
      5 C                    -0.188885
      6 H                     0.182765
      7 H                     0.186091
      8 C                    -0.365629
      9 H                     0.133866
     10 H                     0.134933
     11 H                     0.170577
     12 H                     0.204374
  ----------------------------------------
  Sum of atomic charges =     0.000000

                    Cartesian Multipole Moments
 -----------------------------------------------------------------
    Charge (ESU x 10^10)
                -0.0000
    Dipole Moment (Debye)
         X      -0.1983      Y      -0.6398      Z      -1.1032
       Tot       1.2906
    Quadrupole Moments (Debye-Ang)
        XX     -46.5165     XY       4.8800     YY     -37.7082
        XZ       0.3980     YZ       0.5165     ZZ     -41.6116

 Total job time:  10.54s(wall), 562.87s(cpu)
        *  Thank you very much for using Q-Chem.  Have a nice day.  *
