 Q-Chem 5.4, Q-Chem, Inc., Pleasanton, CA (2021)
 Q-Chem 5.4.0 for Intel X86 EM64T Linux

User input:
--------------------------------------------------------------
$molecule
0 1
C	-0.176361	-0.368118	-0.220018
S	0.094739	0.377282	1.360482
C	0.654839	1.916282	0.684882
C	0.164839	0.569782	-1.205418
C	0.616239	1.810382	-0.713518
H	0.084239	0.348282	-2.279918
H	0.917539	2.638182	-1.372618
C	-0.176361	-1.846318	-0.220018
H	-0.176861	-1.846918	0.859982
H	-1.162961	-2.285618	-0.220018
H	0.636639	-2.557318	-0.220118
H	0.955939	2.743882	1.335982
$end

$rem
JOBTYPE		SP
EXCHANGE	HF
CORRELATION	pRIMP2
BASIS		cc-pvtz
METHOD		rimp2
AUX_BASIS	rimp2-cc-pvtz
SOLVENT_METHOD	PCM
PURECART	11111
SYMMETRY	false
MEM_TOTAL	110000
SCF_CONVERGENCE = 6
THRESH=10
GUI = 2
$end

$solvent
dielectric 4.90
$end
--------------------------------------------------------------

             Standard Nuclear Orientation (Angstroms)
    I     Atom           X                Y                Z
 ----------------------------------------------------------------
    1      C      -0.1763610000    -0.3681180000    -0.2200180000
    2      S       0.0947390000     0.3772820000     1.3604820000
    3      C       0.6548390000     1.9162820000     0.6848820000
    4      C       0.1648390000     0.5697820000    -1.2054180000
    5      C       0.6162390000     1.8103820000    -0.7135180000
    6      H       0.0842390000     0.3482820000    -2.2799180000
    7      H       0.9175390000     2.6381820000    -1.3726180000
    8      C      -0.1763610000    -1.8463180000    -0.2200180000
    9      H      -0.1768610000    -1.8469180000     0.8599820000
   10      H      -1.1629610000    -2.2856180000    -0.2200180000
   11      H       0.6366390000    -2.5573180000    -0.2201180000
   12      H       0.9559390000     2.7438820000     1.3359820000
 ----------------------------------------------------------------

   10    -590.3611572941      6.37e-07  Convergence criterion met
 Total energy in the final basis set =     -590.3611572941
        RIMP2         total energy =      -591.3651611819 a.u.

                    Orbital Energies (a.u.)
 --------------------------------------------------------------

 Alpha MOs
 -- Occupied --
-91.9801 -11.2783 -11.2723 -11.2432 -11.2388 -11.2214  -8.9801  -6.6609
 -6.6604  -6.6598  -1.1590  -1.0390  -0.9740  -0.9169  -0.7599  -0.7207
 -0.6718  -0.5953  -0.5696  -0.5626  -0.5375  -0.4948  -0.4624  -0.4475
 -0.3459  -0.3126

          Ground-State Mulliken Net Atomic Charges

     Atom                 Charge (a.u.)
  ----------------------------------------
      1 C                     0.006498
      2 S                    -0.004012
      3 C                    -0.228118
      4 C                    -0.213349
      5 C                    -0.188082
      6 H                     0.184606
      7 H                     0.186244
      8 C                    -0.340330
      9 H                     0.111331
     10 H                     0.124681
     11 H                     0.153862
     12 H                     0.206669
  ----------------------------------------
  Sum of atomic charges =     0.000000

                    Cartesian Multipole Moments
 -----------------------------------------------------------------
    Charge (ESU x 10^10)
                -0.0000
    Dipole Moment (Debye)
         X       0.5293      Y      -0.0705      Z      -0.4507
       Tot       0.6987
    Quadrupole Moments (Debye-Ang)
        XX     -46.4442     XY       2.7145     YY     -37.2855
        XZ       0.1470     YZ      -0.4006     ZZ     -42.3056

 Total job time:  23.63s(wall), 571.39s(cpu)
        *  Thank you very much for using Q-Chem.  Have a nice day.  *
