 Q-Chem 5.4, Q-Chem, Inc., Pleasanton, CA (2021)
 Q-Chem 5.4.0 for Intel X86 EM64T Linux

User input:
--------------------------------------------------------------
$molecule
0 1
C	-0.072874	-0.574539	0.014457
C	0.002426	0.285761	1.113857
C	0.123026	1.664461	0.791157
H	-0.029674	-0.081639	2.150557
C	0.142326	1.884261	-0.598043
S	0.009326	0.364261	-1.472343
C	0.217926	2.748061	1.829057
H	0.180826	2.323961	2.851157
H	-0.614074	3.477561	1.740657
H	1.163926	3.322061	1.740657
C	0.052726	-2.009739	0.014457
H	1.128626	-1.915839	0.014557
H	0.114126	-2.710839	-0.804743
H	0.097926	-2.526739	0.961557
H	0.225026	2.829861	-1.147143
$end

$rem
JOBTYPE		SP
EXCHANGE	HF
CORRELATION	pRIMP2
BASIS		cc-pvtz
METHOD		rimp2
AUX_BASIS	rimp2-cc-pvtz
SOLVENT_METHOD	PCM
PURECART	11111
SYMMETRY	false
MEM_TOTAL	110000
SCF_CONVERGENCE = 6
THRESH=10
GUI = 2
$end

$solvent
dielectric 4.90
$end
--------------------------------------------------------------

             Standard Nuclear Orientation (Angstroms)
    I     Atom           X                Y                Z
 ----------------------------------------------------------------
    1      C      -0.0728740000    -0.5745390000     0.0144570000
    2      C       0.0024260000     0.2857610000     1.1138570000
    3      C       0.1230260000     1.6644610000     0.7911570000
    4      H      -0.0296740000    -0.0816390000     2.1505570000
    5      C       0.1423260000     1.8842610000    -0.5980430000
    6      S       0.0093260000     0.3642610000    -1.4723430000
    7      C       0.2179260000     2.7480610000     1.8290570000
    8      H       0.1808260000     2.3239610000     2.8511570000
    9      H      -0.6140740000     3.4775610000     1.7406570000
   10      H       1.1639260000     3.3220610000     1.7406570000
   11      C       0.0527260000    -2.0097390000     0.0144570000
   12      H       1.1286260000    -1.9158390000     0.0145570000
   13      H       0.1141260000    -2.7108390000    -0.8047430000
   14      H       0.0979260000    -2.5267390000     0.9615570000
   15      H       0.2250260000     2.8298610000    -1.1471430000
 ----------------------------------------------------------------

   10    -629.4244818119      7.08e-07  Convergence criterion met
 Total energy in the final basis set =     -629.4244818119
        RIMP2         total energy =      -630.5997231666 a.u.

                    Orbital Energies (a.u.)
 --------------------------------------------------------------

 Alpha MOs
 -- Occupied --
-91.9777 -11.2867 -11.2485 -11.2470 -11.2265 -11.2231 -11.2230  -8.9775
 -6.6585  -6.6580  -6.6574  -1.1608  -1.0566  -0.9974  -0.9415  -0.8826
 -0.7439  -0.7188  -0.6478  -0.5896  -0.5766  -0.5694  -0.5525  -0.5459
 -0.5073  -0.4932  -0.4665  -0.4565  -0.3387  -0.2882

          Ground-State Mulliken Net Atomic Charges

     Atom                 Charge (a.u.)
  ----------------------------------------
      1 C                     0.067592
      2 C                    -0.317379
      3 C                     0.054530
      4 H                     0.175915
      5 C                    -0.282463
      6 S                    -0.001513
      7 C                    -0.273418
      8 H                     0.101290
      9 H                     0.107322
     10 H                     0.107429
     11 C                    -0.381488
     12 H                     0.148103
     13 H                     0.161684
     14 H                     0.140015
     15 H                     0.192381
  ----------------------------------------
  Sum of atomic charges =     0.000000

                    Cartesian Multipole Moments
 -----------------------------------------------------------------
    Charge (ESU x 10^10)
                -0.0000
    Dipole Moment (Debye)
         X       0.9897      Y      -0.7156      Z       1.4113
       Tot       1.8664
    Quadrupole Moments (Debye-Ang)
        XX     -54.2317     XY      -1.0800     YY     -42.0422
        XZ       0.0597     YZ       0.4868     ZZ     -48.6201

 Total job time:  50.92s(wall), 763.23s(cpu)
        *  Thank you very much for using Q-Chem.  Have a nice day.  *
