 Q-Chem 5.4, Q-Chem, Inc., Pleasanton, CA (2021)
 Q-Chem 5.4.0 for Intel X86 EM64T Linux

User input:
--------------------------------------------------------------
$molecule
0 1
C	-0.189303	-0.554001	0.014457
C	0.034197	0.280199	1.113857
C	0.392397	1.616899	0.791157
H	-0.061203	-0.076101	2.150557
C	0.449597	1.829999	-0.598043
S	0.054597	0.356299	-1.472343
C	0.673997	2.667599	1.829057
H	0.563797	2.256499	2.851157
H	-0.018603	3.530599	1.740657
H	1.705297	3.068599	1.740657
C	-0.063703	-1.989201	0.014457
H	1.012197	-1.895301	0.014557
H	-0.002303	-2.690301	-0.804743
H	-0.018503	-2.506201	0.961557
H	0.695297	2.746899	-1.147143
$end

$rem
JOBTYPE		SP
EXCHANGE	HF
CORRELATION	pRIMP2
BASIS		cc-pvtz
METHOD		rimp2
AUX_BASIS	rimp2-cc-pvtz
SOLVENT_METHOD	PCM
PURECART	11111
SYMMETRY	false
MEM_TOTAL	110000
SCF_CONVERGENCE = 6
THRESH=10
GUI = 2
$end

$solvent
dielectric 4.90
$end
--------------------------------------------------------------

             Standard Nuclear Orientation (Angstroms)
    I     Atom           X                Y                Z
 ----------------------------------------------------------------
    1      C      -0.1893030000    -0.5540010000     0.0144570000
    2      C       0.0341970000     0.2801990000     1.1138570000
    3      C       0.3923970000     1.6168990000     0.7911570000
    4      H      -0.0612030000    -0.0761010000     2.1505570000
    5      C       0.4495970000     1.8299990000    -0.5980430000
    6      S       0.0545970000     0.3562990000    -1.4723430000
    7      C       0.6739970000     2.6675990000     1.8290570000
    8      H       0.5637970000     2.2564990000     2.8511570000
    9      H      -0.0186030000     3.5305990000     1.7406570000
   10      H       1.7052970000     3.0685990000     1.7406570000
   11      C      -0.0637030000    -1.9892010000     0.0144570000
   12      H       1.0121970000    -1.8953010000     0.0145570000
   13      H      -0.0023030000    -2.6903010000    -0.8047430000
   14      H      -0.0185030000    -2.5062010000     0.9615570000
   15      H       0.6952970000     2.7468990000    -1.1471430000
 ----------------------------------------------------------------

   10    -629.4192563138      6.99e-07  Convergence criterion met
 Total energy in the final basis set =     -629.4192563138
        RIMP2         total energy =      -630.5958458378 a.u.

                    Orbital Energies (a.u.)
 --------------------------------------------------------------

 Alpha MOs
 -- Occupied --
-91.9773 -11.2852 -11.2502 -11.2475 -11.2267 -11.2240 -11.2226  -8.9773
 -6.6583  -6.6577  -6.6571  -1.1622  -1.0567  -0.9972  -0.9409  -0.8824
 -0.7443  -0.7195  -0.6473  -0.5891  -0.5784  -0.5687  -0.5524  -0.5459
 -0.5074  -0.4929  -0.4653  -0.4565  -0.3389  -0.2879

          Ground-State Mulliken Net Atomic Charges

     Atom                 Charge (a.u.)
  ----------------------------------------
      1 C                     0.061282
      2 C                    -0.319319
      3 C                     0.059411
      4 H                     0.175485
      5 C                    -0.281431
      6 S                    -0.000951
      7 C                    -0.271577
      8 H                     0.101429
      9 H                     0.107535
     10 H                     0.107076
     11 C                    -0.376697
     12 H                     0.150245
     13 H                     0.158771
     14 H                     0.136372
     15 H                     0.192367
  ----------------------------------------
  Sum of atomic charges =     0.000000

                    Cartesian Multipole Moments
 -----------------------------------------------------------------
    Charge (ESU x 10^10)
                -0.0000
    Dipole Moment (Debye)
         X       1.1735      Y      -0.6381      Z       1.4356
       Tot       1.9610
    Quadrupole Moments (Debye-Ang)
        XX     -53.9371     XY       0.4567     YY     -42.6914
        XZ       0.1234     YZ       0.4295     ZZ     -48.5911

 Total job time:  16.05s(wall), 774.54s(cpu)
        *  Thank you very much for using Q-Chem.  Have a nice day.  *
