 Q-Chem 5.4, Q-Chem, Inc., Pleasanton, CA (2021)
 Q-Chem 5.4.0 for Intel X86 EM64T Linux

User input:
--------------------------------------------------------------
$molecule
0 1
C	-0.300424	-0.513556	0.014457
C	0.064576	0.269144	1.113857
C	0.649476	1.523344	0.791157
H	-0.091324	-0.065156	2.150557
C	0.742776	1.723344	-0.598043
S	0.097876	0.340544	-1.472343
C	1.109176	2.509144	1.829057
H	0.929276	2.123444	2.851157
H	0.576876	3.479344	1.740657
H	2.194476	2.725044	1.740657
C	-0.174824	-1.948756	0.014457
H	0.901076	-1.854856	0.014557
H	-0.113424	-2.649856	-0.804743
H	-0.129624	-2.465756	0.961557
H	1.143876	2.583644	-1.147143
$end

$rem
JOBTYPE		SP
EXCHANGE	HF
CORRELATION	pRIMP2
BASIS		cc-pvtz
METHOD		rimp2
AUX_BASIS	rimp2-cc-pvtz
SOLVENT_METHOD	PCM
PURECART	11111
SYMMETRY	false
MEM_TOTAL	110000
SCF_CONVERGENCE = 6
THRESH=10
GUI = 2
$end

$solvent
dielectric 4.90
$end
--------------------------------------------------------------

             Standard Nuclear Orientation (Angstroms)
    I     Atom           X                Y                Z
 ----------------------------------------------------------------
    1      C      -0.3004240000    -0.5135560000     0.0144570000
    2      C       0.0645760000     0.2691440000     1.1138570000
    3      C       0.6494760000     1.5233440000     0.7911570000
    4      H      -0.0913240000    -0.0651560000     2.1505570000
    5      C       0.7427760000     1.7233440000    -0.5980430000
    6      S       0.0978760000     0.3405440000    -1.4723430000
    7      C       1.1091760000     2.5091440000     1.8290570000
    8      H       0.9292760000     2.1234440000     2.8511570000
    9      H       0.5768760000     3.4793440000     1.7406570000
   10      H       2.1944760000     2.7250440000     1.7406570000
   11      C      -0.1748240000    -1.9487560000     0.0144570000
   12      H       0.9010760000    -1.8548560000     0.0145570000
   13      H      -0.1134240000    -2.6498560000    -0.8047430000
   14      H      -0.1296240000    -2.4657560000     0.9615570000
   15      H       1.1438760000     2.5836440000    -1.1471430000
 ----------------------------------------------------------------

   10    -629.4092659441      6.55e-07  Convergence criterion met
 Total energy in the final basis set =     -629.4092659441
        RIMP2         total energy =      -630.5883981060 a.u.

                    Orbital Energies (a.u.)
 --------------------------------------------------------------

 Alpha MOs
 -- Occupied --
-91.9767 -11.2819 -11.2536 -11.2481 -11.2271 -11.2263 -11.2213  -8.9769
 -6.6578  -6.6572  -6.6567  -1.1643  -1.0569  -0.9970  -0.9401  -0.8820
 -0.7451  -0.7208  -0.6464  -0.5884  -0.5804  -0.5682  -0.5523  -0.5459
 -0.5078  -0.4928  -0.4623  -0.4561  -0.3390  -0.2876

          Ground-State Mulliken Net Atomic Charges

     Atom                 Charge (a.u.)
  ----------------------------------------
      1 C                     0.047207
      2 C                    -0.306517
      3 C                     0.056960
      4 H                     0.175534
      5 C                    -0.274119
      6 S                    -0.000662
      7 C                    -0.270148
      8 H                     0.101699
      9 H                     0.107723
     10 H                     0.106546
     11 C                    -0.373455
     12 H                     0.149298
     13 H                     0.155273
     14 H                     0.131919
     15 H                     0.192743
  ----------------------------------------
  Sum of atomic charges =     0.000000

                    Cartesian Multipole Moments
 -----------------------------------------------------------------
    Charge (ESU x 10^10)
                -0.0000
    Dipole Moment (Debye)
         X       1.3967      Y      -0.5001      Z       1.4768
       Tot       2.0932
    Quadrupole Moments (Debye-Ang)
        XX     -53.2223     XY       1.7996     YY     -43.8715
        XZ       0.1555     YZ       0.3410     ZZ     -48.5084

 Total job time:  18.66s(wall), 789.04s(cpu)
        *  Thank you very much for using Q-Chem.  Have a nice day.  *
