 Q-Chem 5.4, Q-Chem, Inc., Pleasanton, CA (2021)
 Q-Chem 5.4.0 for Intel X86 EM64T Linux

User input:
--------------------------------------------------------------
$molecule
0 1
C	-0.442972	-0.368935	-0.004796
C	-0.517972	1.027165	-0.004796
C	0.735528	1.696465	-0.004996
H	-1.478572	1.563765	-0.004696
C	1.817028	0.796965	-0.005096
S	1.245628	-0.866135	-0.004996
C	0.869628	3.193865	-0.004996
H	-0.124072	3.682065	-0.004896
H	1.419828	3.558565	-0.897496
H	1.420128	3.558665	0.887304
C	-1.526472	-1.318335	-0.004596
H	-1.526672	-1.318435	1.075404
H	-1.515972	-2.398335	-0.004496
H	-2.541072	-0.948035	-0.004496
H	2.892828	1.009565	-0.005196
$end

$rem
JOBTYPE		SP
EXCHANGE	HF
CORRELATION	pRIMP2
BASIS		cc-pvtz
METHOD		rimp2
AUX_BASIS	rimp2-cc-pvtz
SOLVENT_METHOD	PCM
PURECART	11111
SYMMETRY	false
MEM_TOTAL	110000
SCF_CONVERGENCE = 6
THRESH=10
GUI = 2
$end

$solvent
dielectric 4.90
$end
--------------------------------------------------------------

             Standard Nuclear Orientation (Angstroms)
    I     Atom           X                Y                Z
 ----------------------------------------------------------------
    1      C      -0.4429720000    -0.3689350000    -0.0047960000
    2      C      -0.5179720000     1.0271650000    -0.0047960000
    3      C       0.7355280000     1.6964650000    -0.0049960000
    4      H      -1.4785720000     1.5637650000    -0.0046960000
    5      C       1.8170280000     0.7969650000    -0.0050960000
    6      S       1.2456280000    -0.8661350000    -0.0049960000
    7      C       0.8696280000     3.1938650000    -0.0049960000
    8      H      -0.1240720000     3.6820650000    -0.0048960000
    9      H       1.4198280000     3.5585650000    -0.8974960000
   10      H       1.4201280000     3.5586650000     0.8873040000
   11      C      -1.5264720000    -1.3183350000    -0.0045960000
   12      H      -1.5266720000    -1.3184350000     1.0754040000
   13      H      -1.5159720000    -2.3983350000    -0.0044960000
   14      H      -2.5410720000    -0.9480350000    -0.0044960000
   15      H       2.8928280000     1.0095650000    -0.0051960000
 ----------------------------------------------------------------

   10    -629.4250561059      7.04e-07  Convergence criterion met
 Total energy in the final basis set =     -629.4250561059
        RIMP2         total energy =      -630.6001660019 a.u.

                    Orbital Energies (a.u.)
 --------------------------------------------------------------

 Alpha MOs
 -- Occupied --
-91.9777 -11.2866 -11.2482 -11.2468 -11.2264 -11.2230 -11.2227  -8.9776
 -6.6586  -6.6580  -6.6574  -1.1601  -1.0564  -0.9975  -0.9419  -0.8828
 -0.7437  -0.7186  -0.6478  -0.5895  -0.5751  -0.5704  -0.5525  -0.5458
 -0.5078  -0.4935  -0.4655  -0.4564  -0.3384  -0.2882

          Ground-State Mulliken Net Atomic Charges

     Atom                 Charge (a.u.)
  ----------------------------------------
      1 C                     0.068793
      2 C                    -0.310134
      3 C                     0.049333
      4 H                     0.176430
      5 C                    -0.281011
      6 S                    -0.002275
      7 C                    -0.274765
      8 H                     0.101305
      9 H                     0.107276
     10 H                     0.107436
     11 C                    -0.384787
     12 H                     0.144515
     13 H                     0.163442
     14 H                     0.141947
     15 H                     0.192495
  ----------------------------------------
  Sum of atomic charges =     0.000000

                    Cartesian Multipole Moments
 -----------------------------------------------------------------
    Charge (ESU x 10^10)
                -0.0000
    Dipole Moment (Debye)
         X      -1.5277      Y       0.5301      Z       0.7488
       Tot       1.7820
    Quadrupole Moments (Debye-Ang)
        XX     -45.1764     XY       3.5140     YY     -45.0855
        XZ      -1.2020     YZ      -1.0142     ZZ     -54.4146

 Total job time:  16.48s(wall), 763.49s(cpu)
        *  Thank you very much for using Q-Chem.  Have a nice day.  *
