 Q-Chem 5.4, Q-Chem, Inc., Pleasanton, CA (2021)
 Q-Chem 5.4.0 for Intel X86 EM64T Linux

User input:
--------------------------------------------------------------
$molecule
0 1
C	-0.431172	-0.419059	-0.002181
C	0.109328	0.229941	1.110819
C	0.999828	1.298441	0.818419
H	-0.139072	-0.068259	2.140719
C	1.158928	1.489041	-0.565781
S	0.189928	0.326841	-1.466881
C	1.681428	2.116341	1.880219
H	1.394628	1.772241	2.892819
H	1.415928	3.191641	1.805919
H	2.787028	2.048841	1.806019
C	-0.431172	-1.869159	-0.002181
H	-1.125372	-1.869659	0.825119
H	-1.149672	-2.404259	-0.605381
H	0.207328	-2.556359	0.533119
H	1.772128	2.225041	-1.099281
$end

$rem
JOBTYPE		SP
EXCHANGE	HF
CORRELATION	pRIMP2
BASIS		cc-pvtz
METHOD		rimp2
AUX_BASIS	rimp2-cc-pvtz
SOLVENT_METHOD	PCM
PURECART	11111
SYMMETRY	false
MEM_TOTAL	110000
SCF_CONVERGENCE = 6
THRESH=10
GUI = 2
$end

$solvent
dielectric 4.90
$end
--------------------------------------------------------------

             Standard Nuclear Orientation (Angstroms)
    I     Atom           X                Y                Z
 ----------------------------------------------------------------
    1      C      -0.4311720000    -0.4190590000    -0.0021810000
    2      C       0.1093280000     0.2299410000     1.1108190000
    3      C       0.9998280000     1.2984410000     0.8184190000
    4      H      -0.1390720000    -0.0682590000     2.1407190000
    5      C       1.1589280000     1.4890410000    -0.5657810000
    6      S       0.1899280000     0.3268410000    -1.4668810000
    7      C       1.6814280000     2.1163410000     1.8802190000
    8      H       1.3946280000     1.7722410000     2.8928190000
    9      H       1.4159280000     3.1916410000     1.8059190000
   10      H       2.7870280000     2.0488410000     1.8060190000
   11      C      -0.4311720000    -1.8691590000    -0.0021810000
   12      H      -1.1253720000    -1.8696590000     0.8251190000
   13      H      -1.1496720000    -2.4042590000    -0.6053810000
   14      H       0.2073280000    -2.5563590000     0.5331190000
   15      H       1.7721280000     2.2250410000    -1.0992810000
 ----------------------------------------------------------------

   10    -629.3927198937      5.34e-07  Convergence criterion met
 Total energy in the final basis set =     -629.3927198937
        RIMP2         total energy =      -630.5775046022 a.u.

                    Orbital Energies (a.u.)
 --------------------------------------------------------------

 Alpha MOs
 -- Occupied --
-91.9731 -11.2674 -11.2632 -11.2485 -11.2411 -11.2283 -11.2128  -8.9737
 -6.6545  -6.6538  -6.6534  -1.1646  -1.0523  -0.9984  -0.9380  -0.8849
 -0.7446  -0.7258  -0.6455  -0.5851  -0.5798  -0.5663  -0.5564  -0.5418
 -0.5156  -0.4854  -0.4610  -0.4330  -0.3372  -0.2990

          Ground-State Mulliken Net Atomic Charges

     Atom                 Charge (a.u.)
  ----------------------------------------
      1 C                    -0.024895
      2 C                    -0.218368
      3 C                     0.018094
      4 H                     0.178793
      5 C                    -0.224963
      6 S                     0.001587
      7 C                    -0.269673
      8 H                     0.101499
      9 H                     0.106965
     10 H                     0.106297
     11 C                    -0.372356
     12 H                     0.119745
     13 H                     0.129331
     14 H                     0.153664
     15 H                     0.194280
  ----------------------------------------
  Sum of atomic charges =     0.000000

                    Cartesian Multipole Moments
 -----------------------------------------------------------------
    Charge (ESU x 10^10)
                -0.0000
    Dipole Moment (Debye)
         X       0.8776      Y       0.1159      Z       2.1364
       Tot       2.3125
    Quadrupole Moments (Debye-Ang)
        XX     -50.2774     XY       5.3043     YY     -46.3137
        XZ       0.2010     YZ      -0.8292     ZZ     -48.5067

 Total job time:  15.97s(wall), 762.03s(cpu)
        *  Thank you very much for using Q-Chem.  Have a nice day.  *
