 Q-Chem 5.4, Q-Chem, Inc., Pleasanton, CA (2021)
 Q-Chem 5.4.0 for Intel X86 EM64T Linux

User input:
--------------------------------------------------------------
$molecule
0 1
C	-0.234697	-0.536244	-0.000076
C	0.051303	0.258456	1.112924
C	0.522603	1.567156	0.820524
H	-0.080197	-0.106644	2.142824
C	0.606903	1.800556	-0.563676
S	0.093803	0.377056	-1.464776
C	0.883403	2.568756	1.882324
H	0.731503	2.147356	2.894924
H	0.266103	3.488456	1.808024
H	1.945303	2.883556	1.808124
C	-0.234697	-1.986344	-0.000076
H	0.828903	-1.986844	0.187424
H	-0.397797	-2.521444	0.923824
H	-0.090297	-2.673544	-0.820676
H	0.931403	2.701956	-1.097176
$end

$rem
JOBTYPE		SP
EXCHANGE	HF
CORRELATION	pRIMP2
BASIS		cc-pvtz
METHOD		rimp2
AUX_BASIS	rimp2-cc-pvtz
SOLVENT_METHOD	PCM
PURECART	11111
SYMMETRY	false
MEM_TOTAL	110000
SCF_CONVERGENCE = 6
THRESH=10
GUI = 2
$end

$solvent
dielectric 4.90
$end
--------------------------------------------------------------

             Standard Nuclear Orientation (Angstroms)
    I     Atom           X                Y                Z
 ----------------------------------------------------------------
    1      C      -0.2346970000    -0.5362440000    -0.0000760000
    2      C       0.0513030000     0.2584560000     1.1129240000
    3      C       0.5226030000     1.5671560000     0.8205240000
    4      H      -0.0801970000    -0.1066440000     2.1428240000
    5      C       0.6069030000     1.8005560000    -0.5636760000
    6      S       0.0938030000     0.3770560000    -1.4647760000
    7      C       0.8834030000     2.5687560000     1.8823240000
    8      H       0.7315030000     2.1473560000     2.8949240000
    9      H       0.2661030000     3.4884560000     1.8080240000
   10      H       1.9453030000     2.8835560000     1.8081240000
   11      C      -0.2346970000    -1.9863440000    -0.0000760000
   12      H       0.8289030000    -1.9868440000     0.1874240000
   13      H      -0.3977970000    -2.5214440000     0.9238240000
   14      H      -0.0902970000    -2.6735440000    -0.8206760000
   15      H       0.9314030000     2.7019560000    -1.0971760000
 ----------------------------------------------------------------

   10    -629.4196108213      6.67e-07  Convergence criterion met
 Total energy in the final basis set =     -629.4196108213
        RIMP2         total energy =      -630.5963606481 a.u.

                    Orbital Energies (a.u.)
 --------------------------------------------------------------

 Alpha MOs
 -- Occupied --
-91.9785 -11.2851 -11.2505 -11.2478 -11.2269 -11.2235 -11.2228  -8.9783
 -6.6593  -6.6588  -6.6582  -1.1618  -1.0549  -0.9975  -0.9397  -0.8836
 -0.7437  -0.7193  -0.6465  -0.5888  -0.5768  -0.5689  -0.5535  -0.5448
 -0.5075  -0.4925  -0.4661  -0.4564  -0.3380  -0.2890

          Ground-State Mulliken Net Atomic Charges

     Atom                 Charge (a.u.)
  ----------------------------------------
      1 C                     0.049978
      2 C                    -0.302449
      3 C                     0.052549
      4 H                     0.174000
      5 C                    -0.280606
      6 S                     0.002644
      7 C                    -0.271336
      8 H                     0.101569
      9 H                     0.107494
     10 H                     0.106977
     11 C                    -0.380637
     12 H                     0.150603
     13 H                     0.138507
     14 H                     0.157704
     15 H                     0.193006
  ----------------------------------------
  Sum of atomic charges =     0.000000

                    Cartesian Multipole Moments
 -----------------------------------------------------------------
    Charge (ESU x 10^10)
                -0.0000
    Dipole Moment (Debye)
         X       1.0936      Y      -0.7212      Z       1.5547
       Tot       2.0330
    Quadrupole Moments (Debye-Ang)
        XX     -53.7708     XY       1.3916     YY     -42.8662
        XZ       0.0630     YZ       0.2060     ZZ     -48.5554

 Total job time:  16.75s(wall), 761.42s(cpu)
        *  Thank you very much for using Q-Chem.  Have a nice day.  *
