 Q-Chem 5.4, Q-Chem, Inc., Pleasanton, CA (2021)
 Q-Chem 5.4.0 for Intel X86 EM64T Linux

User input:
--------------------------------------------------------------
$molecule
0 1
C	-0.052358	-0.574004	-0.000785
C	0.018142	0.267696	1.112215
C	0.134742	1.653696	0.819815
H	-0.014258	-0.119104	2.142115
C	0.155742	1.900996	-0.564385
S	0.028542	0.393196	-1.465485
C	0.223942	2.714596	1.881615
H	0.186342	2.268196	2.894215
H	-0.610358	3.443096	1.807315
H	1.168242	3.293496	1.807415
C	-0.052358	-2.024104	-0.000785
H	-0.987658	-2.024604	0.539215
H	-0.521258	-2.559204	-0.813385
H	0.364542	-2.711304	0.720615
H	0.235942	2.855696	-1.097885
$end

$rem
JOBTYPE		SP
EXCHANGE	HF
CORRELATION	pRIMP2
BASIS		cc-pvtz
METHOD		rimp2
AUX_BASIS	rimp2-cc-pvtz
SOLVENT_METHOD	PCM
PURECART	11111
SYMMETRY	false
MEM_TOTAL	110000
SCF_CONVERGENCE = 6
THRESH=10
GUI = 2
$end

$solvent
dielectric 4.90
$end
--------------------------------------------------------------

             Standard Nuclear Orientation (Angstroms)
    I     Atom           X                Y                Z
 ----------------------------------------------------------------
    1      C      -0.0523580000    -0.5740040000    -0.0007850000
    2      C       0.0181420000     0.2676960000     1.1122150000
    3      C       0.1347420000     1.6536960000     0.8198150000
    4      H      -0.0142580000    -0.1191040000     2.1421150000
    5      C       0.1557420000     1.9009960000    -0.5643850000
    6      S       0.0285420000     0.3931960000    -1.4654850000
    7      C       0.2239420000     2.7145960000     1.8816150000
    8      H       0.1863420000     2.2681960000     2.8942150000
    9      H      -0.6103580000     3.4430960000     1.8073150000
   10      H       1.1682420000     3.2934960000     1.8074150000
   11      C      -0.0523580000    -2.0241040000    -0.0007850000
   12      H      -0.9876580000    -2.0246040000     0.5392150000
   13      H      -0.5212580000    -2.5592040000    -0.8133850000
   14      H       0.3645420000    -2.7113040000     0.7206150000
   15      H       0.2359420000     2.8556960000    -1.0978850000
 ----------------------------------------------------------------

   10    -629.4242027605      6.16e-07  Convergence criterion met
 Total energy in the final basis set =     -629.4242027605
        RIMP2         total energy =      -630.6005848134 a.u.

                    Orbital Energies (a.u.)
 --------------------------------------------------------------

 Alpha MOs
 -- Occupied --
-91.9786 -11.2833 -11.2510 -11.2474 -11.2268 -11.2251 -11.2207  -8.9783
 -6.6593  -6.6587  -6.6581  -1.1599  -1.0536  -0.9981  -0.9403  -0.8844
 -0.7427  -0.7196  -0.6485  -0.5877  -0.5733  -0.5662  -0.5585  -0.5436
 -0.5083  -0.4931  -0.4652  -0.4527  -0.3373  -0.2924

          Ground-State Mulliken Net Atomic Charges

     Atom                 Charge (a.u.)
  ----------------------------------------
      1 C                     0.063764
      2 C                    -0.297767
      3 C                     0.045051
      4 H                     0.174723
      5 C                    -0.272474
      6 S                     0.000777
      7 C                    -0.275129
      8 H                     0.101384
      9 H                     0.107202
     10 H                     0.107317
     11 C                    -0.381023
     12 H                     0.138343
     13 H                     0.139056
     14 H                     0.155855
     15 H                     0.192922
  ----------------------------------------
  Sum of atomic charges =     0.000000

                    Cartesian Multipole Moments
 -----------------------------------------------------------------
    Charge (ESU x 10^10)
                -0.0000
    Dipole Moment (Debye)
         X      -0.5367      Y      -0.5646      Z       1.7743
       Tot       1.9378
    Quadrupole Moments (Debye-Ang)
        XX     -54.0985     XY       2.0847     YY     -41.9580
        XZ       0.2743     YZ      -0.4244     ZZ     -48.6209

 Total job time:  16.15s(wall), 753.11s(cpu)
        *  Thank you very much for using Q-Chem.  Have a nice day.  *
