 Q-Chem 5.4, Q-Chem, Inc., Pleasanton, CA (2021)
 Q-Chem 5.4.0 for Intel X86 EM64T Linux

User input:
--------------------------------------------------------------
$molecule
0 1
C	-0.281338	-0.513776	-0.002181
C	0.072862	0.253024	1.110819
C	0.656462	1.515624	0.818419
H	-0.090038	-0.099276	2.140719
C	0.760662	1.740824	-0.565781
S	0.125562	0.367424	-1.466881
C	1.103062	2.482024	1.880219
H	0.915062	2.075424	2.892819
H	0.568262	3.451924	1.805919
H	2.188462	2.703024	1.806019
C	-0.281338	-1.963876	-0.002181
H	-0.975538	-1.964376	0.825119
H	-0.999838	-2.498976	-0.605381
H	0.357162	-2.651076	0.533119
H	1.162562	2.610424	-1.099281
$end

$rem
JOBTYPE		SP
EXCHANGE	HF
CORRELATION	pRIMP2
BASIS		cc-pvtz
METHOD		rimp2
AUX_BASIS	rimp2-cc-pvtz
SOLVENT_METHOD	PCM
PURECART	11111
SYMMETRY	false
MEM_TOTAL	110000
SCF_CONVERGENCE = 6
THRESH=10
GUI = 2
$end

$solvent
dielectric 4.90
$end
--------------------------------------------------------------

             Standard Nuclear Orientation (Angstroms)
    I     Atom           X                Y                Z
 ----------------------------------------------------------------
    1      C      -0.2813380000    -0.5137760000    -0.0021810000
    2      C       0.0728620000     0.2530240000     1.1108190000
    3      C       0.6564620000     1.5156240000     0.8184190000
    4      H      -0.0900380000    -0.0992760000     2.1407190000
    5      C       0.7606620000     1.7408240000    -0.5657810000
    6      S       0.1255620000     0.3674240000    -1.4668810000
    7      C       1.1030620000     2.4820240000     1.8802190000
    8      H       0.9150620000     2.0754240000     2.8928190000
    9      H       0.5682620000     3.4519240000     1.8059190000
   10      H       2.1884620000     2.7030240000     1.8060190000
   11      C      -0.2813380000    -1.9638760000    -0.0021810000
   12      H      -0.9755380000    -1.9643760000     0.8251190000
   13      H      -0.9998380000    -2.4989760000    -0.6053810000
   14      H       0.3571620000    -2.6510760000     0.5331190000
   15      H       1.1625620000     2.6104240000    -1.0992810000
 ----------------------------------------------------------------

   10    -629.4126249156      5.25e-07  Convergence criterion met
 Total energy in the final basis set =     -629.4126249156
        RIMP2         total energy =      -630.5930462307 a.u.

                    Orbital Energies (a.u.)
 --------------------------------------------------------------

 Alpha MOs
 -- Occupied --
-91.9751 -11.2736 -11.2596 -11.2478 -11.2342 -11.2276 -11.2163  -8.9753
 -6.6562  -6.6556  -6.6551  -1.1616  -1.0523  -0.9985  -0.9392  -0.8850
 -0.7432  -0.7230  -0.6472  -0.5869  -0.5771  -0.5654  -0.5587  -0.5421
 -0.5123  -0.4882  -0.4631  -0.4411  -0.3374  -0.2986

          Ground-State Mulliken Net Atomic Charges

     Atom                 Charge (a.u.)
  ----------------------------------------
      1 C                     0.021810
      2 C                    -0.266991
      3 C                     0.036537
      4 H                     0.177441
      5 C                    -0.248330
      6 S                    -0.001393
      7 C                    -0.271836
      8 H                     0.101446
      9 H                     0.106986
     10 H                     0.106954
     11 C                    -0.368810
     12 H                     0.125040
     13 H                     0.134738
     14 H                     0.153016
     15 H                     0.193393
  ----------------------------------------
  Sum of atomic charges =     0.000000

                    Cartesian Multipole Moments
 -----------------------------------------------------------------
    Charge (ESU x 10^10)
                -0.0000
    Dipole Moment (Debye)
         X       0.2320      Y      -0.1011      Z       2.0563
       Tot       2.0718
    Quadrupole Moments (Debye-Ang)
        XX     -52.2801     XY       4.3152     YY     -43.8445
        XZ       0.3065     YZ      -0.8204     ZZ     -48.6899

 Total job time:  15.89s(wall), 753.42s(cpu)
        *  Thank you very much for using Q-Chem.  Have a nice day.  *
