 Q-Chem 5.4, Q-Chem, Inc., Pleasanton, CA (2021)
 Q-Chem 5.4.0 for Intel X86 EM64T Linux

User input:
--------------------------------------------------------------
$molecule
0 1
C	-0.516546	-0.335659	-0.003165
C	0.128454	0.209641	1.109835
C	1.191054	1.107341	0.817435
H	-0.167946	-0.040859	2.139735
C	1.380654	1.267341	-0.566765
S	0.224654	0.291041	-1.467865
C	2.004254	1.794341	1.879235
H	1.662054	1.505341	2.891835
H	1.929454	2.899441	1.804935
H	3.081254	1.535941	1.805035
C	-0.516546	-1.785759	-0.003165
H	-0.885946	-1.786259	1.011735
H	-1.398046	-2.320859	-0.324265
H	0.266454	-2.472959	0.281535
H	2.112454	1.885641	-1.100265
$end

$rem
JOBTYPE		SP
EXCHANGE	HF
CORRELATION	pRIMP2
BASIS		cc-pvtz
METHOD		rimp2
AUX_BASIS	rimp2-cc-pvtz
SOLVENT_METHOD	PCM
PURECART	11111
SYMMETRY	false
MEM_TOTAL	110000
SCF_CONVERGENCE = 6
THRESH=10
GUI = 2
$end

$solvent
dielectric 4.90
$end
--------------------------------------------------------------

             Standard Nuclear Orientation (Angstroms)
    I     Atom           X                Y                Z
 ----------------------------------------------------------------
    1      C      -0.5165460000    -0.3356590000    -0.0031650000
    2      C       0.1284540000     0.2096410000     1.1098350000
    3      C       1.1910540000     1.1073410000     0.8174350000
    4      H      -0.1679460000    -0.0408590000     2.1397350000
    5      C       1.3806540000     1.2673410000    -0.5667650000
    6      S       0.2246540000     0.2910410000    -1.4678650000
    7      C       2.0042540000     1.7943410000     1.8792350000
    8      H       1.6620540000     1.5053410000     2.8918350000
    9      H       1.9294540000     2.8994410000     1.8049350000
   10      H       3.0812540000     1.5359410000     1.8050350000
   11      C      -0.5165460000    -1.7857590000    -0.0031650000
   12      H      -0.8859460000    -1.7862590000     1.0117350000
   13      H      -1.3980460000    -2.3208590000    -0.3242650000
   14      H       0.2664540000    -2.4729590000     0.2815350000
   15      H       2.1124540000     1.8856410000    -1.1002650000
 ----------------------------------------------------------------

   10    -629.3761538912      8.15e-07  Convergence criterion met
 Total energy in the final basis set =     -629.3761538912
        RIMP2         total energy =      -630.5637130109 a.u.

                    Orbital Energies (a.u.)
 --------------------------------------------------------------

 Alpha MOs
 -- Occupied --
-91.9722 -11.2764 -11.2531 -11.2494 -11.2483 -11.2291 -11.2103  -8.9731
 -6.6539  -6.6531  -6.6528  -1.1688  -1.0533  -0.9999  -0.9355  -0.8849
 -0.7461  -0.7303  -0.6445  -0.5857  -0.5838  -0.5689  -0.5539  -0.5416
 -0.5186  -0.4760  -0.4610  -0.4250  -0.3361  -0.3060

          Ground-State Mulliken Net Atomic Charges

     Atom                 Charge (a.u.)
  ----------------------------------------
      1 C                    -0.067878
      2 C                    -0.167825
      3 C                     0.000598
      4 H                     0.179346
      5 C                    -0.202637
      6 S                     0.004429
      7 C                    -0.267712
      8 H                     0.101768
      9 H                     0.106900
     10 H                     0.105745
     11 C                    -0.355474
     12 H                     0.105124
     13 H                     0.115807
     14 H                     0.145390
     15 H                     0.196419
  ----------------------------------------
  Sum of atomic charges =     0.000000

                    Cartesian Multipole Moments
 -----------------------------------------------------------------
    Charge (ESU x 10^10)
                -0.0000
    Dipole Moment (Debye)
         X       1.7051      Y       0.3170      Z       2.2934
       Tot       2.8753
    Quadrupole Moments (Debye-Ang)
        XX     -48.8501     XY       4.9309     YY     -48.2365
        XZ      -0.1397     YZ      -0.9598     ZZ     -48.4319

 Total job time:  16.30s(wall), 766.39s(cpu)
        *  Thank you very much for using Q-Chem.  Have a nice day.  *
