 Q-Chem 5.4, Q-Chem, Inc., Pleasanton, CA (2021)
 Q-Chem 5.4.0 for Intel X86 EM64T Linux

User input:
--------------------------------------------------------------
$molecule
0 1
C	-0.288780	-0.513776	-0.001602
C	0.065420	0.253024	1.111398
C	0.649020	1.515624	0.818998
H	-0.097480	-0.099276	2.141298
C	0.753220	1.740824	-0.565202
S	0.118120	0.367424	-1.466302
C	1.095620	2.482024	1.880798
H	0.907620	2.075424	2.893398
H	0.560820	3.451924	1.806498
H	2.181020	2.703024	1.806598
C	-0.288780	-1.963876	-0.001602
H	0.646520	-1.964376	0.538398
H	-0.758080	-2.498976	0.810698
H	0.127520	-2.651076	-0.723302
H	1.155120	2.610424	-1.098702
$end

$rem
JOBTYPE		SP
EXCHANGE	HF
CORRELATION	pRIMP2
BASIS		cc-pvtz
METHOD		rimp2
AUX_BASIS	rimp2-cc-pvtz
SOLVENT_METHOD	PCM
PURECART	11111
SYMMETRY	false
MEM_TOTAL	110000
SCF_CONVERGENCE = 6
THRESH=10
GUI = 2
$end

$solvent
dielectric 4.90
$end
--------------------------------------------------------------

             Standard Nuclear Orientation (Angstroms)
    I     Atom           X                Y                Z
 ----------------------------------------------------------------
    1      C      -0.2887800000    -0.5137760000    -0.0016020000
    2      C       0.0654200000     0.2530240000     1.1113980000
    3      C       0.6490200000     1.5156240000     0.8189980000
    4      H      -0.0974800000    -0.0992760000     2.1412980000
    5      C       0.7532200000     1.7408240000    -0.5652020000
    6      S       0.1181200000     0.3674240000    -1.4663020000
    7      C       1.0956200000     2.4820240000     1.8807980000
    8      H       0.9076200000     2.0754240000     2.8933980000
    9      H       0.5608200000     3.4519240000     1.8064980000
   10      H       2.1810200000     2.7030240000     1.8065980000
   11      C      -0.2887800000    -1.9638760000    -0.0016020000
   12      H       0.6465200000    -1.9643760000     0.5383980000
   13      H      -0.7580800000    -2.4989760000     0.8106980000
   14      H       0.1275200000    -2.6510760000    -0.7233020000
   15      H       1.1551200000     2.6104240000    -1.0987020000
 ----------------------------------------------------------------

   10    -629.4118062238      5.88e-07  Convergence criterion met
 Total energy in the final basis set =     -629.4118062238
        RIMP2         total energy =      -630.5910336269 a.u.

                    Orbital Energies (a.u.)
 --------------------------------------------------------------

 Alpha MOs
 -- Occupied --
-91.9790 -11.2816 -11.2528 -11.2481 -11.2272 -11.2259 -11.2194  -8.9787
 -6.6596  -6.6591  -6.6585  -1.1625  -1.0542  -0.9982  -0.9381  -0.8839
 -0.7431  -0.7208  -0.6460  -0.5892  -0.5752  -0.5710  -0.5554  -0.5435
 -0.5095  -0.4854  -0.4661  -0.4544  -0.3367  -0.2906

          Ground-State Mulliken Net Atomic Charges

     Atom                 Charge (a.u.)
  ----------------------------------------
      1 C                     0.032608
      2 C                    -0.271873
      3 C                     0.040062
      4 H                     0.174232
      5 C                    -0.271733
      6 S                     0.004793
      7 C                    -0.270758
      8 H                     0.101561
      9 H                     0.107512
     10 H                     0.106440
     11 C                    -0.388489
     12 H                     0.149395
     13 H                     0.134606
     14 H                     0.158578
     15 H                     0.193065
  ----------------------------------------
  Sum of atomic charges =     0.000000

                    Cartesian Multipole Moments
 -----------------------------------------------------------------
    Charge (ESU x 10^10)
                -0.0000
    Dipole Moment (Debye)
         X       1.1371      Y      -0.5393      Z       1.7946
       Tot       2.1919
    Quadrupole Moments (Debye-Ang)
        XX     -53.1496     XY       2.0700     YY     -43.7524
        XZ      -0.1321     YZ      -0.3027     ZZ     -48.5181

 Total job time:  19.06s(wall), 748.03s(cpu)
        *  Thank you very much for using Q-Chem.  Have a nice day.  *
