 Q-Chem 5.4, Q-Chem, Inc., Pleasanton, CA (2021)
 Q-Chem 5.4.0 for Intel X86 EM64T Linux

User input:
--------------------------------------------------------------
$molecule
0 1
C	-0.435122	-0.419059	0.006080
C	0.105378	0.229941	1.119080
C	0.995878	1.298441	0.826680
H	-0.143022	-0.068259	2.148980
C	1.154978	1.489041	-0.557520
S	0.185978	0.326841	-1.458620
C	1.677478	2.116341	1.888480
H	1.390678	1.772241	2.901080
H	1.411978	3.191641	1.814180
H	2.783078	2.048841	1.814280
C	-0.435122	-1.869159	0.006080
H	-0.435122	-1.869659	-1.073920
H	0.502978	-2.404259	0.006280
H	-1.268322	-2.556359	0.006380
H	1.768178	2.225041	-1.091020
$end

$rem
JOBTYPE		SP
EXCHANGE	HF
CORRELATION	pRIMP2
BASIS		cc-pvtz
METHOD		rimp2
AUX_BASIS	rimp2-cc-pvtz
SOLVENT_METHOD	PCM
PURECART	11111
SYMMETRY	false
MEM_TOTAL	110000
SCF_CONVERGENCE = 6
THRESH=10
GUI = 2
$end

$solvent
dielectric 4.90
$end
--------------------------------------------------------------

             Standard Nuclear Orientation (Angstroms)
    I     Atom           X                Y                Z
 ----------------------------------------------------------------
    1      C      -0.4351220000    -0.4190590000     0.0060800000
    2      C       0.1053780000     0.2299410000     1.1190800000
    3      C       0.9958780000     1.2984410000     0.8266800000
    4      H      -0.1430220000    -0.0682590000     2.1489800000
    5      C       1.1549780000     1.4890410000    -0.5575200000
    6      S       0.1859780000     0.3268410000    -1.4586200000
    7      C       1.6774780000     2.1163410000     1.8884800000
    8      H       1.3906780000     1.7722410000     2.9010800000
    9      H       1.4119780000     3.1916410000     1.8141800000
   10      H       2.7830780000     2.0488410000     1.8142800000
   11      C      -0.4351220000    -1.8691590000     0.0060800000
   12      H      -0.4351220000    -1.8696590000    -1.0739200000
   13      H       0.5029780000    -2.4042590000     0.0062800000
   14      H      -1.2683220000    -2.5563590000     0.0063800000
   15      H       1.7681780000     2.2250410000    -1.0910200000
 ----------------------------------------------------------------

   10    -629.3898843926      5.35e-07  Convergence criterion met
 Total energy in the final basis set =     -629.3898843926
        RIMP2         total energy =      -630.5741937611 a.u.

                    Orbital Energies (a.u.)
 --------------------------------------------------------------

 Alpha MOs
 -- Occupied --
-91.9780 -11.2689 -11.2613 -11.2475 -11.2381 -11.2277 -11.2121  -8.9783
 -6.6592  -6.6585  -6.6580  -1.1658  -1.0541  -0.9941  -0.9445  -0.8810
 -0.7508  -0.7219  -0.6443  -0.5906  -0.5773  -0.5665  -0.5517  -0.5465
 -0.5137  -0.4719  -0.4642  -0.4416  -0.3351  -0.3056

          Ground-State Mulliken Net Atomic Charges

     Atom                 Charge (a.u.)
  ----------------------------------------
      1 C                    -0.026047
      2 C                    -0.211866
      3 C                     0.030214
      4 H                     0.177633
      5 C                    -0.231805
      6 S                     0.001000
      7 C                    -0.270057
      8 H                     0.102121
      9 H                     0.106948
     10 H                     0.105348
     11 C                    -0.359525
     12 H                     0.113325
     13 H                     0.130669
     14 H                     0.135023
     15 H                     0.197020
  ----------------------------------------
  Sum of atomic charges =     0.000000

                    Cartesian Multipole Moments
 -----------------------------------------------------------------
    Charge (ESU x 10^10)
                -0.0000
    Dipole Moment (Debye)
         X       1.3543      Y       0.2349      Z       1.0269
       Tot       1.7157
    Quadrupole Moments (Debye-Ang)
        XX     -50.4400     XY       4.5945     YY     -46.4154
        XZ       0.2295     YZ       1.2606     ZZ     -48.4900

 Total job time:  15.67s(wall), 744.07s(cpu)
        *  Thank you very much for using Q-Chem.  Have a nice day.  *
