 Q-Chem 5.4, Q-Chem, Inc., Pleasanton, CA (2021)
 Q-Chem 5.4.0 for Intel X86 EM64T Linux

User input:
--------------------------------------------------------------
$molecule
0 1
C	-0.590287	-0.238938	-0.002247
C	0.139613	0.186062	1.110753
C	1.341913	0.885562	0.818353
H	-0.195787	-0.009138	2.140653
C	1.556513	1.010262	-0.565847
S	0.248413	0.249562	-1.466947
C	2.262113	1.420962	1.880153
H	1.874813	1.195762	2.892753
H	2.380313	2.522262	1.805853
H	3.277913	0.979462	1.805953
C	-0.590287	-1.689038	-0.002247
H	0.237013	-1.689538	0.691953
H	-1.193487	-2.224138	0.716253
H	-0.054987	-2.376238	-0.640747
H	2.384513	1.492062	-1.099347
$end

$rem
JOBTYPE		SP
EXCHANGE	HF
CORRELATION	pRIMP2
BASIS		cc-pvtz
METHOD		rimp2
AUX_BASIS	rimp2-cc-pvtz
SOLVENT_METHOD	PCM
PURECART	11111
SYMMETRY	false
MEM_TOTAL	110000
SCF_CONVERGENCE = 6
THRESH=10
GUI = 2
$end

$solvent
dielectric 4.90
$end
--------------------------------------------------------------

             Standard Nuclear Orientation (Angstroms)
    I     Atom           X                Y                Z
 ----------------------------------------------------------------
    1      C      -0.5902870000    -0.2389380000    -0.0022470000
    2      C       0.1396130000     0.1860620000     1.1107530000
    3      C       1.3419130000     0.8855620000     0.8183530000
    4      H      -0.1957870000    -0.0091380000     2.1406530000
    5      C       1.5565130000     1.0102620000    -0.5658470000
    6      S       0.2484130000     0.2495620000    -1.4669470000
    7      C       2.2621130000     1.4209620000     1.8801530000
    8      H       1.8748130000     1.1957620000     2.8927530000
    9      H       2.3803130000     2.5222620000     1.8058530000
   10      H       3.2779130000     0.9794620000     1.8059530000
   11      C      -0.5902870000    -1.6890380000    -0.0022470000
   12      H       0.2370130000    -1.6895380000     0.6919530000
   13      H      -1.1934870000    -2.2241380000     0.7162530000
   14      H      -0.0549870000    -2.3762380000    -0.6407470000
   15      H       2.3845130000     1.4920620000    -1.0993470000
 ----------------------------------------------------------------

   11    -629.3363294184      7.75e-07  Convergence criterion met
 Total energy in the final basis set =     -629.3363294184
        RIMP2         total energy =      -630.5310122372 a.u.

                    Orbital Energies (a.u.)
 --------------------------------------------------------------

 Alpha MOs
 -- Occupied --
-91.9795 -11.2803 -11.2502 -11.2491 -11.2474 -11.2295 -11.2073  -8.9796
 -6.6604  -6.6596  -6.6594  -1.1772  -1.0567  -1.0018  -0.9326  -0.8827
 -0.7493  -0.7326  -0.6436  -0.5913  -0.5802  -0.5728  -0.5531  -0.5454
 -0.5164  -0.4787  -0.4533  -0.4443  -0.3311  -0.2886

          Ground-State Mulliken Net Atomic Charges

     Atom                 Charge (a.u.)
  ----------------------------------------
      1 C                    -0.116672
      2 C                    -0.104318
      3 C                    -0.033743
      4 H                     0.185302
      5 C                    -0.199160
      6 S                     0.029758
      7 C                    -0.266938
      8 H                     0.102442
      9 H                     0.107286
     10 H                     0.103516
     11 C                    -0.378615
     12 H                     0.119240
     13 H                     0.105893
     14 H                     0.146877
     15 H                     0.199133
  ----------------------------------------
  Sum of atomic charges =     0.000000

                    Cartesian Multipole Moments
 -----------------------------------------------------------------
    Charge (ESU x 10^10)
                -0.0000
    Dipole Moment (Debye)
         X       2.7762      Y       0.0264      Z       1.9653
       Tot       3.4015
    Quadrupole Moments (Debye-Ang)
        XX     -48.8002     XY       3.4614     YY     -50.2000
        XZ      -0.6741     YZ      -0.5353     ZZ     -47.5068

 Total job time:  19.64s(wall), 850.88s(cpu)
        *  Thank you very much for using Q-Chem.  Have a nice day.  *
