 Q-Chem 5.4, Q-Chem, Inc., Pleasanton, CA (2021)
 Q-Chem 5.4.0 for Intel X86 EM64T Linux

User input:
--------------------------------------------------------------
$molecule
0 1
C	0.007092	-0.576386	0.002537
C	0.003992	0.268214	1.115537
C	-0.000708	1.659214	0.823137
H	0.005392	-0.119886	2.145437
C	-0.001308	1.907314	-0.561063
S	0.003392	0.394214	-1.462163
C	-0.004308	2.723814	1.884937
H	-0.002808	2.275814	2.897537
H	-0.898808	3.376814	1.810637
H	0.885992	3.382714	1.810737
C	0.007092	-2.026486	0.002537
H	-1.056508	-2.026986	-0.184963
H	0.170192	-2.561586	-0.921363
H	-0.137308	-2.713686	0.823137
H	-0.004608	2.865414	-1.094563
$end

$rem
JOBTYPE		SP
EXCHANGE	HF
CORRELATION	pRIMP2
BASIS		cc-pvtz
METHOD		rimp2
AUX_BASIS	rimp2-cc-pvtz
SOLVENT_METHOD	PCM
PURECART	11111
SYMMETRY	false
MEM_TOTAL	110000
SCF_CONVERGENCE = 6
THRESH=10
GUI = 2
$end

$solvent
dielectric 4.90
$end
--------------------------------------------------------------

             Standard Nuclear Orientation (Angstroms)
    I     Atom           X                Y                Z
 ----------------------------------------------------------------
    1      C       0.0070920000    -0.5763860000     0.0025370000
    2      C       0.0039920000     0.2682140000     1.1155370000
    3      C      -0.0007080000     1.6592140000     0.8231370000
    4      H       0.0053920000    -0.1198860000     2.1454370000
    5      C      -0.0013080000     1.9073140000    -0.5610630000
    6      S       0.0033920000     0.3942140000    -1.4621630000
    7      C      -0.0043080000     2.7238140000     1.8849370000
    8      H      -0.0028080000     2.2758140000     2.8975370000
    9      H      -0.8988080000     3.3768140000     1.8106370000
   10      H       0.8859920000     3.3827140000     1.8107370000
   11      C       0.0070920000    -2.0264860000     0.0025370000
   12      H      -1.0565080000    -2.0269860000    -0.1849630000
   13      H       0.1701920000    -2.5615860000    -0.9213630000
   14      H      -0.1373080000    -2.7136860000     0.8231370000
   15      H      -0.0046080000     2.8654140000    -1.0945630000
 ----------------------------------------------------------------

   10    -629.4254711240      6.90e-07  Convergence criterion met
 Total energy in the final basis set =     -629.4254711240
        RIMP2         total energy =      -630.6001584331 a.u.

                    Orbital Energies (a.u.)
 --------------------------------------------------------------

 Alpha MOs
 -- Occupied --
-91.9794 -11.2856 -11.2496 -11.2470 -11.2264 -11.2230 -11.2220  -8.9792
 -6.6602  -6.6596  -6.6590  -1.1599  -1.0547  -0.9967  -0.9424  -0.8834
 -0.7441  -0.7178  -0.6485  -0.5871  -0.5747  -0.5665  -0.5531  -0.5462
 -0.5070  -0.4958  -0.4662  -0.4566  -0.3385  -0.2897

          Ground-State Mulliken Net Atomic Charges

     Atom                 Charge (a.u.)
  ----------------------------------------
      1 C                     0.057019
      2 C                    -0.302286
      3 C                     0.048085
      4 H                     0.176555
      5 C                    -0.279109
      6 S                     0.000539
      7 C                    -0.273981
      8 H                     0.101545
      9 H                     0.107391
     10 H                     0.107229
     11 C                    -0.382114
     12 H                     0.140543
     13 H                     0.140160
     14 H                     0.164376
     15 H                     0.194049
  ----------------------------------------
  Sum of atomic charges =     0.000000

                    Cartesian Multipole Moments
 -----------------------------------------------------------------
    Charge (ESU x 10^10)
                -0.0000
    Dipole Moment (Debye)
         X      -0.7290      Y      -0.7232      Z       1.2676
       Tot       1.6313
    Quadrupole Moments (Debye-Ang)
        XX     -54.4161     XY       1.5210     YY     -41.6128
        XZ      -0.1423     YZ       0.5568     ZZ     -48.5855

 Total job time:  15.86s(wall), 757.54s(cpu)
        *  Thank you very much for using Q-Chem.  Have a nice day.  *
