 Q-Chem 5.4, Q-Chem, Inc., Pleasanton, CA (2021)
 Q-Chem 5.4.0 for Intel X86 EM64T Linux

User input:
--------------------------------------------------------------
$molecule
0 1
C	-0.518269	-0.335659	0.006088
C	0.126731	0.209641	1.119088
C	1.189331	1.107341	0.826688
H	-0.169669	-0.040859	2.148988
C	1.378931	1.267341	-0.557512
S	0.222931	0.291041	-1.458612
C	2.002531	1.794341	1.888488
H	1.660331	1.505341	2.901088
H	1.927731	2.899441	1.814188
H	3.079531	1.535941	1.814288
C	-0.518269	-1.785759	0.006088
H	-0.705869	-1.786259	-1.057512
H	0.405631	-2.320859	-0.156612
H	-1.338769	-2.472959	0.151088
H	2.110731	1.885641	-1.091012
$end

$rem
JOBTYPE		SP
EXCHANGE	HF
CORRELATION	pRIMP2
BASIS		cc-pvtz
METHOD		rimp2
AUX_BASIS	rimp2-cc-pvtz
SOLVENT_METHOD	PCM
PURECART	11111
SYMMETRY	false
MEM_TOTAL	110000
SCF_CONVERGENCE = 6
THRESH=10
GUI = 2
$end

$solvent
dielectric 4.90
$end
--------------------------------------------------------------

             Standard Nuclear Orientation (Angstroms)
    I     Atom           X                Y                Z
 ----------------------------------------------------------------
    1      C      -0.5182690000    -0.3356590000     0.0060880000
    2      C       0.1267310000     0.2096410000     1.1190880000
    3      C       1.1893310000     1.1073410000     0.8266880000
    4      H      -0.1696690000    -0.0408590000     2.1489880000
    5      C       1.3789310000     1.2673410000    -0.5575120000
    6      S       0.2229310000     0.2910410000    -1.4586120000
    7      C       2.0025310000     1.7943410000     1.8884880000
    8      H       1.6603310000     1.5053410000     2.9010880000
    9      H       1.9277310000     2.8994410000     1.8141880000
   10      H       3.0795310000     1.5359410000     1.8142880000
   11      C      -0.5182690000    -1.7857590000     0.0060880000
   12      H      -0.7058690000    -1.7862590000    -1.0575120000
   13      H       0.4056310000    -2.3208590000    -0.1566120000
   14      H      -1.3387690000    -2.4729590000     0.1510880000
   15      H       2.1107310000     1.8856410000    -1.0910120000
 ----------------------------------------------------------------

   10    -629.3721395565      9.10e-07  Convergence criterion met
 Total energy in the final basis set =     -629.3721395565
        RIMP2         total energy =      -630.5593540557 a.u.

                    Orbital Energies (a.u.)
 --------------------------------------------------------------

 Alpha MOs
 -- Occupied --
-91.9771 -11.2761 -11.2522 -11.2480 -11.2440 -11.2282 -11.2104  -8.9777
 -6.6585  -6.6578  -6.6574  -1.1691  -1.0548  -0.9944  -0.9440  -0.8804
 -0.7528  -0.7245  -0.6433  -0.5917  -0.5783  -0.5672  -0.5513  -0.5462
 -0.5160  -0.4674  -0.4592  -0.4413  -0.3334  -0.3063

          Ground-State Mulliken Net Atomic Charges

     Atom                 Charge (a.u.)
  ----------------------------------------
      1 C                    -0.071510
      2 C                    -0.158694
      3 C                     0.005853
      4 H                     0.179556
      5 C                    -0.208774
      6 S                     0.006063
      7 C                    -0.269282
      8 H                     0.102224
      9 H                     0.106778
     10 H                     0.104619
     11 C                    -0.358858
     12 H                     0.108659
     13 H                     0.123423
     14 H                     0.131793
     15 H                     0.198152
  ----------------------------------------
  Sum of atomic charges =     0.000000

                    Cartesian Multipole Moments
 -----------------------------------------------------------------
    Charge (ESU x 10^10)
                -0.0000
    Dipole Moment (Debye)
         X       1.7855      Y       0.3043      Z       1.1411
       Tot       2.1408
    Quadrupole Moments (Debye-Ang)
        XX     -49.0060     XY       5.0146     YY     -48.2113
        XZ       0.0102     YZ       1.0290     ZZ     -48.2606

 Total job time:  21.47s(wall), 772.94s(cpu)
        *  Thank you very much for using Q-Chem.  Have a nice day.  *
