 Q-Chem 5.4, Q-Chem, Inc., Pleasanton, CA (2021)
 Q-Chem 5.4.0 for Intel X86 EM64T Linux

User input:
--------------------------------------------------------------
$molecule
0 1
C	-0.176909	-0.553870	0.004642
C	0.038691	0.262730	1.117642
C	0.394191	1.607530	0.825242
H	-0.060409	-0.112470	2.147542
C	0.457791	1.847430	-0.558958
S	0.070691	0.384630	-1.460058
C	0.666291	2.636830	1.887042
H	0.551691	2.203730	2.899642
H	-0.028809	3.499130	1.812742
H	1.696791	3.042930	1.812842
C	-0.176909	-2.003970	0.004642
H	0.517291	-2.004470	-0.822658
H	0.541591	-2.539070	0.607842
H	-0.815409	-2.691170	-0.530658
H	0.702591	2.773630	-1.092458
$end

$rem
JOBTYPE		SP
EXCHANGE	HF
CORRELATION	pRIMP2
BASIS		cc-pvtz
METHOD		rimp2
AUX_BASIS	rimp2-cc-pvtz
SOLVENT_METHOD	PCM
PURECART	11111
SYMMETRY	false
MEM_TOTAL	110000
SCF_CONVERGENCE = 6
THRESH=10
GUI = 2
$end

$solvent
dielectric 4.90
$end
--------------------------------------------------------------

             Standard Nuclear Orientation (Angstroms)
    I     Atom           X                Y                Z
 ----------------------------------------------------------------
    1      C      -0.1769090000    -0.5538700000     0.0046420000
    2      C       0.0386910000     0.2627300000     1.1176420000
    3      C       0.3941910000     1.6075300000     0.8252420000
    4      H      -0.0604090000    -0.1124700000     2.1475420000
    5      C       0.4577910000     1.8474300000    -0.5589580000
    6      S       0.0706910000     0.3846300000    -1.4600580000
    7      C       0.6662910000     2.6368300000     1.8870420000
    8      H       0.5516910000     2.2037300000     2.8996420000
    9      H      -0.0288090000     3.4991300000     1.8127420000
   10      H       1.6967910000     3.0429300000     1.8128420000
   11      C      -0.1769090000    -2.0039700000     0.0046420000
   12      H       0.5172910000    -2.0044700000    -0.8226580000
   13      H       0.5415910000    -2.5390700000     0.6078420000
   14      H      -0.8154090000    -2.6911700000    -0.5306580000
   15      H       0.7025910000     2.7736300000    -1.0924580000
 ----------------------------------------------------------------

   10    -629.4202412743      6.07e-07  Convergence criterion met
 Total energy in the final basis set =     -629.4202412743
        RIMP2         total energy =      -630.5972466654 a.u.

                    Orbital Energies (a.u.)
 --------------------------------------------------------------

 Alpha MOs
 -- Occupied --
-91.9779 -11.2787 -11.2561 -11.2471 -11.2284 -11.2270 -11.2186  -8.9780
 -6.6590  -6.6585  -6.6578  -1.1613  -1.0541  -0.9954  -0.9442  -0.8826
 -0.7469  -0.7186  -0.6465  -0.5904  -0.5766  -0.5660  -0.5516  -0.5466
 -0.5082  -0.4902  -0.4644  -0.4498  -0.3388  -0.2977

          Ground-State Mulliken Net Atomic Charges

     Atom                 Charge (a.u.)
  ----------------------------------------
      1 C                     0.051409
      2 C                    -0.291908
      3 C                     0.051001
      4 H                     0.179680
      5 C                    -0.262158
      6 S                    -0.003604
      7 C                    -0.271879
      8 H                     0.101668
      9 H                     0.107446
     10 H                     0.106950
     11 C                    -0.373081
     12 H                     0.125501
     13 H                     0.138321
     14 H                     0.146203
     15 H                     0.194450
  ----------------------------------------
  Sum of atomic charges =     0.000000

                    Cartesian Multipole Moments
 -----------------------------------------------------------------
    Charge (ESU x 10^10)
                -0.0000
    Dipole Moment (Debye)
         X       0.8092      Y      -0.2522      Z       0.9964
       Tot       1.3081
    Quadrupole Moments (Debye-Ang)
        XX     -53.6160     XY       1.3050     YY     -42.6279
        XZ       0.4574     YZ       1.4620     ZZ     -48.7059

 Total job time:  15.63s(wall), 749.07s(cpu)
        *  Thank you very much for using Q-Chem.  Have a nice day.  *
