 Q-Chem 5.4, Q-Chem, Inc., Pleasanton, CA (2021)
 Q-Chem 5.4.0 for Intel X86 EM64T Linux

User input:
--------------------------------------------------------------
$molecule
0 1
C	-0.591272	-0.238938	-0.000871
C	0.138628	0.186062	1.112129
C	1.340928	0.885562	0.819729
H	-0.196772	-0.009138	2.142029
C	1.555528	1.010262	-0.564471
S	0.247428	0.249562	-1.465571
C	2.261128	1.420962	1.881529
H	1.873828	1.195762	2.894129
H	2.379328	2.522262	1.807229
H	3.276928	0.979462	1.807329
C	-0.591272	-1.689038	-0.000871
H	0.423628	-1.689538	0.368529
H	-0.912372	-2.224138	0.880629
H	-0.306572	-2.376238	-0.783871
H	2.383528	1.492062	-1.097971
$end

$rem
JOBTYPE		SP
EXCHANGE	HF
CORRELATION	pRIMP2
BASIS		cc-pvtz
METHOD		rimp2
AUX_BASIS	rimp2-cc-pvtz
SOLVENT_METHOD	PCM
PURECART	11111
SYMMETRY	false
MEM_TOTAL	110000
SCF_CONVERGENCE = 6
THRESH=10
GUI = 2
$end

$solvent
dielectric 4.90
$end
--------------------------------------------------------------

             Standard Nuclear Orientation (Angstroms)
    I     Atom           X                Y                Z
 ----------------------------------------------------------------
    1      C      -0.5912720000    -0.2389380000    -0.0008710000
    2      C       0.1386280000     0.1860620000     1.1121290000
    3      C       1.3409280000     0.8855620000     0.8197290000
    4      H      -0.1967720000    -0.0091380000     2.1420290000
    5      C       1.5555280000     1.0102620000    -0.5644710000
    6      S       0.2474280000     0.2495620000    -1.4655710000
    7      C       2.2611280000     1.4209620000     1.8815290000
    8      H       1.8738280000     1.1957620000     2.8941290000
    9      H       2.3793280000     2.5222620000     1.8072290000
   10      H       3.2769280000     0.9794620000     1.8073290000
   11      C      -0.5912720000    -1.6890380000    -0.0008710000
   12      H       0.4236280000    -1.6895380000     0.3685290000
   13      H      -0.9123720000    -2.2241380000     0.8806290000
   14      H      -0.3065720000    -2.3762380000    -0.7838710000
   15      H       2.3835280000     1.4920620000    -1.0979710000
 ----------------------------------------------------------------

   11    -629.3450320221      6.77e-07  Convergence criterion met
 Total energy in the final basis set =     -629.3450320221
        RIMP2         total energy =      -630.5385235608 a.u.

                    Orbital Energies (a.u.)
 --------------------------------------------------------------

 Alpha MOs
 -- Occupied --
-91.9790 -11.2793 -11.2546 -11.2514 -11.2442 -11.2296 -11.2122  -8.9794
 -6.6602  -6.6594  -6.6592  -1.1778  -1.0577  -1.0005  -0.9342  -0.8827
 -0.7506  -0.7307  -0.6443  -0.5918  -0.5820  -0.5706  -0.5532  -0.5459
 -0.5130  -0.4860  -0.4591  -0.4406  -0.3353  -0.2880

          Ground-State Mulliken Net Atomic Charges

     Atom                 Charge (a.u.)
  ----------------------------------------
      1 C                    -0.099033
      2 C                    -0.126220
      3 C                    -0.023687
      4 H                     0.182950
      5 C                    -0.206287
      6 S                     0.029194
      7 C                    -0.266797
      8 H                     0.102908
      9 H                     0.107565
     10 H                     0.103979
     11 C                    -0.370403
     12 H                     0.111589
     13 H                     0.110673
     14 H                     0.144977
     15 H                     0.198592
  ----------------------------------------
  Sum of atomic charges =     0.000000

                    Cartesian Multipole Moments
 -----------------------------------------------------------------
    Charge (ESU x 10^10)
                -0.0000
    Dipole Moment (Debye)
         X       2.7158      Y      -0.0763      Z       1.7621
       Tot       3.2382
    Quadrupole Moments (Debye-Ang)
        XX     -48.9597     XY       3.7023     YY     -49.9354
        XZ      -0.3960     YZ      -0.2822     ZZ     -47.5225

 Total job time:  17.36s(wall), 846.60s(cpu)
        *  Thank you very much for using Q-Chem.  Have a nice day.  *
