 Q-Chem 5.4, Q-Chem, Inc., Pleasanton, CA (2021)
 Q-Chem 5.4.0 for Intel X86 EM64T Linux

User input:
--------------------------------------------------------------
$molecule
0 1
C	-0.279959	-0.513776	0.000852
C	0.074241	0.253024	1.113852
C	0.657841	1.515624	0.821452
H	-0.088659	-0.099276	2.143752
C	0.762041	1.740824	-0.562748
S	0.126941	0.367424	-1.463848
C	1.104441	2.482024	1.883252
H	0.916441	2.075424	2.895852
H	0.569641	3.451924	1.808952
H	2.189841	2.703024	1.809052
C	-0.279959	-1.963876	0.000852
H	-1.343559	-1.964376	0.188452
H	-0.442659	-2.498976	-0.923048
H	-0.134959	-2.651076	0.821352
H	1.163941	2.610424	-1.096248
$end

$rem
JOBTYPE		SP
EXCHANGE	HF
CORRELATION	pRIMP2
BASIS		cc-pvtz
METHOD		rimp2
AUX_BASIS	rimp2-cc-pvtz
SOLVENT_METHOD	PCM
PURECART	11111
SYMMETRY	false
MEM_TOTAL	110000
SCF_CONVERGENCE = 6
THRESH=10
GUI = 2
$end

$solvent
dielectric 4.90
$end
--------------------------------------------------------------

             Standard Nuclear Orientation (Angstroms)
    I     Atom           X                Y                Z
 ----------------------------------------------------------------
    1      C      -0.2799590000    -0.5137760000     0.0008520000
    2      C       0.0742410000     0.2530240000     1.1138520000
    3      C       0.6578410000     1.5156240000     0.8214520000
    4      H      -0.0886590000    -0.0992760000     2.1437520000
    5      C       0.7620410000     1.7408240000    -0.5627480000
    6      S       0.1269410000     0.3674240000    -1.4638480000
    7      C       1.1044410000     2.4820240000     1.8832520000
    8      H       0.9164410000     2.0754240000     2.8958520000
    9      H       0.5696410000     3.4519240000     1.8089520000
   10      H       2.1898410000     2.7030240000     1.8090520000
   11      C      -0.2799590000    -1.9638760000     0.0008520000
   12      H      -1.3435590000    -1.9643760000     0.1884520000
   13      H      -0.4426590000    -2.4989760000    -0.9230480000
   14      H      -0.1349590000    -2.6510760000     0.8213520000
   15      H       1.1639410000     2.6104240000    -1.0962480000
 ----------------------------------------------------------------

   10    -629.4082547394      5.85e-07  Convergence criterion met
 Total energy in the final basis set =     -629.4082547394
        RIMP2         total energy =      -630.5879441562 a.u.

                    Orbital Energies (a.u.)
 --------------------------------------------------------------

 Alpha MOs
 -- Occupied --
-91.9774 -11.2781 -11.2541 -11.2474 -11.2274 -11.2268 -11.2180  -8.9773
 -6.6583  -6.6577  -6.6571  -1.1607  -1.0532  -0.9968  -0.9411  -0.8838
 -0.7439  -0.7199  -0.6466  -0.5852  -0.5736  -0.5663  -0.5558  -0.5441
 -0.5107  -0.4953  -0.4585  -0.4524  -0.3373  -0.2886

          Ground-State Mulliken Net Atomic Charges

     Atom                 Charge (a.u.)
  ----------------------------------------
      1 C                     0.030883
      2 C                    -0.289570
      3 C                     0.050109
      4 H                     0.174845
      5 C                    -0.268000
      6 S                     0.006462
      7 C                    -0.270970
      8 H                     0.101560
      9 H                     0.107163
     10 H                     0.106754
     11 C                    -0.378705
     12 H                     0.135283
     13 H                     0.139903
     14 H                     0.161457
     15 H                     0.192825
  ----------------------------------------
  Sum of atomic charges =     0.000000

                    Cartesian Multipole Moments
 -----------------------------------------------------------------
    Charge (ESU x 10^10)
                -0.0000
    Dipole Moment (Debye)
         X      -0.1538      Y      -0.4750      Z       1.5940
       Tot       1.6704
    Quadrupole Moments (Debye-Ang)
        XX     -52.5921     XY       4.8754     YY     -43.6622
        XZ       0.2000     YZ      -0.0250     ZZ     -48.4102

 Total job time:  15.71s(wall), 736.16s(cpu)
        *  Thank you very much for using Q-Chem.  Have a nice day.  *
