 Q-Chem 5.4, Q-Chem, Inc., Pleasanton, CA (2021)
 Q-Chem 5.4.0 for Intel X86 EM64T Linux

User input:
--------------------------------------------------------------
$molecule
0 1
C	-0.231309	-0.536244	0.005925
C	0.054691	0.258456	1.118925
C	0.525991	1.567156	0.826525
H	-0.076809	-0.106644	2.148825
C	0.610291	1.800556	-0.557675
S	0.097191	0.377056	-1.458775
C	0.886791	2.568756	1.888325
H	0.734891	2.147356	2.900925
H	0.269491	3.488456	1.814025
H	1.948691	2.883556	1.814125
C	-0.231309	-1.986344	0.005925
H	-0.043809	-1.986844	-1.057675
H	0.692591	-2.521444	0.169025
H	-1.051909	-2.673544	-0.138475
H	0.934791	2.701956	-1.091175
$end

$rem
JOBTYPE		SP
EXCHANGE	HF
CORRELATION	pRIMP2
BASIS		cc-pvtz
METHOD		rimp2
AUX_BASIS	rimp2-cc-pvtz
SOLVENT_METHOD	PCM
PURECART	11111
SYMMETRY	false
MEM_TOTAL	110000
SCF_CONVERGENCE = 6
THRESH=10
GUI = 2
$end

$solvent
dielectric 4.90
$end
--------------------------------------------------------------

             Standard Nuclear Orientation (Angstroms)
    I     Atom           X                Y                Z
 ----------------------------------------------------------------
    1      C      -0.2313090000    -0.5362440000     0.0059250000
    2      C       0.0546910000     0.2584560000     1.1189250000
    3      C       0.5259910000     1.5671560000     0.8265250000
    4      H      -0.0768090000    -0.1066440000     2.1488250000
    5      C       0.6102910000     1.8005560000    -0.5576750000
    6      S       0.0971910000     0.3770560000    -1.4587750000
    7      C       0.8867910000     2.5687560000     1.8883250000
    8      H       0.7348910000     2.1473560000     2.9009250000
    9      H       0.2694910000     3.4884560000     1.8140250000
   10      H       1.9486910000     2.8835560000     1.8141250000
   11      C      -0.2313090000    -1.9863440000     0.0059250000
   12      H      -0.0438090000    -1.9868440000    -1.0576750000
   13      H       0.6925910000    -2.5214440000     0.1690250000
   14      H      -1.0519090000    -2.6735440000    -0.1384750000
   15      H       0.9347910000     2.7019560000    -1.0911750000
 ----------------------------------------------------------------

   10    -629.4144595432      5.33e-07  Convergence criterion met
 Total energy in the final basis set =     -629.4144595432
        RIMP2         total energy =      -630.5935924532 a.u.

                    Orbital Energies (a.u.)
 --------------------------------------------------------------

 Alpha MOs
 -- Occupied --
-91.9799 -11.2726 -11.2603 -11.2472 -11.2308 -11.2272 -11.2158  -8.9798
 -6.6607  -6.6602  -6.6596  -1.1619  -1.0536  -0.9948  -0.9453  -0.8823
 -0.7483  -0.7190  -0.6463  -0.5908  -0.5760  -0.5658  -0.5529  -0.5465
 -0.5098  -0.4842  -0.4645  -0.4441  -0.3376  -0.3044

          Ground-State Mulliken Net Atomic Charges

     Atom                 Charge (a.u.)
  ----------------------------------------
      1 C                     0.034822
      2 C                    -0.263522
      3 C                     0.045476
      4 H                     0.178270
      5 C                    -0.255737
      6 S                    -0.002822
      7 C                    -0.271933
      8 H                     0.102084
      9 H                     0.106993
     10 H                     0.106582
     11 C                    -0.365659
     12 H                     0.114791
     13 H                     0.132066
     14 H                     0.142649
     15 H                     0.195942
  ----------------------------------------
  Sum of atomic charges =     0.000000

                    Cartesian Multipole Moments
 -----------------------------------------------------------------
    Charge (ESU x 10^10)
                -0.0000
    Dipole Moment (Debye)
         X       0.6833      Y       0.0569      Z       0.9076
       Tot       1.1374
    Quadrupole Moments (Debye-Ang)
        XX     -52.8324     XY       2.6818     YY     -43.3237
        XZ       0.3117     YZ       1.5320     ZZ     -48.7604

 Total job time:  18.47s(wall), 768.56s(cpu)
        *  Thank you very much for using Q-Chem.  Have a nice day.  *
