 Q-Chem 5.4, Q-Chem, Inc., Pleasanton, CA (2021)
 Q-Chem 5.4.0 for Intel X86 EM64T Linux

User input:
--------------------------------------------------------------
$molecule
0 1
C	0.004414	-0.576386	0.005666
C	0.001314	0.268214	1.118666
C	-0.003386	1.659214	0.826266
H	0.002714	-0.119886	2.148566
C	-0.003986	1.907314	-0.557934
S	0.000714	0.394214	-1.459034
C	-0.006986	2.723814	1.888066
H	-0.005486	2.275814	2.900666
H	-0.901486	3.376814	1.813766
H	0.883314	3.382714	1.813866
C	0.004414	-2.026486	0.005666
H	-0.535586	-2.026986	-0.929634
H	0.817014	-2.561586	-0.463234
H	-0.716986	-2.713686	0.422566
H	-0.007286	2.865414	-1.091434
$end

$rem
JOBTYPE		SP
EXCHANGE	HF
CORRELATION	pRIMP2
BASIS		cc-pvtz
METHOD		rimp2
AUX_BASIS	rimp2-cc-pvtz
SOLVENT_METHOD	PCM
PURECART	11111
SYMMETRY	false
MEM_TOTAL	110000
SCF_CONVERGENCE = 6
THRESH=10
GUI = 2
$end

$solvent
dielectric 4.90
$end
--------------------------------------------------------------

             Standard Nuclear Orientation (Angstroms)
    I     Atom           X                Y                Z
 ----------------------------------------------------------------
    1      C       0.0044140000    -0.5763860000     0.0056660000
    2      C       0.0013140000     0.2682140000     1.1186660000
    3      C      -0.0033860000     1.6592140000     0.8262660000
    4      H       0.0027140000    -0.1198860000     2.1485660000
    5      C      -0.0039860000     1.9073140000    -0.5579340000
    6      S       0.0007140000     0.3942140000    -1.4590340000
    7      C      -0.0069860000     2.7238140000     1.8880660000
    8      H      -0.0054860000     2.2758140000     2.9006660000
    9      H      -0.9014860000     3.3768140000     1.8137660000
   10      H       0.8833140000     3.3827140000     1.8138660000
   11      C       0.0044140000    -2.0264860000     0.0056660000
   12      H      -0.5355860000    -2.0269860000    -0.9296340000
   13      H       0.8170140000    -2.5615860000    -0.4632340000
   14      H      -0.7169860000    -2.7136860000     0.4225660000
   15      H      -0.0072860000     2.8654140000    -1.0914340000
 ----------------------------------------------------------------

   10    -629.4227556366      5.75e-07  Convergence criterion met
 Total energy in the final basis set =     -629.4227556366
        RIMP2         total energy =      -630.5994171640 a.u.

                    Orbital Energies (a.u.)
 --------------------------------------------------------------

 Alpha MOs
 -- Occupied --
-91.9803 -11.2778 -11.2565 -11.2470 -11.2273 -11.2268 -11.2180  -8.9801
 -6.6611  -6.6606  -6.6600  -1.1605  -1.0537  -0.9954  -0.9452  -0.8829
 -0.7469  -0.7180  -0.6476  -0.5902  -0.5752  -0.5654  -0.5536  -0.5462
 -0.5083  -0.4885  -0.4651  -0.4485  -0.3386  -0.3004

          Ground-State Mulliken Net Atomic Charges

     Atom                 Charge (a.u.)
  ----------------------------------------
      1 C                     0.048462
      2 C                    -0.268019
      3 C                     0.038832
      4 H                     0.179953
      5 C                    -0.259676
      6 S                    -0.002756
      7 C                    -0.273417
      8 H                     0.101885
      9 H                     0.107015
     10 H                     0.107105
     11 C                    -0.371245
     12 H                     0.116721
     13 H                     0.127152
     14 H                     0.152595
     15 H                     0.195396
  ----------------------------------------
  Sum of atomic charges =     0.000000

                    Cartesian Multipole Moments
 -----------------------------------------------------------------
    Charge (ESU x 10^10)
                -0.0000
    Dipole Moment (Debye)
         X      -0.3291      Y      -0.1415      Z       0.9093
       Tot       0.9773
    Quadrupole Moments (Debye-Ang)
        XX     -53.8764     XY       0.8094     YY     -41.9756
        XZ      -0.2799     YZ       1.4247     ZZ     -48.8009

 Total job time:  18.30s(wall), 767.94s(cpu)
        *  Thank you very much for using Q-Chem.  Have a nice day.  *
