 Q-Chem 5.4, Q-Chem, Inc., Pleasanton, CA (2021)
 Q-Chem 5.4.0 for Intel X86 EM64T Linux

User input:
--------------------------------------------------------------
$molecule
0 1
C	-0.170020	-0.553870	0.004709
C	0.045580	0.262730	1.117709
C	0.401080	1.607530	0.825309
H	-0.053520	-0.112470	2.147609
C	0.464680	1.847430	-0.558891
S	0.077580	0.384630	-1.459991
C	0.673180	2.636830	1.887109
H	0.558580	2.203730	2.899709
H	-0.021920	3.499130	1.812809
H	1.703680	3.042930	1.812909
C	-0.170020	-2.003970	0.004709
H	-0.997320	-2.004470	-0.689491
H	0.433180	-2.539070	-0.713791
H	-0.705320	-2.691170	0.643209
H	0.709480	2.773630	-1.092391
$end

$rem
JOBTYPE		SP
EXCHANGE	HF
CORRELATION	pRIMP2
BASIS		cc-pvtz
METHOD		rimp2
AUX_BASIS	rimp2-cc-pvtz
SOLVENT_METHOD	PCM
PURECART	11111
SYMMETRY	false
MEM_TOTAL	110000
SCF_CONVERGENCE = 6
THRESH=10
GUI = 2
$end

$solvent
dielectric 4.90
$end
--------------------------------------------------------------

             Standard Nuclear Orientation (Angstroms)
    I     Atom           X                Y                Z
 ----------------------------------------------------------------
    1      C      -0.1700200000    -0.5538700000     0.0047090000
    2      C       0.0455800000     0.2627300000     1.1177090000
    3      C       0.4010800000     1.6075300000     0.8253090000
    4      H      -0.0535200000    -0.1124700000     2.1476090000
    5      C       0.4646800000     1.8474300000    -0.5588910000
    6      S       0.0775800000     0.3846300000    -1.4599910000
    7      C       0.6731800000     2.6368300000     1.8871090000
    8      H       0.5585800000     2.2037300000     2.8997090000
    9      H      -0.0219200000     3.4991300000     1.8128090000
   10      H       1.7036800000     3.0429300000     1.8129090000
   11      C      -0.1700200000    -2.0039700000     0.0047090000
   12      H      -0.9973200000    -2.0044700000    -0.6894910000
   13      H       0.4331800000    -2.5390700000    -0.7137910000
   14      H      -0.7053200000    -2.6911700000     0.6432090000
   15      H       0.7094800000     2.7736300000    -1.0923910000
 ----------------------------------------------------------------

   10    -629.4180880640      5.80e-07  Convergence criterion met
 Total energy in the final basis set =     -629.4180880640
        RIMP2         total energy =      -630.5952229381 a.u.

                    Orbital Energies (a.u.)
 --------------------------------------------------------------

 Alpha MOs
 -- Occupied --
-91.9798 -11.2786 -11.2553 -11.2471 -11.2267 -11.2263 -11.2186  -8.9796
 -6.6606  -6.6601  -6.6595  -1.1605  -1.0536  -0.9957  -0.9442  -0.8831
 -0.7460  -0.7182  -0.6469  -0.5892  -0.5743  -0.5668  -0.5529  -0.5458
 -0.5090  -0.4896  -0.4638  -0.4522  -0.3385  -0.2949

          Ground-State Mulliken Net Atomic Charges

     Atom                 Charge (a.u.)
  ----------------------------------------
      1 C                     0.022110
      2 C                    -0.255599
      3 C                     0.032267
      4 H                     0.179731
      5 C                    -0.256039
      6 S                    -0.005404
      7 C                    -0.273338
      8 H                     0.101576
      9 H                     0.107062
     10 H                     0.106943
     11 C                    -0.372422
     12 H                     0.123288
     13 H                     0.135500
     14 H                     0.159121
     15 H                     0.195204
  ----------------------------------------
  Sum of atomic charges =     0.000000

                    Cartesian Multipole Moments
 -----------------------------------------------------------------
    Charge (ESU x 10^10)
                -0.0000
    Dipole Moment (Debye)
         X      -0.1639      Y      -0.2984      Z       1.0394
       Tot       1.0938
    Quadrupole Moments (Debye-Ang)
        XX     -53.4255     XY       3.4220     YY     -42.4927
        XZ      -0.2170     YZ       1.0724     ZZ     -48.6595

 Total job time:  15.49s(wall), 747.02s(cpu)
        *  Thank you very much for using Q-Chem.  Have a nice day.  *
