 Q-Chem 5.4, Q-Chem, Inc., Pleasanton, CA (2021)
 Q-Chem 5.4.0 for Intel X86 EM64T Linux

User input:
--------------------------------------------------------------
$molecule
0 1
C	-0.435029	-0.419059	-0.003627
C	0.105471	0.229941	1.109373
C	0.995971	1.298441	0.816973
H	-0.142929	-0.068259	2.139273
C	1.155071	1.489041	-0.567227
S	0.186071	0.326841	-1.468327
C	1.677571	2.116341	1.878773
H	1.390771	1.772241	2.891373
H	1.412071	3.191641	1.804473
H	2.783171	2.048841	1.804573
C	-0.435029	-1.869159	-0.003627
H	-0.247429	-1.869659	1.059973
H	-1.358929	-2.404259	0.159073
H	0.385471	-2.556359	-0.148627
H	1.768271	2.225041	-1.100727
$end

$rem
JOBTYPE		SP
EXCHANGE	HF
CORRELATION	pRIMP2
BASIS		cc-pvtz
METHOD		rimp2
AUX_BASIS	rimp2-cc-pvtz
SOLVENT_METHOD	PCM
PURECART	11111
SYMMETRY	false
MEM_TOTAL	110000
SCF_CONVERGENCE = 6
THRESH=10
GUI = 2
$end

$solvent
dielectric 4.90
$end
--------------------------------------------------------------

             Standard Nuclear Orientation (Angstroms)
    I     Atom           X                Y                Z
 ----------------------------------------------------------------
    1      C      -0.4350290000    -0.4190590000    -0.0036270000
    2      C       0.1054710000     0.2299410000     1.1093730000
    3      C       0.9959710000     1.2984410000     0.8169730000
    4      H      -0.1429290000    -0.0682590000     2.1392730000
    5      C       1.1550710000     1.4890410000    -0.5672270000
    6      S       0.1860710000     0.3268410000    -1.4683270000
    7      C       1.6775710000     2.1163410000     1.8787730000
    8      H       1.3907710000     1.7722410000     2.8913730000
    9      H       1.4120710000     3.1916410000     1.8044730000
   10      H       2.7831710000     2.0488410000     1.8045730000
   11      C      -0.4350290000    -1.8691590000    -0.0036270000
   12      H      -0.2474290000    -1.8696590000     1.0599730000
   13      H      -1.3589290000    -2.4042590000     0.1590730000
   14      H       0.3854710000    -2.5563590000    -0.1486270000
   15      H       1.7682710000     2.2250410000    -1.1007270000
 ----------------------------------------------------------------

   10    -629.3897137252      5.93e-07  Convergence criterion met
 Total energy in the final basis set =     -629.3897137252
        RIMP2         total energy =      -630.5748914594 a.u.

                    Orbital Energies (a.u.)
 --------------------------------------------------------------

 Alpha MOs
 -- Occupied --
-91.9749 -11.2680 -11.2634 -11.2480 -11.2414 -11.2284 -11.2109  -8.9752
 -6.6560  -6.6554  -6.6550  -1.1661  -1.0528  -0.9998  -0.9356  -0.8846
 -0.7442  -0.7283  -0.6446  -0.5879  -0.5808  -0.5705  -0.5548  -0.5412
 -0.5159  -0.4697  -0.4671  -0.4362  -0.3343  -0.3046

          Ground-State Mulliken Net Atomic Charges

     Atom                 Charge (a.u.)
  ----------------------------------------
      1 C                    -0.024813
      2 C                    -0.212649
      3 C                     0.019648
      4 H                     0.175641
      5 C                    -0.225902
      6 S                     0.002586
      7 C                    -0.269315
      8 H                     0.101431
      9 H                     0.107054
     10 H                     0.105932
     11 C                    -0.359616
     12 H                     0.119874
     13 H                     0.114262
     14 H                     0.151374
     15 H                     0.194493
  ----------------------------------------
  Sum of atomic charges =     0.000000

                    Cartesian Multipole Moments
 -----------------------------------------------------------------
    Charge (ESU x 10^10)
                -0.0000
    Dipole Moment (Debye)
         X       1.4346      Y       0.1910      Z       2.2466
       Tot       2.6724
    Quadrupole Moments (Debye-Ang)
        XX     -50.5440     XY       4.0112     YY     -46.5273
        XZ      -0.3283     YZ      -1.0110     ZZ     -48.5868

 Total job time:  15.97s(wall), 764.34s(cpu)
        *  Thank you very much for using Q-Chem.  Have a nice day.  *
