 Q-Chem 5.4, Q-Chem, Inc., Pleasanton, CA (2021)
 Q-Chem 5.4.0 for Intel X86 EM64T Linux

User input:
--------------------------------------------------------------
$molecule
0 1
C	-0.120271	-0.566489	0.002446
C	0.023329	0.265811	1.115446
C	0.260229	1.636511	0.823046
H	-0.042671	-0.116589	2.145346
C	0.302729	1.881011	-0.561154
S	0.044629	0.390011	-1.462254
C	0.441629	2.685511	1.884846
H	0.365229	2.244111	2.897446
H	-0.325971	3.484011	1.810546
H	1.432729	3.179911	1.810646
C	-0.120271	-2.016589	0.002446
H	0.894629	-2.017089	-0.366954
H	0.200429	-2.551689	0.884046
H	-0.405571	-2.703789	-0.780354
H	0.465829	2.825011	-1.094654
$end

$rem
JOBTYPE		SP
EXCHANGE	HF
CORRELATION	pRIMP2
BASIS		cc-pvtz
METHOD		rimp2
AUX_BASIS	rimp2-cc-pvtz
SOLVENT_METHOD	PCM
PURECART	11111
SYMMETRY	false
MEM_TOTAL	110000
SCF_CONVERGENCE = 6
THRESH=10
GUI = 2
$end

$solvent
dielectric 4.90
$end
--------------------------------------------------------------

             Standard Nuclear Orientation (Angstroms)
    I     Atom           X                Y                Z
 ----------------------------------------------------------------
    1      C      -0.1202710000    -0.5664890000     0.0024460000
    2      C       0.0233290000     0.2658110000     1.1154460000
    3      C       0.2602290000     1.6365110000     0.8230460000
    4      H      -0.0426710000    -0.1165890000     2.1453460000
    5      C       0.3027290000     1.8810110000    -0.5611540000
    6      S       0.0446290000     0.3900110000    -1.4622540000
    7      C       0.4416290000     2.6855110000     1.8848460000
    8      H       0.3652290000     2.2441110000     2.8974460000
    9      H      -0.3259710000     3.4840110000     1.8105460000
   10      H       1.4327290000     3.1799110000     1.8106460000
   11      C      -0.1202710000    -2.0165890000     0.0024460000
   12      H       0.8946290000    -2.0170890000    -0.3669540000
   13      H       0.2004290000    -2.5516890000     0.8840460000
   14      H      -0.4055710000    -2.7037890000    -0.7803540000
   15      H       0.4658290000     2.8250110000    -1.0946540000
 ----------------------------------------------------------------

   10    -629.4254602093      6.79e-07  Convergence criterion met
 Total energy in the final basis set =     -629.4254602093
        RIMP2         total energy =      -630.6005150289 a.u.

                    Orbital Energies (a.u.)
 --------------------------------------------------------------

 Alpha MOs
 -- Occupied --
-91.9778 -11.2849 -11.2510 -11.2471 -11.2267 -11.2243 -11.2229  -8.9777
 -6.6587  -6.6582  -6.6575  -1.1607  -1.0548  -0.9966  -0.9423  -0.8833
 -0.7449  -0.7183  -0.6468  -0.5895  -0.5767  -0.5675  -0.5505  -0.5466
 -0.5069  -0.4951  -0.4663  -0.4550  -0.3390  -0.2912

          Ground-State Mulliken Net Atomic Charges

     Atom                 Charge (a.u.)
  ----------------------------------------
      1 C                     0.059139
      2 C                    -0.311571
      3 C                     0.054300
      4 H                     0.178212
      5 C                    -0.275420
      6 S                    -0.004448
      7 C                    -0.272832
      8 H                     0.101460
      9 H                     0.107403
     10 H                     0.107408
     11 C                    -0.375106
     12 H                     0.139732
     13 H                     0.142292
     14 H                     0.155925
     15 H                     0.193507
  ----------------------------------------
  Sum of atomic charges =     0.000000

                    Cartesian Multipole Moments
 -----------------------------------------------------------------
    Charge (ESU x 10^10)
                -0.0000
    Dipole Moment (Debye)
         X       0.8758      Y      -0.6526      Z       1.2067
       Tot       1.6276
    Quadrupole Moments (Debye-Ang)
        XX     -54.2609     XY       0.1091     YY     -41.9320
        XZ       0.3018     YZ       1.0071     ZZ     -48.6378

 Total job time:  17.69s(wall), 762.60s(cpu)
        *  Thank you very much for using Q-Chem.  Have a nice day.  *
