 Q-Chem 5.4, Q-Chem, Inc., Pleasanton, CA (2021)
 Q-Chem 5.4.0 for Intel X86 EM64T Linux

User input:
--------------------------------------------------------------
$molecule
0 1
C	-0.057265	-0.574004	0.006080
C	0.013235	0.267696	1.119080
C	0.129835	1.653696	0.826680
H	-0.019165	-0.119104	2.148980
C	0.150835	1.900996	-0.557520
S	0.023635	0.393196	-1.458620
C	0.219035	2.714596	1.888480
H	0.181435	2.268196	2.901080
H	-0.615265	3.443096	1.814180
H	1.163335	3.293496	1.814280
C	-0.057265	-2.024104	0.006080
H	-0.057265	-2.024604	-1.073920
H	0.880835	-2.559204	0.006280
H	-0.890465	-2.711304	0.006380
H	0.231035	2.855696	-1.091020
$end

$rem
JOBTYPE		SP
EXCHANGE	HF
CORRELATION	pRIMP2
BASIS		cc-pvtz
METHOD		rimp2
AUX_BASIS	rimp2-cc-pvtz
SOLVENT_METHOD	PCM
PURECART	11111
SYMMETRY	false
MEM_TOTAL	110000
SCF_CONVERGENCE = 6
THRESH=10
GUI = 2
$end

$solvent
dielectric 4.90
$end
--------------------------------------------------------------

             Standard Nuclear Orientation (Angstroms)
    I     Atom           X                Y                Z
 ----------------------------------------------------------------
    1      C      -0.0572650000    -0.5740040000     0.0060800000
    2      C       0.0132350000     0.2676960000     1.1190800000
    3      C       0.1298350000     1.6536960000     0.8266800000
    4      H      -0.0191650000    -0.1191040000     2.1489800000
    5      C       0.1508350000     1.9009960000    -0.5575200000
    6      S       0.0236350000     0.3931960000    -1.4586200000
    7      C       0.2190350000     2.7145960000     1.8884800000
    8      H       0.1814350000     2.2681960000     2.9010800000
    9      H      -0.6152650000     3.4430960000     1.8141800000
   10      H       1.1633350000     3.2934960000     1.8142800000
   11      C      -0.0572650000    -2.0241040000     0.0060800000
   12      H      -0.0572650000    -2.0246040000    -1.0739200000
   13      H       0.8808350000    -2.5592040000     0.0062800000
   14      H      -0.8904650000    -2.7113040000     0.0063800000
   15      H       0.2310350000     2.8556960000    -1.0910200000
 ----------------------------------------------------------------

   10    -629.4215551664      5.35e-07  Convergence criterion met
 Total energy in the final basis set =     -629.4215551664
        RIMP2         total energy =      -630.5991640609 a.u.

                    Orbital Energies (a.u.)
 --------------------------------------------------------------

 Alpha MOs
 -- Occupied --
-91.9812 -11.2750 -11.2585 -11.2472 -11.2288 -11.2270 -11.2168  -8.9809
 -6.6618  -6.6614  -6.6607  -1.1607  -1.0534  -0.9952  -0.9457  -0.8828
 -0.7478  -0.7182  -0.6472  -0.5910  -0.5753  -0.5658  -0.5536  -0.5463
 -0.5086  -0.4867  -0.4650  -0.4444  -0.3380  -0.3050

          Ground-State Mulliken Net Atomic Charges

     Atom                 Charge (a.u.)
  ----------------------------------------
      1 C                     0.051099
      2 C                    -0.259873
      3 C                     0.039252
      4 H                     0.179210
      5 C                    -0.259806
      6 S                    -0.002171
      7 C                    -0.273173
      8 H                     0.102084
      9 H                     0.106842
     10 H                     0.106868
     11 C                    -0.368227
     12 H                     0.111776
     13 H                     0.126573
     14 H                     0.143521
     15 H                     0.196027
  ----------------------------------------
  Sum of atomic charges =     0.000000

                    Cartesian Multipole Moments
 -----------------------------------------------------------------
    Charge (ESU x 10^10)
                -0.0000
    Dipole Moment (Debye)
         X       0.1432      Y       0.0331      Z       0.8630
       Tot       0.8755
    Quadrupole Moments (Debye-Ang)
        XX     -53.6284     XY       0.8336     YY     -42.1856
        XZ       0.0641     YZ       1.5816     ZZ     -48.8623

 Total job time:  15.96s(wall), 772.27s(cpu)
        *  Thank you very much for using Q-Chem.  Have a nice day.  *
