 Q-Chem 5.4, Q-Chem, Inc., Pleasanton, CA (2021)
 Q-Chem 5.4.0 for Intel X86 EM64T Linux

User input:
--------------------------------------------------------------
$molecule
0 1
C	-0.051944	-0.574004	0.001702
C	0.018556	0.267696	1.114702
C	0.135156	1.653696	0.822302
H	-0.013844	-0.119104	2.144602
C	0.156156	1.900996	-0.561898
S	0.028956	0.393196	-1.462998
C	0.224356	2.714596	1.884102
H	0.186756	2.268196	2.896702
H	-0.609944	3.443096	1.809802
H	1.168656	3.293496	1.809902
C	-0.051944	-2.024104	0.001702
H	-1.131944	-2.024604	0.001702
H	-0.051744	-2.559204	-0.936398
H	-0.051644	-2.711304	0.834902
H	0.236356	2.855696	-1.095398
$end

$rem
JOBTYPE		SP
EXCHANGE	HF
CORRELATION	pRIMP2
BASIS		cc-pvtz
METHOD		rimp2
AUX_BASIS	rimp2-cc-pvtz
SOLVENT_METHOD	PCM
PURECART	11111
SYMMETRY	false
MEM_TOTAL	110000
SCF_CONVERGENCE = 6
THRESH=10
GUI = 2
$end

$solvent
dielectric 4.90
$end
--------------------------------------------------------------

             Standard Nuclear Orientation (Angstroms)
    I     Atom           X                Y                Z
 ----------------------------------------------------------------
    1      C      -0.0519440000    -0.5740040000     0.0017020000
    2      C       0.0185560000     0.2676960000     1.1147020000
    3      C       0.1351560000     1.6536960000     0.8223020000
    4      H      -0.0138440000    -0.1191040000     2.1446020000
    5      C       0.1561560000     1.9009960000    -0.5618980000
    6      S       0.0289560000     0.3931960000    -1.4629980000
    7      C       0.2243560000     2.7145960000     1.8841020000
    8      H       0.1867560000     2.2681960000     2.8967020000
    9      H      -0.6099440000     3.4430960000     1.8098020000
   10      H       1.1686560000     3.2934960000     1.8099020000
   11      C      -0.0519440000    -2.0241040000     0.0017020000
   12      H      -1.1319440000    -2.0246040000     0.0017020000
   13      H      -0.0517440000    -2.5592040000    -0.9363980000
   14      H      -0.0516440000    -2.7113040000     0.8349020000
   15      H       0.2363560000     2.8556960000    -1.0953980000
 ----------------------------------------------------------------

   10    -629.4241540346      6.84e-07  Convergence criterion met
 Total energy in the final basis set =     -629.4241540346
        RIMP2         total energy =      -630.5993190471 a.u.

                    Orbital Energies (a.u.)
 --------------------------------------------------------------

 Alpha MOs
 -- Occupied --
-91.9794 -11.2854 -11.2493 -11.2470 -11.2265 -11.2226 -11.2221  -8.9791
 -6.6601  -6.6596  -6.6589  -1.1597  -1.0544  -0.9970  -0.9419  -0.8836
 -0.7437  -0.7181  -0.6484  -0.5867  -0.5735  -0.5673  -0.5542  -0.5457
 -0.5075  -0.4960  -0.4649  -0.4568  -0.3381  -0.2891

          Ground-State Mulliken Net Atomic Charges

     Atom                 Charge (a.u.)
  ----------------------------------------
      1 C                     0.057397
      2 C                    -0.303045
      3 C                     0.048346
      4 H                     0.175123
      5 C                    -0.280349
      6 S                     0.003316
      7 C                    -0.274104
      8 H                     0.101518
      9 H                     0.107318
     10 H                     0.107229
     11 C                    -0.383140
     12 H                     0.141474
     13 H                     0.140852
     14 H                     0.164388
     15 H                     0.193677
  ----------------------------------------
  Sum of atomic charges =     0.000000

                    Cartesian Multipole Moments
 -----------------------------------------------------------------
    Charge (ESU x 10^10)
                -0.0000
    Dipole Moment (Debye)
         X      -0.6545      Y      -0.7340      Z       1.3888
       Tot       1.7017
    Quadrupole Moments (Debye-Ang)
        XX     -54.2949     XY       2.3231     YY     -41.7285
        XZ       0.0006     YZ       0.3025     ZZ     -48.5489

 Total job time:  15.80s(wall), 747.24s(cpu)
        *  Thank you very much for using Q-Chem.  Have a nice day.  *
