 Q-Chem 5.4, Q-Chem, Inc., Pleasanton, CA (2021)
 Q-Chem 5.4.0 for Intel X86 EM64T Linux

User input:
--------------------------------------------------------------
$molecule
0 1
C	0.000296	-0.576386	0.005627
C	-0.002804	0.268214	1.118627
C	-0.007504	1.659214	0.826227
H	-0.001404	-0.119886	2.148527
C	-0.008104	1.907314	-0.557973
S	-0.003404	0.394214	-1.459073
C	-0.011104	2.723814	1.888027
H	-0.009604	2.275814	2.900627
H	-0.905604	3.376814	1.813727
H	0.879196	3.382714	1.813827
C	0.000296	-2.026486	0.005627
H	0.369696	-2.026986	-1.009273
H	0.881796	-2.561586	0.326727
H	-0.782704	-2.713686	-0.279073
H	-0.011404	2.865414	-1.091473
$end

$rem
JOBTYPE		SP
EXCHANGE	HF
CORRELATION	pRIMP2
BASIS		cc-pvtz
METHOD		rimp2
AUX_BASIS	rimp2-cc-pvtz
SOLVENT_METHOD	PCM
PURECART	11111
SYMMETRY	false
MEM_TOTAL	110000
SCF_CONVERGENCE = 6
THRESH=10
GUI = 2
$end

$solvent
dielectric 4.90
$end
--------------------------------------------------------------

             Standard Nuclear Orientation (Angstroms)
    I     Atom           X                Y                Z
 ----------------------------------------------------------------
    1      C       0.0002960000    -0.5763860000     0.0056270000
    2      C      -0.0028040000     0.2682140000     1.1186270000
    3      C      -0.0075040000     1.6592140000     0.8262270000
    4      H      -0.0014040000    -0.1198860000     2.1485270000
    5      C      -0.0081040000     1.9073140000    -0.5579730000
    6      S      -0.0034040000     0.3942140000    -1.4590730000
    7      C      -0.0111040000     2.7238140000     1.8880270000
    8      H      -0.0096040000     2.2758140000     2.9006270000
    9      H      -0.9056040000     3.3768140000     1.8137270000
   10      H       0.8791960000     3.3827140000     1.8138270000
   11      C       0.0002960000    -2.0264860000     0.0056270000
   12      H       0.3696960000    -2.0269860000    -1.0092730000
   13      H       0.8817960000    -2.5615860000     0.3267270000
   14      H      -0.7827040000    -2.7136860000    -0.2790730000
   15      H      -0.0114040000     2.8654140000    -1.0914730000
 ----------------------------------------------------------------

   10    -629.4224800711      5.47e-07  Convergence criterion met
 Total energy in the final basis set =     -629.4224800711
        RIMP2         total energy =      -630.5997115367 a.u.

                    Orbital Energies (a.u.)
 --------------------------------------------------------------

 Alpha MOs
 -- Occupied --
-91.9806 -11.2763 -11.2576 -11.2472 -11.2285 -11.2270 -11.2173  -8.9803
 -6.6613  -6.6608  -6.6601  -1.1605  -1.0534  -0.9954  -0.9454  -0.8829
 -0.7474  -0.7182  -0.6470  -0.5908  -0.5754  -0.5665  -0.5528  -0.5463
 -0.5085  -0.4873  -0.4650  -0.4463  -0.3382  -0.3030

          Ground-State Mulliken Net Atomic Charges

     Atom                 Charge (a.u.)
  ----------------------------------------
      1 C                     0.048595
      2 C                    -0.260172
      3 C                     0.036919
      4 H                     0.179670
      5 C                    -0.258727
      6 S                    -0.001850
      7 C                    -0.273260
      8 H                     0.101980
      9 H                     0.107032
     10 H                     0.106903
     11 C                    -0.368297
     12 H                     0.113059
     13 H                     0.133803
     14 H                     0.138831
     15 H                     0.195515
  ----------------------------------------
  Sum of atomic charges =     0.000000

                    Cartesian Multipole Moments
 -----------------------------------------------------------------
    Charge (ESU x 10^10)
                -0.0000
    Dipole Moment (Debye)
         X       0.2317      Y      -0.0359      Z       0.8949
       Tot       0.9251
    Quadrupole Moments (Debye-Ang)
        XX     -53.7759     XY      -0.4724     YY     -42.0702
        XZ       0.2203     YZ       1.5753     ZZ     -48.8228

 Total job time:  15.62s(wall), 746.36s(cpu)
        *  Thank you very much for using Q-Chem.  Have a nice day.  *
