 Q-Chem 5.4, Q-Chem, Inc., Pleasanton, CA (2021)
 Q-Chem 5.4.0 for Intel X86 EM64T Linux

User input:
--------------------------------------------------------------
$molecule
0 1
C	-0.341471	-0.486609	0.003987
C	0.078129	0.246391	1.116987
C	0.769629	1.453391	0.824587
H	-0.114771	-0.090409	2.146887
C	0.893129	1.668591	-0.559613
S	0.140629	0.355791	-1.460713
C	1.298829	2.377091	1.886387
H	1.076029	1.988491	2.898987
H	0.850529	3.389991	1.812087
H	2.399229	2.502691	1.812187
C	-0.341471	-1.936709	0.003987
H	0.485829	-1.937209	-0.690213
H	0.261429	-2.471809	0.722787
H	-0.877271	-2.623909	-0.634113
H	1.369229	2.499891	-1.093113
$end

$rem
JOBTYPE		SP
EXCHANGE	HF
CORRELATION	pRIMP2
BASIS		cc-pvtz
METHOD		rimp2
AUX_BASIS	rimp2-cc-pvtz
SOLVENT_METHOD	PCM
PURECART	11111
SYMMETRY	false
MEM_TOTAL	110000
SCF_CONVERGENCE = 6
THRESH=10
GUI = 2
$end

$solvent
dielectric 4.90
$end
--------------------------------------------------------------

             Standard Nuclear Orientation (Angstroms)
    I     Atom           X                Y                Z
 ----------------------------------------------------------------
    1      C      -0.3414710000    -0.4866090000     0.0039870000
    2      C       0.0781290000     0.2463910000     1.1169870000
    3      C       0.7696290000     1.4533910000     0.8245870000
    4      H      -0.1147710000    -0.0904090000     2.1468870000
    5      C       0.8931290000     1.6685910000    -0.5596130000
    6      S       0.1406290000     0.3557910000    -1.4607130000
    7      C       1.2988290000     2.3770910000     1.8863870000
    8      H       1.0760290000     1.9884910000     2.8989870000
    9      H       0.8505290000     3.3899910000     1.8120870000
   10      H       2.3992290000     2.5026910000     1.8121870000
   11      C      -0.3414710000    -1.9367090000     0.0039870000
   12      H       0.4858290000    -1.9372090000    -0.6902130000
   13      H       0.2614290000    -2.4718090000     0.7227870000
   14      H      -0.8772710000    -2.6239090000    -0.6341130000
   15      H       1.3692290000     2.4998910000    -1.0931130000
 ----------------------------------------------------------------

   10    -629.4077573967      6.25e-07  Convergence criterion met
 Total energy in the final basis set =     -629.4077573967
        RIMP2         total energy =      -630.5872357923 a.u.

                    Orbital Energies (a.u.)
 --------------------------------------------------------------

 Alpha MOs
 -- Occupied --
-91.9751 -11.2762 -11.2588 -11.2474 -11.2314 -11.2273 -11.2177  -8.9757
 -6.6566  -6.6560  -6.6554  -1.1639  -1.0548  -0.9949  -0.9428  -0.8819
 -0.7475  -0.7202  -0.6452  -0.5893  -0.5789  -0.5654  -0.5508  -0.5467
 -0.5092  -0.4909  -0.4623  -0.4490  -0.3392  -0.2944

          Ground-State Mulliken Net Atomic Charges

     Atom                 Charge (a.u.)
  ----------------------------------------
      1 C                     0.038373
      2 C                    -0.294664
      3 C                     0.051471
      4 H                     0.178863
      5 C                    -0.254528
      6 S                    -0.005754
      7 C                    -0.270144
      8 H                     0.101690
      9 H                     0.107734
     10 H                     0.106655
     11 C                    -0.373687
     12 H                     0.136401
     13 H                     0.140031
     14 H                     0.143925
     15 H                     0.193634
  ----------------------------------------
  Sum of atomic charges =     0.000000

                    Cartesian Multipole Moments
 -----------------------------------------------------------------
    Charge (ESU x 10^10)
                -0.0000
    Dipole Moment (Debye)
         X       1.3019      Y      -0.2816      Z       1.1497
       Tot       1.7595
    Quadrupole Moments (Debye-Ang)
        XX     -52.4545     XY       2.8485     YY     -44.4814
        XZ       0.5068     YZ       1.2414     ZZ     -48.5645

 Total job time:  19.28s(wall), 731.84s(cpu)
        *  Thank you very much for using Q-Chem.  Have a nice day.  *
