 Q-Chem 5.4, Q-Chem, Inc., Pleasanton, CA (2021)
 Q-Chem 5.4.0 for Intel X86 EM64T Linux

User input:
--------------------------------------------------------------
$molecule
0 1
C	0.003704	-0.576386	-0.003463
C	0.000604	0.268214	1.109537
C	-0.004096	1.659214	0.817137
H	0.002004	-0.119886	2.139437
C	-0.004696	1.907314	-0.567063
S	0.000004	0.394214	-1.468163
C	-0.007696	2.723814	1.878937
H	-0.006196	2.275814	2.891537
H	-0.902196	3.376814	1.804637
H	0.882604	3.382714	1.804737
C	0.003704	-2.026486	-0.003463
H	-0.183796	-2.026986	1.060137
H	-0.920196	-2.561586	-0.166563
H	0.824304	-2.713686	0.140937
H	-0.007996	2.865414	-1.100563
$end

$rem
JOBTYPE		SP
EXCHANGE	HF
CORRELATION	pRIMP2
BASIS		cc-pvtz
METHOD		rimp2
AUX_BASIS	rimp2-cc-pvtz
SOLVENT_METHOD	PCM
PURECART	11111
SYMMETRY	false
MEM_TOTAL	110000
SCF_CONVERGENCE = 6
THRESH=10
GUI = 2
$end

$solvent
dielectric 4.90
$end
--------------------------------------------------------------

             Standard Nuclear Orientation (Angstroms)
    I     Atom           X                Y                Z
 ----------------------------------------------------------------
    1      C       0.0037040000    -0.5763860000    -0.0034630000
    2      C       0.0006040000     0.2682140000     1.1095370000
    3      C      -0.0040960000     1.6592140000     0.8171370000
    4      H       0.0020040000    -0.1198860000     2.1394370000
    5      C      -0.0046960000     1.9073140000    -0.5670630000
    6      S       0.0000040000     0.3942140000    -1.4681630000
    7      C      -0.0076960000     2.7238140000     1.8789370000
    8      H      -0.0061960000     2.2758140000     2.8915370000
    9      H      -0.9021960000     3.3768140000     1.8046370000
   10      H       0.8826040000     3.3827140000     1.8047370000
   11      C       0.0037040000    -2.0264860000    -0.0034630000
   12      H      -0.1837960000    -2.0269860000     1.0601370000
   13      H      -0.9201960000    -2.5615860000    -0.1665630000
   14      H       0.8243040000    -2.7136860000     0.1409370000
   15      H      -0.0079960000     2.8654140000    -1.1005630000
 ----------------------------------------------------------------

   10    -629.4263619062      4.87e-07  Convergence criterion met
 Total energy in the final basis set =     -629.4263619062
        RIMP2         total energy =      -630.6038282072 a.u.

                    Orbital Energies (a.u.)
 --------------------------------------------------------------

 Alpha MOs
 -- Occupied --
-91.9756 -11.2780 -11.2577 -11.2472 -11.2336 -11.2276 -11.2174  -8.9757
 -6.6566  -6.6561  -6.6555  -1.1609  -1.0525  -0.9996  -0.9390  -0.8855
 -0.7424  -0.7237  -0.6480  -0.5908  -0.5777  -0.5661  -0.5594  -0.5411
 -0.5099  -0.4862  -0.4679  -0.4392  -0.3377  -0.3048

          Ground-State Mulliken Net Atomic Charges

     Atom                 Charge (a.u.)
  ----------------------------------------
      1 C                     0.061206
      2 C                    -0.266219
      3 C                     0.029127
      4 H                     0.176607
      5 C                    -0.249947
      6 S                    -0.008206
      7 C                    -0.273771
      8 H                     0.101290
      9 H                     0.107278
     10 H                     0.107291
     11 C                    -0.370645
     12 H                     0.120478
     13 H                     0.131176
     14 H                     0.140458
     15 H                     0.193876
  ----------------------------------------
  Sum of atomic charges =     0.000000

                    Cartesian Multipole Moments
 -----------------------------------------------------------------
    Charge (ESU x 10^10)
                -0.0000
    Dipole Moment (Debye)
         X      -0.1306      Y      -0.0771      Z       2.1501
       Tot       2.1554
    Quadrupole Moments (Debye-Ang)
        XX     -53.7097     XY       0.1602     YY     -42.1068
        XZ       0.1179     YZ      -1.0221     ZZ     -48.9798

 Total job time:  19.21s(wall), 758.34s(cpu)
        *  Thank you very much for using Q-Chem.  Have a nice day.  *
