 Q-Chem 5.4, Q-Chem, Inc., Pleasanton, CA (2021)
 Q-Chem 5.4.0 for Intel X86 EM64T Linux

User input:
--------------------------------------------------------------
$molecule
0 1
C	-0.591594	-0.238938	0.002446
C	0.138306	0.186062	1.115446
C	1.340606	0.885562	0.823046
H	-0.197094	-0.009138	2.145346
C	1.555206	1.010262	-0.561154
S	0.247106	0.249562	-1.462254
C	2.260806	1.420962	1.884846
H	1.873506	1.195762	2.897446
H	2.379006	2.522262	1.810546
H	3.276606	0.979462	1.810646
C	-0.591594	-1.689038	0.002446
H	0.423306	-1.689538	-0.366954
H	-0.270894	-2.224138	0.884046
H	-0.876894	-2.376238	-0.780354
H	2.383206	1.492062	-1.094654
$end

$rem
JOBTYPE		SP
EXCHANGE	HF
CORRELATION	pRIMP2
BASIS		cc-pvtz
METHOD		rimp2
AUX_BASIS	rimp2-cc-pvtz
SOLVENT_METHOD	PCM
PURECART	11111
SYMMETRY	false
MEM_TOTAL	110000
SCF_CONVERGENCE = 6
THRESH=10
GUI = 2
$end

$solvent
dielectric 4.90
$end
--------------------------------------------------------------

             Standard Nuclear Orientation (Angstroms)
    I     Atom           X                Y                Z
 ----------------------------------------------------------------
    1      C      -0.5915940000    -0.2389380000     0.0024460000
    2      C       0.1383060000     0.1860620000     1.1154460000
    3      C       1.3406060000     0.8855620000     0.8230460000
    4      H      -0.1970940000    -0.0091380000     2.1453460000
    5      C       1.5552060000     1.0102620000    -0.5611540000
    6      S       0.2471060000     0.2495620000    -1.4622540000
    7      C       2.2608060000     1.4209620000     1.8848460000
    8      H       1.8735060000     1.1957620000     2.8974460000
    9      H       2.3790060000     2.5222620000     1.8105460000
   10      H       3.2766060000     0.9794620000     1.8106460000
   11      C      -0.5915940000    -1.6890380000     0.0024460000
   12      H       0.4233060000    -1.6895380000    -0.3669540000
   13      H      -0.2708940000    -2.2241380000     0.8840460000
   14      H      -0.8768940000    -2.3762380000    -0.7803540000
   15      H       2.3832060000     1.4920620000    -1.0946540000
 ----------------------------------------------------------------

   10    -629.3508897898      8.50e-07  Convergence criterion met
 Total energy in the final basis set =     -629.3508897898
        RIMP2         total energy =      -630.5416483317 a.u.

                    Orbital Energies (a.u.)
 --------------------------------------------------------------

 Alpha MOs
 -- Occupied --
-91.9712 -11.2799 -11.2571 -11.2514 -11.2475 -11.2297 -11.2141  -8.9728
 -6.6536  -6.6528  -6.6525  -1.1782  -1.0590  -0.9973  -0.9389  -0.8805
 -0.7538  -0.7297  -0.6439  -0.5895  -0.5874  -0.5663  -0.5531  -0.5452
 -0.5104  -0.4959  -0.4609  -0.4309  -0.3396  -0.2910

          Ground-State Mulliken Net Atomic Charges

     Atom                 Charge (a.u.)
  ----------------------------------------
      1 C                    -0.068090
      2 C                    -0.163832
      3 C                    -0.005207
      4 H                     0.184576
      5 C                    -0.200357
      6 S                     0.000343
      7 C                    -0.267611
      8 H                     0.102687
      9 H                     0.107773
     10 H                     0.105660
     11 C                    -0.360738
     12 H                     0.114181
     13 H                     0.123802
     14 H                     0.129131
     15 H                     0.197682
  ----------------------------------------
  Sum of atomic charges =     0.000000

                    Cartesian Multipole Moments
 -----------------------------------------------------------------
    Charge (ESU x 10^10)
                -0.0000
    Dipole Moment (Debye)
         X       2.7330      Y      -0.1476      Z       1.6538
       Tot       3.1978
    Quadrupole Moments (Debye-Ang)
        XX     -48.7732     XY       3.7410     YY     -49.8410
        XZ       0.1064     YZ       0.5935     ZZ     -47.8727

 Total job time:  16.72s(wall), 777.04s(cpu)
        *  Thank you very much for using Q-Chem.  Have a nice day.  *
