 Q-Chem 5.4, Q-Chem, Inc., Pleasanton, CA (2021)
 Q-Chem 5.4.0 for Intel X86 EM64T Linux

User input:
--------------------------------------------------------------
$molecule
0 1
C	-0.234399	-0.536244	-0.000871
C	0.051601	0.258456	1.112129
C	0.522901	1.567156	0.819729
H	-0.079899	-0.106644	2.142029
C	0.607201	1.800556	-0.564471
S	0.094101	0.377056	-1.465571
C	0.883701	2.568756	1.881529
H	0.731801	2.147356	2.894129
H	0.266401	3.488456	1.807229
H	1.945601	2.883556	1.807329
C	-0.234399	-1.986344	-0.000871
H	0.780501	-1.986844	0.368529
H	-0.555499	-2.521444	0.880629
H	0.050301	-2.673544	-0.783871
H	0.931701	2.701956	-1.097971
$end

$rem
JOBTYPE		SP
EXCHANGE	HF
CORRELATION	pRIMP2
BASIS		cc-pvtz
METHOD		rimp2
AUX_BASIS	rimp2-cc-pvtz
SOLVENT_METHOD	PCM
PURECART	11111
SYMMETRY	false
MEM_TOTAL	110000
SCF_CONVERGENCE = 6
THRESH=10
GUI = 2
$end

$solvent
dielectric 4.90
$end
--------------------------------------------------------------

             Standard Nuclear Orientation (Angstroms)
    I     Atom           X                Y                Z
 ----------------------------------------------------------------
    1      C      -0.2343990000    -0.5362440000    -0.0008710000
    2      C       0.0516010000     0.2584560000     1.1121290000
    3      C       0.5229010000     1.5671560000     0.8197290000
    4      H      -0.0798990000    -0.1066440000     2.1420290000
    5      C       0.6072010000     1.8005560000    -0.5644710000
    6      S       0.0941010000     0.3770560000    -1.4655710000
    7      C       0.8837010000     2.5687560000     1.8815290000
    8      H       0.7318010000     2.1473560000     2.8941290000
    9      H       0.2664010000     3.4884560000     1.8072290000
   10      H       1.9456010000     2.8835560000     1.8073290000
   11      C      -0.2343990000    -1.9863440000    -0.0008710000
   12      H       0.7805010000    -1.9868440000     0.3685290000
   13      H      -0.5554990000    -2.5214440000     0.8806290000
   14      H       0.0503010000    -2.6735440000    -0.7838710000
   15      H       0.9317010000     2.7019560000    -1.0979710000
 ----------------------------------------------------------------

   10    -629.4182587124      6.42e-07  Convergence criterion met
 Total energy in the final basis set =     -629.4182587124
        RIMP2         total energy =      -630.5955990898 a.u.

                    Orbital Energies (a.u.)
 --------------------------------------------------------------

 Alpha MOs
 -- Occupied --
-91.9789 -11.2844 -11.2507 -11.2479 -11.2270 -11.2239 -11.2217  -8.9786
 -6.6596  -6.6590  -6.6584  -1.1617  -1.0546  -0.9979  -0.9391  -0.8838
 -0.7433  -0.7197  -0.6465  -0.5892  -0.5756  -0.5700  -0.5547  -0.5442
 -0.5082  -0.4897  -0.4665  -0.4557  -0.3375  -0.2896

          Ground-State Mulliken Net Atomic Charges

     Atom                 Charge (a.u.)
  ----------------------------------------
      1 C                     0.045514
      2 C                    -0.289882
      3 C                     0.046813
      4 H                     0.173887
      5 C                    -0.278514
      6 S                     0.003568
      7 C                    -0.271409
      8 H                     0.101520
      9 H                     0.107456
     10 H                     0.106852
     11 C                    -0.385219
     12 H                     0.150335
     13 H                     0.137744
     14 H                     0.158378
     15 H                     0.192958
  ----------------------------------------
  Sum of atomic charges =     0.000000

                    Cartesian Multipole Moments
 -----------------------------------------------------------------
    Charge (ESU x 10^10)
                -0.0000
    Dipole Moment (Debye)
         X       1.0635      Y      -0.6746      Z       1.6706
       Tot       2.0921
    Quadrupole Moments (Debye-Ang)
        XX     -53.6927     XY       1.4128     YY     -42.9720
        XZ      -0.0464     YZ      -0.0429     ZZ     -48.5531

 Total job time:  19.19s(wall), 749.32s(cpu)
        *  Thank you very much for using Q-Chem.  Have a nice day.  *
