 Q-Chem 5.4, Q-Chem, Inc., Pleasanton, CA (2021)
 Q-Chem 5.4.0 for Intel X86 EM64T Linux

User input:
--------------------------------------------------------------
$molecule
0 1
C	-0.589709	-0.238938	0.005194
C	0.140191	0.186062	1.118194
C	1.342491	0.885562	0.825794
H	-0.195209	-0.009138	2.148094
C	1.557091	1.010262	-0.558406
S	0.248991	0.249562	-1.459506
C	2.262691	1.420962	1.887594
H	1.875391	1.195762	2.900194
H	2.380891	2.522262	1.813294
H	3.278491	0.979462	1.813394
C	-0.589709	-1.689038	0.005194
H	-0.049709	-1.689538	-0.930106
H	0.222591	-2.224138	0.474494
H	-1.311409	-2.376238	-0.411106
H	2.385091	1.492062	-1.091906
$end

$rem
JOBTYPE		SP
EXCHANGE	HF
CORRELATION	pRIMP2
BASIS		cc-pvtz
METHOD		rimp2
AUX_BASIS	rimp2-cc-pvtz
SOLVENT_METHOD	PCM
PURECART	11111
SYMMETRY	false
MEM_TOTAL	110000
SCF_CONVERGENCE = 6
THRESH=10
GUI = 2
$end

$solvent
dielectric 4.90
$end
--------------------------------------------------------------

             Standard Nuclear Orientation (Angstroms)
    I     Atom           X                Y                Z
 ----------------------------------------------------------------
    1      C      -0.5897090000    -0.2389380000     0.0051940000
    2      C       0.1401910000     0.1860620000     1.1181940000
    3      C       1.3424910000     0.8855620000     0.8257940000
    4      H      -0.1952090000    -0.0091380000     2.1480940000
    5      C       1.5570910000     1.0102620000    -0.5584060000
    6      S       0.2489910000     0.2495620000    -1.4595060000
    7      C       2.2626910000     1.4209620000     1.8875940000
    8      H       1.8753910000     1.1957620000     2.9001940000
    9      H       2.3808910000     2.5222620000     1.8132940000
   10      H       3.2784910000     0.9794620000     1.8133940000
   11      C      -0.5897090000    -1.6890380000     0.0051940000
   12      H      -0.0497090000    -1.6895380000    -0.9301060000
   13      H       0.2225910000    -2.2241380000     0.4744940000
   14      H      -1.3114090000    -2.3762380000    -0.4111060000
   15      H       2.3850910000     1.4920620000    -1.0919060000
 ----------------------------------------------------------------

   10    -629.3391813427      8.90e-07  Convergence criterion met
 Total energy in the final basis set =     -629.3391813427
        RIMP2         total energy =      -630.5305951331 a.u.

                    Orbital Energies (a.u.)
 --------------------------------------------------------------

 Alpha MOs
 -- Occupied --
-91.9704 -11.2827 -11.2540 -11.2484 -11.2475 -11.2292 -11.2048  -8.9724
 -6.6531  -6.6522  -6.6520  -1.1768  -1.0582  -0.9953  -0.9427  -0.8778
 -0.7568  -0.7286  -0.6436  -0.5907  -0.5832  -0.5651  -0.5526  -0.5463
 -0.5163  -0.4764  -0.4625  -0.4306  -0.3310  -0.2980

          Ground-State Mulliken Net Atomic Charges

     Atom                 Charge (a.u.)
  ----------------------------------------
      1 C                    -0.096289
      2 C                    -0.120340
      3 C                    -0.021695
      4 H                     0.185525
      5 C                    -0.185241
      6 S                     0.000564
      7 C                    -0.267636
      8 H                     0.102203
      9 H                     0.107539
     10 H                     0.104583
     11 C                    -0.383446
     12 H                     0.134974
     13 H                     0.121891
     14 H                     0.118533
     15 H                     0.198836
  ----------------------------------------
  Sum of atomic charges =     0.000000

                    Cartesian Multipole Moments
 -----------------------------------------------------------------
    Charge (ESU x 10^10)
                -0.0000
    Dipole Moment (Debye)
         X       2.7473      Y       0.1081      Z       1.2822
       Tot       3.0337
    Quadrupole Moments (Debye-Ang)
        XX     -48.3394     XY       3.6493     YY     -50.3591
        XZ       0.2243     YZ       1.3918     ZZ     -47.7772

 Total job time:  18.79s(wall), 776.67s(cpu)
        *  Thank you very much for using Q-Chem.  Have a nice day.  *
