 Q-Chem 5.4, Q-Chem, Inc., Pleasanton, CA (2021)
 Q-Chem 5.4.0 for Intel X86 EM64T Linux

User input:
--------------------------------------------------------------
$molecule
0 1
C	-0.058009	-0.574004	-0.003488
C	0.012491	0.267696	1.109512
C	0.129091	1.653696	0.817112
H	-0.019909	-0.119104	2.139412
C	0.150091	1.900996	-0.567088
S	0.022891	0.393196	-1.468188
C	0.218291	2.714596	1.878912
H	0.180691	2.268196	2.891512
H	-0.616009	3.443096	1.804612
H	1.162591	3.293496	1.804712
C	-0.058009	-2.024104	-0.003488
H	0.311391	-2.024604	1.011412
H	-0.939609	-2.559204	0.317212
H	0.724791	-2.711304	-0.288788
H	0.230291	2.855696	-1.100588
$end

$rem
JOBTYPE		SP
EXCHANGE	HF
CORRELATION	pRIMP2
BASIS		cc-pvtz
METHOD		rimp2
AUX_BASIS	rimp2-cc-pvtz
SOLVENT_METHOD	PCM
PURECART	11111
SYMMETRY	false
MEM_TOTAL	110000
SCF_CONVERGENCE = 6
THRESH=10
GUI = 2
$end

$solvent
dielectric 4.90
$end
--------------------------------------------------------------

             Standard Nuclear Orientation (Angstroms)
    I     Atom           X                Y                Z
 ----------------------------------------------------------------
    1      C      -0.0580090000    -0.5740040000    -0.0034880000
    2      C       0.0124910000     0.2676960000     1.1095120000
    3      C       0.1290910000     1.6536960000     0.8171120000
    4      H      -0.0199090000    -0.1191040000     2.1394120000
    5      C       0.1500910000     1.9009960000    -0.5670880000
    6      S       0.0228910000     0.3931960000    -1.4681880000
    7      C       0.2182910000     2.7145960000     1.8789120000
    8      H       0.1806910000     2.2681960000     2.8915120000
    9      H      -0.6160090000     3.4430960000     1.8046120000
   10      H       1.1625910000     3.2934960000     1.8047120000
   11      C      -0.0580090000    -2.0241040000    -0.0034880000
   12      H       0.3113910000    -2.0246040000     1.0114120000
   13      H      -0.9396090000    -2.5592040000     0.3172120000
   14      H       0.7247910000    -2.7113040000    -0.2887880000
   15      H       0.2302910000     2.8556960000    -1.1005880000
 ----------------------------------------------------------------

   10    -629.4250655993      5.02e-07  Convergence criterion met
 Total energy in the final basis set =     -629.4250655993
        RIMP2         total energy =      -630.6026744935 a.u.

                    Orbital Energies (a.u.)
 --------------------------------------------------------------

 Alpha MOs
 -- Occupied --
-91.9761 -11.2790 -11.2565 -11.2473 -11.2324 -11.2275 -11.2176  -8.9760
 -6.6570  -6.6564  -6.6559  -1.1608  -1.0527  -0.9995  -0.9388  -0.8853
 -0.7423  -0.7230  -0.6476  -0.5911  -0.5771  -0.5674  -0.5586  -0.5414
 -0.5100  -0.4857  -0.4678  -0.4413  -0.3372  -0.3027

          Ground-State Mulliken Net Atomic Charges

     Atom                 Charge (a.u.)
  ----------------------------------------
      1 C                     0.059288
      2 C                    -0.265277
      3 C                     0.028860
      4 H                     0.175884
      5 C                    -0.253763
      6 S                    -0.006587
      7 C                    -0.273790
      8 H                     0.101266
      9 H                     0.107293
     10 H                     0.107223
     11 C                    -0.376273
     12 H                     0.125205
     13 H                     0.128310
     14 H                     0.148965
     15 H                     0.193395
  ----------------------------------------
  Sum of atomic charges =     0.000000

                    Cartesian Multipole Moments
 -----------------------------------------------------------------
    Charge (ESU x 10^10)
                -0.0000
    Dipole Moment (Debye)
         X       0.3333      Y      -0.1628      Z       2.1238
       Tot       2.1560
    Quadrupole Moments (Debye-Ang)
        XX     -53.7338     XY       0.1032     YY     -42.1750
        XZ      -0.2133     YZ      -0.9054     ZZ     -48.9303

 Total job time:  18.67s(wall), 747.06s(cpu)
        *  Thank you very much for using Q-Chem.  Have a nice day.  *
