 Q-Chem 5.4, Q-Chem, Inc., Pleasanton, CA (2021)
 Q-Chem 5.4.0 for Intel X86 EM64T Linux

User input:
--------------------------------------------------------------
$molecule
0 1
C	-0.172216	-0.553870	0.005949
C	0.043384	0.262730	1.118949
C	0.398884	1.607530	0.826549
H	-0.055716	-0.112470	2.148849
C	0.462484	1.847430	-0.557651
S	0.075384	0.384630	-1.458751
C	0.670984	2.636830	1.888349
H	0.556384	2.203730	2.900949
H	-0.024116	3.499130	1.814049
H	1.701484	3.042930	1.814149
C	-0.172216	-2.003970	0.005949
H	-0.541616	-2.004470	-1.008951
H	0.709384	-2.539070	-0.314751
H	-0.955016	-2.691170	0.291249
H	0.707284	2.773630	-1.091151
$end

$rem
JOBTYPE		SP
EXCHANGE	HF
CORRELATION	pRIMP2
BASIS		cc-pvtz
METHOD		rimp2
AUX_BASIS	rimp2-cc-pvtz
SOLVENT_METHOD	PCM
PURECART	11111
SYMMETRY	false
MEM_TOTAL	110000
SCF_CONVERGENCE = 6
THRESH=10
GUI = 2
$end

$solvent
dielectric 4.90
$end
--------------------------------------------------------------

             Standard Nuclear Orientation (Angstroms)
    I     Atom           X                Y                Z
 ----------------------------------------------------------------
    1      C      -0.1722160000    -0.5538700000     0.0059490000
    2      C       0.0433840000     0.2627300000     1.1189490000
    3      C       0.3988840000     1.6075300000     0.8265490000
    4      H      -0.0557160000    -0.1124700000     2.1488490000
    5      C       0.4624840000     1.8474300000    -0.5576510000
    6      S       0.0753840000     0.3846300000    -1.4587510000
    7      C       0.6709840000     2.6368300000     1.8883490000
    8      H       0.5563840000     2.2037300000     2.9009490000
    9      H      -0.0241160000     3.4991300000     1.8140490000
   10      H       1.7014840000     3.0429300000     1.8141490000
   11      C      -0.1722160000    -2.0039700000     0.0059490000
   12      H      -0.5416160000    -2.0044700000    -1.0089510000
   13      H       0.7093840000    -2.5390700000    -0.3147510000
   14      H      -0.9550160000    -2.6911700000     0.2912490000
   15      H       0.7072840000     2.7736300000    -1.0911510000
 ----------------------------------------------------------------

   10    -629.4180199021      5.29e-07  Convergence criterion met
 Total energy in the final basis set =     -629.4180199021
        RIMP2         total energy =      -630.5962047840 a.u.

                    Orbital Energies (a.u.)
 --------------------------------------------------------------

 Alpha MOs
 -- Occupied --
-91.9810 -11.2743 -11.2590 -11.2473 -11.2290 -11.2270 -11.2167  -8.9807
 -6.6616  -6.6611  -6.6605  -1.1610  -1.0533  -0.9951  -0.9454  -0.8828
 -0.7476  -0.7185  -0.6467  -0.5909  -0.5750  -0.5661  -0.5535  -0.5461
 -0.5094  -0.4852  -0.4648  -0.4459  -0.3381  -0.3029

          Ground-State Mulliken Net Atomic Charges

     Atom                 Charge (a.u.)
  ----------------------------------------
      1 C                     0.029903
      2 C                    -0.255113
      3 C                     0.036731
      4 H                     0.179006
      5 C                    -0.254399
      6 S                    -0.001364
      7 C                    -0.272759
      8 H                     0.101960
      9 H                     0.106868
     10 H                     0.106767
     11 C                    -0.364198
     12 H                     0.111899
     13 H                     0.126571
     14 H                     0.152602
     15 H                     0.195526
  ----------------------------------------
  Sum of atomic charges =     0.000000

                    Cartesian Multipole Moments
 -----------------------------------------------------------------
    Charge (ESU x 10^10)
                -0.0000
    Dipole Moment (Debye)
         X       0.1927      Y       0.0107      Z       0.9140
       Tot       0.9342
    Quadrupole Moments (Debye-Ang)
        XX     -53.1635     XY       2.8163     YY     -42.7025
        XZ      -0.0634     YZ       1.4029     ZZ     -48.8094

 Total job time:  15.68s(wall), 755.85s(cpu)
        *  Thank you very much for using Q-Chem.  Have a nice day.  *
