 Q-Chem 5.4, Q-Chem, Inc., Pleasanton, CA (2021)
 Q-Chem 5.4.0 for Intel X86 EM64T Linux

User input:
--------------------------------------------------------------
$molecule
0 1
C	-0.586497	-0.238938	0.006088
C	0.143403	0.186062	1.119088
C	1.345703	0.885562	0.826688
H	-0.191997	-0.009138	2.148988
C	1.560303	1.010262	-0.557512
S	0.252203	0.249562	-1.458612
C	2.265903	1.420962	1.888488
H	1.878603	1.195762	2.901088
H	2.384103	2.522262	1.814188
H	3.281703	0.979462	1.814288
C	-0.586497	-1.689038	0.006088
H	-0.774097	-1.689538	-1.057512
H	0.337403	-2.224138	-0.156612
H	-1.406997	-2.376238	0.151088
H	2.388303	1.492062	-1.091012
$end

$rem
JOBTYPE		SP
EXCHANGE	HF
CORRELATION	pRIMP2
BASIS		cc-pvtz
METHOD		rimp2
AUX_BASIS	rimp2-cc-pvtz
SOLVENT_METHOD	PCM
PURECART	11111
SYMMETRY	false
MEM_TOTAL	110000
SCF_CONVERGENCE = 6
THRESH=10
GUI = 2
$end

$solvent
dielectric 4.90
$end
--------------------------------------------------------------

             Standard Nuclear Orientation (Angstroms)
    I     Atom           X                Y                Z
 ----------------------------------------------------------------
    1      C      -0.5864970000    -0.2389380000     0.0060880000
    2      C       0.1434030000     0.1860620000     1.1190880000
    3      C       1.3457030000     0.8855620000     0.8266880000
    4      H      -0.1919970000    -0.0091380000     2.1489880000
    5      C       1.5603030000     1.0102620000    -0.5575120000
    6      S       0.2522030000     0.2495620000    -1.4586120000
    7      C       2.2659030000     1.4209620000     1.8884880000
    8      H       1.8786030000     1.1957620000     2.9010880000
    9      H       2.3841030000     2.5222620000     1.8141880000
   10      H       3.2817030000     0.9794620000     1.8142880000
   11      C      -0.5864970000    -1.6890380000     0.0060880000
   12      H      -0.7740970000    -1.6895380000    -1.0575120000
   13      H       0.3374030000    -2.2241380000    -0.1566120000
   14      H      -1.4069970000    -2.3762380000     0.1510880000
   15      H       2.3883030000     1.4920620000    -1.0910120000
 ----------------------------------------------------------------

   11    -629.3491918088      4.31e-07  Convergence criterion met
 Total energy in the final basis set =     -629.3491918088
        RIMP2         total energy =      -630.5390354330 a.u.

                    Orbital Energies (a.u.)
 --------------------------------------------------------------

 Alpha MOs
 -- Occupied --
-91.9754 -11.2848 -11.2526 -11.2480 -11.2416 -11.2288 -11.2088  -8.9765
 -6.6573  -6.6564  -6.6561  -1.1743  -1.0566  -0.9952  -0.9435  -0.8791
 -0.7560  -0.7281  -0.6433  -0.5937  -0.5803  -0.5670  -0.5511  -0.5460
 -0.5180  -0.4669  -0.4496  -0.4413  -0.3297  -0.3082

          Ground-State Mulliken Net Atomic Charges

     Atom                 Charge (a.u.)
  ----------------------------------------
      1 C                    -0.117325
      2 C                    -0.101256
      3 C                    -0.022029
      4 H                     0.183115
      5 C                    -0.182220
      6 S                     0.009886
      7 C                    -0.268630
      8 H                     0.102379
      9 H                     0.106646
     10 H                     0.103740
     11 C                    -0.361246
     12 H                     0.109125
     13 H                     0.112234
     14 H                     0.125865
     15 H                     0.199714
  ----------------------------------------
  Sum of atomic charges =     0.000000

                    Cartesian Multipole Moments
 -----------------------------------------------------------------
    Charge (ESU x 10^10)
                -0.0000
    Dipole Moment (Debye)
         X       2.4020      Y       0.2643      Z       1.2409
       Tot       2.7165
    Quadrupole Moments (Debye-Ang)
        XX     -47.7606     XY       4.7252     YY     -50.0276
        XZ      -0.1606     YZ       0.9708     ZZ     -47.9211

 Total job time:  17.05s(wall), 822.74s(cpu)
        *  Thank you very much for using Q-Chem.  Have a nice day.  *
