 Q-Chem 5.4, Q-Chem, Inc., Pleasanton, CA (2021)
 Q-Chem 5.4.0 for Intel X86 EM64T Linux

User input:
--------------------------------------------------------------
$molecule
0 1
C	-0.114337	-0.566489	0.005949
C	0.029263	0.265811	1.118949
C	0.266163	1.636511	0.826549
H	-0.036737	-0.116589	2.148849
C	0.308663	1.881011	-0.557651
S	0.050563	0.390011	-1.458751
C	0.447563	2.685511	1.888349
H	0.371163	2.244111	2.900949
H	-0.320037	3.484011	1.814049
H	1.438663	3.179911	1.814149
C	-0.114337	-2.016589	0.005949
H	-0.483737	-2.017089	-1.008951
H	0.767263	-2.551689	-0.314751
H	-0.897137	-2.703789	0.291249
H	0.471763	2.825011	-1.091151
$end

$rem
JOBTYPE		SP
EXCHANGE	HF
CORRELATION	pRIMP2
BASIS		cc-pvtz
METHOD		rimp2
AUX_BASIS	rimp2-cc-pvtz
SOLVENT_METHOD	PCM
PURECART	11111
SYMMETRY	false
MEM_TOTAL	110000
SCF_CONVERGENCE = 6
THRESH=10
GUI = 2
$end

$solvent
dielectric 4.90
$end
--------------------------------------------------------------

             Standard Nuclear Orientation (Angstroms)
    I     Atom           X                Y                Z
 ----------------------------------------------------------------
    1      C      -0.1143370000    -0.5664890000     0.0059490000
    2      C       0.0292630000     0.2658110000     1.1189490000
    3      C       0.2661630000     1.6365110000     0.8265490000
    4      H      -0.0367370000    -0.1165890000     2.1488490000
    5      C       0.3086630000     1.8810110000    -0.5576510000
    6      S       0.0505630000     0.3900110000    -1.4587510000
    7      C       0.4475630000     2.6855110000     1.8883490000
    8      H       0.3711630000     2.2441110000     2.9009490000
    9      H      -0.3200370000     3.4840110000     1.8140490000
   10      H       1.4386630000     3.1799110000     1.8141490000
   11      C      -0.1143370000    -2.0165890000     0.0059490000
   12      H      -0.4837370000    -2.0170890000    -1.0089510000
   13      H       0.7672630000    -2.5516890000    -0.3147510000
   14      H      -0.8971370000    -2.7037890000     0.2912490000
   15      H       0.4717630000     2.8250110000    -1.0911510000
 ----------------------------------------------------------------

   10    -629.4204561520      5.39e-07  Convergence criterion met
 Total energy in the final basis set =     -629.4204561520
        RIMP2         total energy =      -630.5980437613 a.u.

                    Orbital Energies (a.u.)
 --------------------------------------------------------------

 Alpha MOs
 -- Occupied --
-91.9810 -11.2754 -11.2582 -11.2472 -11.2283 -11.2269 -11.2171  -8.9808
 -6.6617  -6.6612  -6.6606  -1.1607  -1.0534  -0.9952  -0.9455  -0.8828
 -0.7474  -0.7183  -0.6471  -0.5908  -0.5750  -0.5658  -0.5537  -0.5462
 -0.5088  -0.4865  -0.4650  -0.4462  -0.3382  -0.3028

          Ground-State Mulliken Net Atomic Charges

     Atom                 Charge (a.u.)
  ----------------------------------------
      1 C                     0.038874
      2 C                    -0.258234
      3 C                     0.036873
      4 H                     0.179304
      5 C                    -0.256603
      6 S                    -0.001887
      7 C                    -0.273185
      8 H                     0.101949
      9 H                     0.106859
     10 H                     0.106923
     11 C                    -0.366405
     12 H                     0.112549
     13 H                     0.125127
     14 H                     0.152260
     15 H                     0.195596
  ----------------------------------------
  Sum of atomic charges =     0.000000

                    Cartesian Multipole Moments
 -----------------------------------------------------------------
    Charge (ESU x 10^10)
                -0.0000
    Dipole Moment (Debye)
         X       0.0491      Y      -0.0187      Z       0.8973
       Tot       0.8988
    Quadrupole Moments (Debye-Ang)
        XX     -53.4851     XY       2.1064     YY     -42.3301
        XZ      -0.1056     YZ       1.4500     ZZ     -48.8301

 Total job time:  19.41s(wall), 754.84s(cpu)
        *  Thank you very much for using Q-Chem.  Have a nice day.  *
