 Q-Chem 5.4, Q-Chem, Inc., Pleasanton, CA (2021)
 Q-Chem 5.4.0 for Intel X86 EM64T Linux

User input:
--------------------------------------------------------------
$molecule
0 1
C	0.003614	-0.576386	0.005949
C	0.000514	0.268214	1.118949
C	-0.004186	1.659214	0.826549
H	0.001914	-0.119886	2.148849
C	-0.004786	1.907314	-0.557651
S	-0.000086	0.394214	-1.458751
C	-0.007786	2.723814	1.888349
H	-0.006286	2.275814	2.900949
H	-0.902286	3.376814	1.814049
H	0.882514	3.382714	1.814149
C	0.003614	-2.026486	0.005949
H	-0.365786	-2.026986	-1.008951
H	0.885214	-2.561586	-0.314751
H	-0.779186	-2.713686	0.291249
H	-0.008086	2.865414	-1.091151
$end

$rem
JOBTYPE		SP
EXCHANGE	HF
CORRELATION	pRIMP2
BASIS		cc-pvtz
METHOD		rimp2
AUX_BASIS	rimp2-cc-pvtz
SOLVENT_METHOD	PCM
PURECART	11111
SYMMETRY	false
MEM_TOTAL	110000
SCF_CONVERGENCE = 6
THRESH=10
GUI = 2
$end

$solvent
dielectric 4.90
$end
--------------------------------------------------------------

             Standard Nuclear Orientation (Angstroms)
    I     Atom           X                Y                Z
 ----------------------------------------------------------------
    1      C       0.0036140000    -0.5763860000     0.0059490000
    2      C       0.0005140000     0.2682140000     1.1189490000
    3      C      -0.0041860000     1.6592140000     0.8265490000
    4      H       0.0019140000    -0.1198860000     2.1488490000
    5      C      -0.0047860000     1.9073140000    -0.5576510000
    6      S      -0.0000860000     0.3942140000    -1.4587510000
    7      C      -0.0077860000     2.7238140000     1.8883490000
    8      H      -0.0062860000     2.2758140000     2.9009490000
    9      H      -0.9022860000     3.3768140000     1.8140490000
   10      H       0.8825140000     3.3827140000     1.8141490000
   11      C       0.0036140000    -2.0264860000     0.0059490000
   12      H      -0.3657860000    -2.0269860000    -1.0089510000
   13      H       0.8852140000    -2.5615860000    -0.3147510000
   14      H      -0.7791860000    -2.7136860000     0.2912490000
   15      H      -0.0080860000     2.8654140000    -1.0911510000
 ----------------------------------------------------------------

   10    -629.4222487641      5.54e-07  Convergence criterion met
 Total energy in the final basis set =     -629.4222487641
        RIMP2         total energy =      -630.5993561463 a.u.

                    Orbital Energies (a.u.)
 --------------------------------------------------------------

 Alpha MOs
 -- Occupied --
-91.9808 -11.2764 -11.2575 -11.2471 -11.2280 -11.2269 -11.2174  -8.9806
 -6.6615  -6.6610  -6.6604  -1.1605  -1.0535  -0.9953  -0.9455  -0.8828
 -0.7473  -0.7181  -0.6475  -0.5906  -0.5752  -0.5656  -0.5537  -0.5463
 -0.5085  -0.4875  -0.4650  -0.4464  -0.3383  -0.3027

          Ground-State Mulliken Net Atomic Charges

     Atom                 Charge (a.u.)
  ----------------------------------------
      1 C                     0.049538
      2 C                    -0.263276
      3 C                     0.038695
      4 H                     0.179719
      5 C                    -0.259282
      6 S                    -0.002367
      7 C                    -0.273392
      8 H                     0.101998
      9 H                     0.106952
     10 H                     0.106989
     11 C                    -0.369634
     12 H                     0.114031
     13 H                     0.125296
     14 H                     0.149032
     15 H                     0.195701
  ----------------------------------------
  Sum of atomic charges =     0.000000

                    Cartesian Multipole Moments
 -----------------------------------------------------------------
    Charge (ESU x 10^10)
                -0.0000
    Dipole Moment (Debye)
         X      -0.2183      Y      -0.0466      Z       0.8807
       Tot       0.9085
    Quadrupole Moments (Debye-Ang)
        XX     -53.7744     XY       0.5741     YY     -42.0469
        XZ      -0.2036     YZ       1.5032     ZZ     -48.8359

 Total job time:  16.01s(wall), 764.24s(cpu)
        *  Thank you very much for using Q-Chem.  Have a nice day.  *
