 Q-Chem 5.4, Q-Chem, Inc., Pleasanton, CA (2021)
 Q-Chem 5.4.0 for Intel X86 EM64T Linux

User input:
--------------------------------------------------------------
$molecule
0 1
C	-0.342311	-0.486609	0.001609
C	0.077289	0.246391	1.114609
C	0.768789	1.453391	0.822209
H	-0.115611	-0.090409	2.144509
C	0.892289	1.668591	-0.561991
S	0.139789	0.355791	-1.463091
C	1.297989	2.377091	1.884009
H	1.075189	1.988491	2.896609
H	0.849689	3.389991	1.809709
H	2.398389	2.502691	1.809809
C	-0.342311	-1.936709	0.001609
H	0.721289	-1.937209	-0.185991
H	-0.179611	-2.471809	0.925509
H	-0.487311	-2.623909	-0.818891
H	1.368389	2.499891	-1.095491
$end

$rem
JOBTYPE		SP
EXCHANGE	HF
CORRELATION	pRIMP2
BASIS		cc-pvtz
METHOD		rimp2
AUX_BASIS	rimp2-cc-pvtz
SOLVENT_METHOD	PCM
PURECART	11111
SYMMETRY	false
MEM_TOTAL	110000
SCF_CONVERGENCE = 6
THRESH=10
GUI = 2
$end

$solvent
dielectric 4.90
$end
--------------------------------------------------------------

             Standard Nuclear Orientation (Angstroms)
    I     Atom           X                Y                Z
 ----------------------------------------------------------------
    1      C      -0.3423110000    -0.4866090000     0.0016090000
    2      C       0.0772890000     0.2463910000     1.1146090000
    3      C       0.7687890000     1.4533910000     0.8222090000
    4      H      -0.1156110000    -0.0904090000     2.1445090000
    5      C       0.8922890000     1.6685910000    -0.5619910000
    6      S       0.1397890000     0.3557910000    -1.4630910000
    7      C       1.2979890000     2.3770910000     1.8840090000
    8      H       1.0751890000     1.9884910000     2.8966090000
    9      H       0.8496890000     3.3899910000     1.8097090000
   10      H       2.3983890000     2.5026910000     1.8098090000
   11      C      -0.3423110000    -1.9367090000     0.0016090000
   12      H       0.7212890000    -1.9372090000    -0.1859910000
   13      H      -0.1796110000    -2.4718090000     0.9255090000
   14      H      -0.4873110000    -2.6239090000    -0.8188910000
   15      H       1.3683890000     2.4998910000    -1.0954910000
 ----------------------------------------------------------------

   10    -629.4112915702      6.54e-07  Convergence criterion met
 Total energy in the final basis set =     -629.4112915702
        RIMP2         total energy =      -630.5898817085 a.u.

                    Orbital Energies (a.u.)
 --------------------------------------------------------------

 Alpha MOs
 -- Occupied --
-91.9763 -11.2813 -11.2550 -11.2481 -11.2273 -11.2270 -11.2219  -8.9766
 -6.6576  -6.6570  -6.6564  -1.1639  -1.0554  -0.9963  -0.9404  -0.8828
 -0.7456  -0.7203  -0.6455  -0.5881  -0.5802  -0.5667  -0.5512  -0.5459
 -0.5070  -0.4960  -0.4625  -0.4548  -0.3392  -0.2894

          Ground-State Mulliken Net Atomic Charges

     Atom                 Charge (a.u.)
  ----------------------------------------
      1 C                     0.046435
      2 C                    -0.310612
      3 C                     0.058489
      4 H                     0.175798
      5 C                    -0.270309
      6 S                    -0.002716
      7 C                    -0.269982
      8 H                     0.101765
      9 H                     0.107788
     10 H                     0.106772
     11 C                    -0.370043
     12 H                     0.145825
     13 H                     0.136723
     14 H                     0.150860
     15 H                     0.193207
  ----------------------------------------
  Sum of atomic charges =     0.000000

                    Cartesian Multipole Moments
 -----------------------------------------------------------------
    Charge (ESU x 10^10)
                -0.0000
    Dipole Moment (Debye)
         X       1.3486      Y      -0.5744      Z       1.4003
       Tot       2.0272
    Quadrupole Moments (Debye-Ang)
        XX     -52.8292     XY       2.6131     YY     -44.1826
        XZ       0.3101     YZ       0.6107     ZZ     -48.5272

 Total job time:  16.19s(wall), 758.87s(cpu)
        *  Thank you very much for using Q-Chem.  Have a nice day.  *
