 Q-Chem 5.4, Q-Chem, Inc., Pleasanton, CA (2021)
 Q-Chem 5.4.0 for Intel X86 EM64T Linux

User input:
--------------------------------------------------------------
$molecule
0 1
C	-0.110835	-0.566489	0.000015
C	0.032765	0.265811	1.113015
C	0.269665	1.636511	0.820615
H	-0.033235	-0.116589	2.142915
C	0.312165	1.881011	-0.563585
S	0.054065	0.390011	-1.464685
C	0.451065	2.685511	1.882415
H	0.374665	2.244111	2.895015
H	-0.316535	3.484011	1.808115
H	1.442165	3.179911	1.808215
C	-0.110835	-2.016589	0.000015
H	-1.125735	-2.017089	0.369415
H	-0.431535	-2.551689	-0.881585
H	0.174465	-2.703789	0.782815
H	0.475265	2.825011	-1.097085
$end

$rem
JOBTYPE		SP
EXCHANGE	HF
CORRELATION	pRIMP2
BASIS		cc-pvtz
METHOD		rimp2
AUX_BASIS	rimp2-cc-pvtz
SOLVENT_METHOD	PCM
PURECART	11111
SYMMETRY	false
MEM_TOTAL	110000
SCF_CONVERGENCE = 6
THRESH=10
GUI = 2
$end

$solvent
dielectric 4.90
$end
--------------------------------------------------------------

             Standard Nuclear Orientation (Angstroms)
    I     Atom           X                Y                Z
 ----------------------------------------------------------------
    1      C      -0.1108350000    -0.5664890000     0.0000150000
    2      C       0.0327650000     0.2658110000     1.1130150000
    3      C       0.2696650000     1.6365110000     0.8206150000
    4      H      -0.0332350000    -0.1165890000     2.1429150000
    5      C       0.3121650000     1.8810110000    -0.5635850000
    6      S       0.0540650000     0.3900110000    -1.4646850000
    7      C       0.4510650000     2.6855110000     1.8824150000
    8      H       0.3746650000     2.2441110000     2.8950150000
    9      H      -0.3165350000     3.4840110000     1.8081150000
   10      H       1.4421650000     3.1799110000     1.8082150000
   11      C      -0.1108350000    -2.0165890000     0.0000150000
   12      H      -1.1257350000    -2.0170890000     0.3694150000
   13      H      -0.4315350000    -2.5516890000    -0.8815850000
   14      H       0.1744650000    -2.7037890000     0.7828150000
   15      H       0.4752650000     2.8250110000    -1.0970850000
 ----------------------------------------------------------------

   10    -629.4220213632      6.39e-07  Convergence criterion met
 Total energy in the final basis set =     -629.4220213632
        RIMP2         total energy =      -630.5985240991 a.u.

                    Orbital Energies (a.u.)
 --------------------------------------------------------------

 Alpha MOs
 -- Occupied --
-91.9787 -11.2834 -11.2506 -11.2473 -11.2267 -11.2243 -11.2210  -8.9784
 -6.6593  -6.6588  -6.6582  -1.1598  -1.0538  -0.9977  -0.9408  -0.8841
 -0.7430  -0.7191  -0.6482  -0.5868  -0.5730  -0.5665  -0.5573  -0.5442
 -0.5085  -0.4947  -0.4634  -0.4543  -0.3375  -0.2905

          Ground-State Mulliken Net Atomic Charges

     Atom                 Charge (a.u.)
  ----------------------------------------
      1 C                     0.059252
      2 C                    -0.306315
      3 C                     0.050172
      4 H                     0.174083
      5 C                    -0.275019
      6 S                     0.004082
      7 C                    -0.274361
      8 H                     0.101406
      9 H                     0.107218
     10 H                     0.107305
     11 C                    -0.380158
     12 H                     0.139722
     13 H                     0.139424
     14 H                     0.160426
     15 H                     0.192761
  ----------------------------------------
  Sum of atomic charges =     0.000000

                    Cartesian Multipole Moments
 -----------------------------------------------------------------
    Charge (ESU x 10^10)
                -0.0000
    Dipole Moment (Debye)
         X      -0.5000      Y      -0.6180      Z       1.6610
       Tot       1.8414
    Quadrupole Moments (Debye-Ang)
        XX     -53.9379     XY       2.9603     YY     -42.1103
        XZ       0.2309     YZ      -0.2048     ZZ     -48.5596

 Total job time:  16.01s(wall), 735.09s(cpu)
        *  Thank you very much for using Q-Chem.  Have a nice day.  *
