 Q-Chem 5.4, Q-Chem, Inc., Pleasanton, CA (2021)
 Q-Chem 5.4.0 for Intel X86 EM64T Linux

User input:
--------------------------------------------------------------
$molecule
0 1
C	-0.582018	-0.238938	0.000852
C	0.147882	0.186062	1.113852
C	1.350182	0.885562	0.821452
H	-0.187518	-0.009138	2.143752
C	1.564782	1.010262	-0.562748
S	0.256682	0.249562	-1.463848
C	2.270382	1.420962	1.883252
H	1.883082	1.195762	2.895852
H	2.388582	2.522262	1.808952
H	3.286182	0.979462	1.809052
C	-0.582018	-1.689038	0.000852
H	-1.645618	-1.689538	0.188452
H	-0.744718	-2.224138	-0.923048
H	-0.437018	-2.376238	0.821352
H	2.392782	1.492062	-1.096248
$end

$rem
JOBTYPE		SP
EXCHANGE	HF
CORRELATION	pRIMP2
BASIS		cc-pvtz
METHOD		rimp2
AUX_BASIS	rimp2-cc-pvtz
SOLVENT_METHOD	PCM
PURECART	11111
SYMMETRY	false
MEM_TOTAL	110000
SCF_CONVERGENCE = 6
THRESH=10
GUI = 2
$end

$solvent
dielectric 4.90
$end
--------------------------------------------------------------

             Standard Nuclear Orientation (Angstroms)
    I     Atom           X                Y                Z
 ----------------------------------------------------------------
    1      C      -0.5820180000    -0.2389380000     0.0008520000
    2      C       0.1478820000     0.1860620000     1.1138520000
    3      C       1.3501820000     0.8855620000     0.8214520000
    4      H      -0.1875180000    -0.0091380000     2.1437520000
    5      C       1.5647820000     1.0102620000    -0.5627480000
    6      S       0.2566820000     0.2495620000    -1.4638480000
    7      C       2.2703820000     1.4209620000     1.8832520000
    8      H       1.8830820000     1.1957620000     2.8958520000
    9      H       2.3885820000     2.5222620000     1.8089520000
   10      H       3.2861820000     0.9794620000     1.8090520000
   11      C      -0.5820180000    -1.6890380000     0.0008520000
   12      H      -1.6456180000    -1.6895380000     0.1884520000
   13      H      -0.7447180000    -2.2241380000    -0.9230480000
   14      H      -0.4370180000    -2.3762380000     0.8213520000
   15      H       2.3927820000     1.4920620000    -1.0962480000
 ----------------------------------------------------------------

   11    -629.3388299445      6.33e-07  Convergence criterion met
 Total energy in the final basis set =     -629.3388299445
        RIMP2         total energy =      -630.5313067714 a.u.

                    Orbital Energies (a.u.)
 --------------------------------------------------------------

 Alpha MOs
 -- Occupied --
-91.9714 -11.2802 -11.2521 -11.2486 -11.2419 -11.2287 -11.2053  -8.9725
 -6.6533  -6.6523  -6.6521  -1.1708  -1.0533  -0.9969  -0.9384  -0.8826
 -0.7498  -0.7295  -0.6422  -0.5867  -0.5776  -0.5646  -0.5528  -0.5416
 -0.5179  -0.4931  -0.4586  -0.4190  -0.3346  -0.2852

          Ground-State Mulliken Net Atomic Charges

     Atom                 Charge (a.u.)
  ----------------------------------------
      1 C                    -0.105696
      2 C                    -0.132841
      3 C                    -0.014460
      4 H                     0.183323
      5 C                    -0.186275
      6 S                     0.012627
      7 C                    -0.268699
      8 H                     0.101860
      9 H                     0.106616
     10 H                     0.104492
     11 C                    -0.398078
     12 H                     0.125878
     13 H                     0.130130
     14 H                     0.145052
     15 H                     0.196070
  ----------------------------------------
  Sum of atomic charges =     0.000000

                    Cartesian Multipole Moments
 -----------------------------------------------------------------
    Charge (ESU x 10^10)
                -0.0000
    Dipole Moment (Debye)
         X       1.7645      Y       0.0302      Z       1.8950
       Tot       2.5895
    Quadrupole Moments (Debye-Ang)
        XX     -47.8349     XY       5.3000     YY     -50.0451
        XZ      -0.1685     YZ      -0.0938     ZZ     -47.5460

 Total job time:  17.33s(wall), 818.85s(cpu)
        *  Thank you very much for using Q-Chem.  Have a nice day.  *
