 Q-Chem 5.4, Q-Chem, Inc., Pleasanton, CA (2021)
 Q-Chem 5.4.0 for Intel X86 EM64T Linux

User input:
--------------------------------------------------------------
$molecule
0 1
C	-0.002460	-0.576386	0.001609
C	-0.005560	0.268214	1.114609
C	-0.010260	1.659214	0.822209
H	-0.004160	-0.119886	2.144509
C	-0.010860	1.907314	-0.561991
S	-0.006160	0.394214	-1.463091
C	-0.013860	2.723814	1.884009
H	-0.012360	2.275814	2.896609
H	-0.908360	3.376814	1.809709
H	0.876440	3.382714	1.809809
C	-0.002460	-2.026486	0.001609
H	1.061140	-2.026986	-0.185991
H	0.160240	-2.561586	0.925509
H	-0.147460	-2.713686	-0.818891
H	-0.014160	2.865414	-1.095491
$end

$rem
JOBTYPE		SP
EXCHANGE	HF
CORRELATION	pRIMP2
BASIS		cc-pvtz
METHOD		rimp2
AUX_BASIS	rimp2-cc-pvtz
SOLVENT_METHOD	PCM
PURECART	11111
SYMMETRY	false
MEM_TOTAL	110000
SCF_CONVERGENCE = 6
THRESH=10
GUI = 2
$end

$solvent
dielectric 4.90
$end
--------------------------------------------------------------

             Standard Nuclear Orientation (Angstroms)
    I     Atom           X                Y                Z
 ----------------------------------------------------------------
    1      C      -0.0024600000    -0.5763860000     0.0016090000
    2      C      -0.0055600000     0.2682140000     1.1146090000
    3      C      -0.0102600000     1.6592140000     0.8222090000
    4      H      -0.0041600000    -0.1198860000     2.1445090000
    5      C      -0.0108600000     1.9073140000    -0.5619910000
    6      S      -0.0061600000     0.3942140000    -1.4630910000
    7      C      -0.0138600000     2.7238140000     1.8840090000
    8      H      -0.0123600000     2.2758140000     2.8966090000
    9      H      -0.9083600000     3.3768140000     1.8097090000
   10      H       0.8764400000     3.3827140000     1.8098090000
   11      C      -0.0024600000    -2.0264860000     0.0016090000
   12      H       1.0611400000    -2.0269860000    -0.1859910000
   13      H       0.1602400000    -2.5615860000     0.9255090000
   14      H      -0.1474600000    -2.7136860000    -0.8188910000
   15      H      -0.0141600000     2.8654140000    -1.0954910000
 ----------------------------------------------------------------

   10    -629.4261217493      6.79e-07  Convergence criterion met
 Total energy in the final basis set =     -629.4261217493
        RIMP2         total energy =      -630.6009675792 a.u.

                    Orbital Energies (a.u.)
 --------------------------------------------------------------

 Alpha MOs
 -- Occupied --
-91.9783 -11.2860 -11.2496 -11.2471 -11.2266 -11.2232 -11.2231  -8.9781
 -6.6591  -6.6586  -6.6580  -1.1600  -1.0546  -0.9971  -0.9419  -0.8836
 -0.7441  -0.7181  -0.6469  -0.5892  -0.5751  -0.5691  -0.5512  -0.5460
 -0.5074  -0.4952  -0.4660  -0.4560  -0.3385  -0.2899

          Ground-State Mulliken Net Atomic Charges

     Atom                 Charge (a.u.)
  ----------------------------------------
      1 C                     0.056702
      2 C                    -0.299645
      3 C                     0.045760
      4 H                     0.177579
      5 C                    -0.276843
      6 S                    -0.003759
      7 C                    -0.274197
      8 H                     0.101465
      9 H                     0.107348
     10 H                     0.107407
     11 C                    -0.379788
     12 H                     0.140671
     13 H                     0.144151
     14 H                     0.159591
     15 H                     0.193560
  ----------------------------------------
  Sum of atomic charges =     0.000000

                    Cartesian Multipole Moments
 -----------------------------------------------------------------
    Charge (ESU x 10^10)
                -0.0000
    Dipole Moment (Debye)
         X       0.7233      Y      -0.7312      Z       1.2937
       Tot       1.6527
    Quadrupole Moments (Debye-Ang)
        XX     -54.4137     XY      -1.5505     YY     -41.6093
        XZ       0.1243     YZ       0.8019     ZZ     -48.5969

 Total job time:  16.43s(wall), 774.58s(cpu)
        *  Thank you very much for using Q-Chem.  Have a nice day.  *
