 Q-Chem 5.4, Q-Chem, Inc., Pleasanton, CA (2021)
 Q-Chem 5.4.0 for Intel X86 EM64T Linux

User input:
--------------------------------------------------------------
$molecule
0 1
C	-0.429793	-0.419059	0.000852
C	0.110707	0.229941	1.113852
C	1.001207	1.298441	0.821452
H	-0.137693	-0.068259	2.143752
C	1.160307	1.489041	-0.562748
S	0.191307	0.326841	-1.463848
C	1.682807	2.116341	1.883252
H	1.396007	1.772241	2.895852
H	1.417307	3.191641	1.808952
H	2.788407	2.048841	1.809052
C	-0.429793	-1.869159	0.000852
H	-1.493393	-1.869659	0.188452
H	-0.592493	-2.404259	-0.923048
H	-0.284793	-2.556359	0.821352
H	1.773507	2.225041	-1.096248
$end

$rem
JOBTYPE		SP
EXCHANGE	HF
CORRELATION	pRIMP2
BASIS		cc-pvtz
METHOD		rimp2
AUX_BASIS	rimp2-cc-pvtz
SOLVENT_METHOD	PCM
PURECART	11111
SYMMETRY	false
MEM_TOTAL	110000
SCF_CONVERGENCE = 6
THRESH=10
GUI = 2
$end

$solvent
dielectric 4.90
$end
--------------------------------------------------------------

             Standard Nuclear Orientation (Angstroms)
    I     Atom           X                Y                Z
 ----------------------------------------------------------------
    1      C      -0.4297930000    -0.4190590000     0.0008520000
    2      C       0.1107070000     0.2299410000     1.1138520000
    3      C       1.0012070000     1.2984410000     0.8214520000
    4      H      -0.1376930000    -0.0682590000     2.1437520000
    5      C       1.1603070000     1.4890410000    -0.5627480000
    6      S       0.1913070000     0.3268410000    -1.4638480000
    7      C       1.6828070000     2.1163410000     1.8832520000
    8      H       1.3960070000     1.7722410000     2.8958520000
    9      H       1.4173070000     3.1916410000     1.8089520000
   10      H       2.7884070000     2.0488410000     1.8090520000
   11      C      -0.4297930000    -1.8691590000     0.0008520000
   12      H      -1.4933930000    -1.8696590000     0.1884520000
   13      H      -0.5924930000    -2.4042590000    -0.9230480000
   14      H      -0.2847930000    -2.5563590000     0.8213520000
   15      H       1.7735070000     2.2250410000    -1.0962480000
 ----------------------------------------------------------------

   10    -629.3848109630      6.27e-07  Convergence criterion met
 Total energy in the final basis set =     -629.3848109630
        RIMP2         total energy =      -630.5700439955 a.u.

                    Orbital Energies (a.u.)
 --------------------------------------------------------------

 Alpha MOs
 -- Occupied --
-91.9750 -11.2671 -11.2620 -11.2478 -11.2349 -11.2274 -11.2128  -8.9753
 -6.6562  -6.6555  -6.6550  -1.1633  -1.0525  -0.9962  -0.9403  -0.8835
 -0.7453  -0.7225  -0.6444  -0.5843  -0.5753  -0.5649  -0.5552  -0.5429
 -0.5137  -0.4944  -0.4577  -0.4411  -0.3366  -0.2873

          Ground-State Mulliken Net Atomic Charges

     Atom                 Charge (a.u.)
  ----------------------------------------
      1 C                    -0.010773
      2 C                    -0.244436
      3 C                     0.035681
      4 H                     0.176645
      5 C                    -0.243507
      6 S                     0.006586
      7 C                    -0.269579
      8 H                     0.101531
      9 H                     0.107129
     10 H                     0.105921
     11 C                    -0.383713
     12 H                     0.129919
     13 H                     0.138146
     14 H                     0.157175
     15 H                     0.193274
  ----------------------------------------
  Sum of atomic charges =     0.000000

                    Cartesian Multipole Moments
 -----------------------------------------------------------------
    Charge (ESU x 10^10)
                -0.0000
    Dipole Moment (Debye)
         X       0.4529      Y      -0.2076      Z       1.7012
       Tot       1.7727
    Quadrupole Moments (Debye-Ang)
        XX     -50.5598     XY       5.7677     YY     -46.2335
        XZ       0.1528     YZ      -0.1109     ZZ     -48.1758

 Total job time:  18.89s(wall), 790.49s(cpu)
        *  Thank you very much for using Q-Chem.  Have a nice day.  *
