 Q-Chem 5.4, Q-Chem, Inc., Pleasanton, CA (2021)
 Q-Chem 5.4.0 for Intel X86 EM64T Linux

User input:
--------------------------------------------------------------
$molecule
0 1
C	-0.285195	-0.513776	-0.003627
C	0.069005	0.253024	1.109373
C	0.652605	1.515624	0.816973
H	-0.093895	-0.099276	2.139273
C	0.756805	1.740824	-0.567227
S	0.121705	0.367424	-1.468327
C	1.099205	2.482024	1.878773
H	0.911205	2.075424	2.891373
H	0.564405	3.451924	1.804473
H	2.184605	2.703024	1.804573
C	-0.285195	-1.963876	-0.003627
H	-0.097595	-1.964376	1.059973
H	-1.209095	-2.498976	0.159073
H	0.535305	-2.651076	-0.148627
H	1.158705	2.610424	-1.100727
$end

$rem
JOBTYPE		SP
EXCHANGE	HF
CORRELATION	pRIMP2
BASIS		cc-pvtz
METHOD		rimp2
AUX_BASIS	rimp2-cc-pvtz
SOLVENT_METHOD	PCM
PURECART	11111
SYMMETRY	false
MEM_TOTAL	110000
SCF_CONVERGENCE = 6
THRESH=10
GUI = 2
$end

$solvent
dielectric 4.90
$end
--------------------------------------------------------------

             Standard Nuclear Orientation (Angstroms)
    I     Atom           X                Y                Z
 ----------------------------------------------------------------
    1      C      -0.2851950000    -0.5137760000    -0.0036270000
    2      C       0.0690050000     0.2530240000     1.1093730000
    3      C       0.6526050000     1.5156240000     0.8169730000
    4      H      -0.0938950000    -0.0992760000     2.1392730000
    5      C       0.7568050000     1.7408240000    -0.5672270000
    6      S       0.1217050000     0.3674240000    -1.4683270000
    7      C       1.0992050000     2.4820240000     1.8787730000
    8      H       0.9112050000     2.0754240000     2.8913730000
    9      H       0.5644050000     3.4519240000     1.8044730000
   10      H       2.1846050000     2.7030240000     1.8045730000
   11      C      -0.2851950000    -1.9638760000    -0.0036270000
   12      H      -0.0975950000    -1.9643760000     1.0599730000
   13      H      -1.2090950000    -2.4989760000     0.1590730000
   14      H       0.5353050000    -2.6510760000    -0.1486270000
   15      H       1.1587050000     2.6104240000    -1.1007270000
 ----------------------------------------------------------------

   10    -629.4117119349      4.95e-07  Convergence criterion met
 Total energy in the final basis set =     -629.4117119349
        RIMP2         total energy =      -630.5923801281 a.u.

                    Orbital Energies (a.u.)
 --------------------------------------------------------------

 Alpha MOs
 -- Occupied --
-91.9754 -11.2727 -11.2613 -11.2475 -11.2363 -11.2279 -11.2146  -8.9755
 -6.6564  -6.6558  -6.6554  -1.1627  -1.0524  -0.9996  -0.9375  -0.8851
 -0.7429  -0.7253  -0.6464  -0.5893  -0.5789  -0.5692  -0.5568  -0.5410
 -0.5128  -0.4779  -0.4681  -0.4383  -0.3364  -0.3044

          Ground-State Mulliken Net Atomic Charges

     Atom                 Charge (a.u.)
  ----------------------------------------
      1 C                     0.022797
      2 C                    -0.255511
      3 C                     0.033348
      4 H                     0.175259
      5 C                    -0.244424
      6 S                    -0.002857
      7 C                    -0.271041
      8 H                     0.101377
      9 H                     0.107112
     10 H                     0.106790
     11 C                    -0.362915
     12 H                     0.122672
     13 H                     0.123513
     14 H                     0.150281
     15 H                     0.193597
  ----------------------------------------
  Sum of atomic charges =     0.000000

                    Cartesian Multipole Moments
 -----------------------------------------------------------------
    Charge (ESU x 10^10)
                -0.0000
    Dipole Moment (Debye)
         X       0.8135      Y       0.0390      Z       2.1899
       Tot       2.3364
    Quadrupole Moments (Debye-Ang)
        XX     -52.3519     XY       2.9930     YY     -44.0129
        XZ      -0.1883     YZ      -1.0082     ZZ     -48.8299

 Total job time:  15.67s(wall), 739.70s(cpu)
        *  Thank you very much for using Q-Chem.  Have a nice day.  *
