 Q-Chem 5.4, Q-Chem, Inc., Pleasanton, CA (2021)
 Q-Chem 5.4.0 for Intel X86 EM64T Linux

User input:
--------------------------------------------------------------
$molecule
0 1
C	-0.333018	-0.486609	-0.000785
C	0.086582	0.246391	1.112215
C	0.778082	1.453391	0.819815
H	-0.106318	-0.090409	2.142115
C	0.901582	1.668591	-0.564385
S	0.149082	0.355791	-1.465485
C	1.307282	2.377091	1.881615
H	1.084482	1.988491	2.894215
H	0.858982	3.389991	1.807315
H	2.407682	2.502691	1.807415
C	-0.333018	-1.936709	-0.000785
H	-1.268318	-1.937209	0.539215
H	-0.801918	-2.471809	-0.813385
H	0.083882	-2.623909	0.720615
H	1.377682	2.499891	-1.097885
$end

$rem
JOBTYPE		SP
EXCHANGE	HF
CORRELATION	pRIMP2
BASIS		cc-pvtz
METHOD		rimp2
AUX_BASIS	rimp2-cc-pvtz
SOLVENT_METHOD	PCM
PURECART	11111
SYMMETRY	false
MEM_TOTAL	110000
SCF_CONVERGENCE = 6
THRESH=10
GUI = 2
$end

$solvent
dielectric 4.90
$end
--------------------------------------------------------------

             Standard Nuclear Orientation (Angstroms)
    I     Atom           X                Y                Z
 ----------------------------------------------------------------
    1      C      -0.3330180000    -0.4866090000    -0.0007850000
    2      C       0.0865820000     0.2463910000     1.1122150000
    3      C       0.7780820000     1.4533910000     0.8198150000
    4      H      -0.1063180000    -0.0904090000     2.1421150000
    5      C       0.9015820000     1.6685910000    -0.5643850000
    6      S       0.1490820000     0.3557910000    -1.4654850000
    7      C       1.3072820000     2.3770910000     1.8816150000
    8      H       1.0844820000     1.9884910000     2.8942150000
    9      H       0.8589820000     3.3899910000     1.8073150000
   10      H       2.4076820000     2.5026910000     1.8074150000
   11      C      -0.3330180000    -1.9367090000    -0.0007850000
   12      H      -1.2683180000    -1.9372090000     0.5392150000
   13      H      -0.8019180000    -2.4718090000    -0.8133850000
   14      H       0.0838820000    -2.6239090000     0.7206150000
   15      H       1.3776820000     2.4998910000    -1.0978850000
 ----------------------------------------------------------------

   10    -629.4040903707      5.50e-07  Convergence criterion met
 Total energy in the final basis set =     -629.4040903707
        RIMP2         total energy =      -630.5857865990 a.u.

                    Orbital Energies (a.u.)
 --------------------------------------------------------------

 Alpha MOs
 -- Occupied --
-91.9755 -11.2731 -11.2585 -11.2479 -11.2325 -11.2273 -11.2159  -8.9757
 -6.6566  -6.6559  -6.6554  -1.1617  -1.0525  -0.9974  -0.9399  -0.8844
 -0.7437  -0.7219  -0.6464  -0.5852  -0.5758  -0.5642  -0.5582  -0.5428
 -0.5125  -0.4924  -0.4600  -0.4442  -0.3370  -0.2923

          Ground-State Mulliken Net Atomic Charges

     Atom                 Charge (a.u.)
  ----------------------------------------
      1 C                     0.016783
      2 C                    -0.273063
      3 C                     0.041142
      4 H                     0.175684
      5 C                    -0.249734
      6 S                     0.003126
      7 C                    -0.271119
      8 H                     0.101462
      9 H                     0.107025
     10 H                     0.106742
     11 C                    -0.378333
     12 H                     0.132231
     13 H                     0.136166
     14 H                     0.159426
     15 H                     0.192464
  ----------------------------------------
  Sum of atomic charges =     0.000000

                    Cartesian Multipole Moments
 -----------------------------------------------------------------
    Charge (ESU x 10^10)
                -0.0000
    Dipole Moment (Debye)
         X       0.1671      Y      -0.2388      Z       1.8814
       Tot       1.9038
    Quadrupole Moments (Debye-Ang)
        XX     -51.8137     XY       5.1108     YY     -44.5226
        XZ       0.3190     YZ      -0.4867     ZZ     -48.4698

 Total job time:  15.64s(wall), 759.38s(cpu)
        *  Thank you very much for using Q-Chem.  Have a nice day.  *
