 Q-Chem 5.4, Q-Chem, Inc., Pleasanton, CA (2021)
 Q-Chem 5.4.0 for Intel X86 EM64T Linux

User input:
--------------------------------------------------------------
$molecule
0 1
C	-0.588182	-0.238938	0.005925
C	0.141718	0.186062	1.118925
C	1.344018	0.885562	0.826525
H	-0.193682	-0.009138	2.148825
C	1.558618	1.010262	-0.557675
S	0.250518	0.249562	-1.458775
C	2.264218	1.420962	1.888325
H	1.876918	1.195762	2.900925
H	2.382418	2.522262	1.814025
H	3.280018	0.979462	1.814125
C	-0.588182	-1.689038	0.005925
H	-0.400682	-1.689538	-1.057675
H	0.335718	-2.224138	0.169025
H	-1.408782	-2.376238	-0.138475
H	2.386618	1.492062	-1.091175
$end

$rem
JOBTYPE		SP
EXCHANGE	HF
CORRELATION	pRIMP2
BASIS		cc-pvtz
METHOD		rimp2
AUX_BASIS	rimp2-cc-pvtz
SOLVENT_METHOD	PCM
PURECART	11111
SYMMETRY	false
MEM_TOTAL	110000
SCF_CONVERGENCE = 6
THRESH=10
GUI = 2
$end

$solvent
dielectric 4.90
$end
--------------------------------------------------------------

             Standard Nuclear Orientation (Angstroms)
    I     Atom           X                Y                Z
 ----------------------------------------------------------------
    1      C      -0.5881820000    -0.2389380000     0.0059250000
    2      C       0.1417180000     0.1860620000     1.1189250000
    3      C       1.3440180000     0.8855620000     0.8265250000
    4      H      -0.1936820000    -0.0091380000     2.1488250000
    5      C       1.5586180000     1.0102620000    -0.5576750000
    6      S       0.2505180000     0.2495620000    -1.4587750000
    7      C       2.2642180000     1.4209620000     1.8883250000
    8      H       1.8769180000     1.1957620000     2.9009250000
    9      H       2.3824180000     2.5222620000     1.8140250000
   10      H       3.2800180000     0.9794620000     1.8141250000
   11      C      -0.5881820000    -1.6890380000     0.0059250000
   12      H      -0.4006820000    -1.6895380000    -1.0576750000
   13      H       0.3357180000    -2.2241380000     0.1690250000
   14      H      -1.4087820000    -2.3762380000    -0.1384750000
   15      H       2.3866180000     1.4920620000    -1.0911750000
 ----------------------------------------------------------------

   11    -629.3430968351      3.78e-07  Convergence criterion met
 Total energy in the final basis set =     -629.3430968351
        RIMP2         total energy =      -630.5339666806 a.u.

                    Orbital Energies (a.u.)
 --------------------------------------------------------------

 Alpha MOs
 -- Occupied --
-91.9731 -11.2840 -11.2536 -11.2476 -11.2437 -11.2289 -11.2063  -8.9746
 -6.6554  -6.6544  -6.6542  -1.1754  -1.0575  -0.9950  -0.9434  -0.8781
 -0.7569  -0.7280  -0.6438  -0.5921  -0.5814  -0.5658  -0.5515  -0.5465
 -0.5174  -0.4650  -0.4616  -0.4355  -0.3275  -0.3060

          Ground-State Mulliken Net Atomic Charges

     Atom                 Charge (a.u.)
  ----------------------------------------
      1 C                    -0.108856
      2 C                    -0.111391
      3 C                    -0.018232
      4 H                     0.183340
      5 C                    -0.184339
      6 S                     0.005440
      7 C                    -0.268148
      8 H                     0.102298
      9 H                     0.106901
     10 H                     0.103762
     11 C                    -0.369604
     12 H                     0.124597
     13 H                     0.114724
     14 H                     0.120194
     15 H                     0.199314
  ----------------------------------------
  Sum of atomic charges =     0.000000

                    Cartesian Multipole Moments
 -----------------------------------------------------------------
    Charge (ESU x 10^10)
                -0.0000
    Dipole Moment (Debye)
         X       2.5709      Y       0.2005      Z       1.1832
       Tot       2.8372
    Quadrupole Moments (Debye-Ang)
        XX     -48.0424     XY       4.1544     YY     -50.2345
        XZ       0.0861     YZ       1.2850     ZZ     -47.8244

 Total job time:  17.79s(wall), 837.43s(cpu)
        *  Thank you very much for using Q-Chem.  Have a nice day.  *
