 Q-Chem 5.4, Q-Chem, Inc., Pleasanton, CA (2021)
 Q-Chem 5.4.0 for Intel X86 EM64T Linux

User input:
--------------------------------------------------------------
$molecule
0 1
C	-0.056322	-0.574004	-0.003619
C	0.014178	0.267696	1.109381
C	0.130778	1.653696	0.816981
H	-0.018222	-0.119104	2.139281
C	0.151778	1.900996	-0.567219
S	0.024578	0.393196	-1.468319
C	0.219978	2.714596	1.878781
H	0.182378	2.268196	2.891381
H	-0.614322	3.443096	1.804481
H	1.164278	3.293496	1.804581
C	-0.056322	-2.024104	-0.003619
H	-0.056322	-2.024604	1.076381
H	-0.994422	-2.559204	-0.003819
H	0.776878	-2.711304	-0.003919
H	0.231978	2.855696	-1.100719
$end

$rem
JOBTYPE		SP
EXCHANGE	HF
CORRELATION	pRIMP2
BASIS		cc-pvtz
METHOD		rimp2
AUX_BASIS	rimp2-cc-pvtz
SOLVENT_METHOD	PCM
PURECART	11111
SYMMETRY	false
MEM_TOTAL	110000
SCF_CONVERGENCE = 6
THRESH=10
GUI = 2
$end

$solvent
dielectric 4.90
$end
--------------------------------------------------------------

             Standard Nuclear Orientation (Angstroms)
    I     Atom           X                Y                Z
 ----------------------------------------------------------------
    1      C      -0.0563220000    -0.5740040000    -0.0036190000
    2      C       0.0141780000     0.2676960000     1.1093810000
    3      C       0.1307780000     1.6536960000     0.8169810000
    4      H      -0.0182220000    -0.1191040000     2.1392810000
    5      C       0.1517780000     1.9009960000    -0.5672190000
    6      S       0.0245780000     0.3931960000    -1.4683190000
    7      C       0.2199780000     2.7145960000     1.8787810000
    8      H       0.1823780000     2.2681960000     2.8913810000
    9      H      -0.6143220000     3.4430960000     1.8044810000
   10      H       1.1642780000     3.2934960000     1.8045810000
   11      C      -0.0563220000    -2.0241040000    -0.0036190000
   12      H      -0.0563220000    -2.0246040000     1.0763810000
   13      H      -0.9944220000    -2.5592040000    -0.0038190000
   14      H       0.7768780000    -2.7113040000    -0.0039190000
   15      H       0.2319780000     2.8556960000    -1.1007190000
 ----------------------------------------------------------------

   10    -629.4258004851      4.84e-07  Convergence criterion met
 Total energy in the final basis set =     -629.4258004851
        RIMP2         total energy =      -630.6034508837 a.u.

                    Orbital Energies (a.u.)
 --------------------------------------------------------------

 Alpha MOs
 -- Occupied --
-91.9754 -11.2776 -11.2582 -11.2472 -11.2341 -11.2276 -11.2172  -8.9755
 -6.6564  -6.6559  -6.6553  -1.1610  -1.0524  -0.9997  -0.9389  -0.8855
 -0.7424  -0.7239  -0.6478  -0.5909  -0.5780  -0.5667  -0.5590  -0.5410
 -0.5103  -0.4854  -0.4679  -0.4384  -0.3378  -0.3053

          Ground-State Mulliken Net Atomic Charges

     Atom                 Charge (a.u.)
  ----------------------------------------
      1 C                     0.059565
      2 C                    -0.267064
      3 C                     0.030095
      4 H                     0.176453
      5 C                    -0.249365
      6 S                    -0.007743
      7 C                    -0.273570
      8 H                     0.101263
      9 H                     0.107212
     10 H                     0.107323
     11 C                    -0.368006
     12 H                     0.119643
     13 H                     0.128830
     14 H                     0.141445
     15 H                     0.193918
  ----------------------------------------
  Sum of atomic charges =     0.000000

                    Cartesian Multipole Moments
 -----------------------------------------------------------------
    Charge (ESU x 10^10)
                -0.0000
    Dipole Moment (Debye)
         X       0.1128      Y      -0.0537      Z       2.1647
       Tot       2.1683
    Quadrupole Moments (Debye-Ang)
        XX     -53.6284     XY       0.6484     YY     -42.1816
        XZ      -0.0071     YZ      -1.0243     ZZ     -48.9968

 Total job time:  16.00s(wall), 748.05s(cpu)
        *  Thank you very much for using Q-Chem.  Have a nice day.  *
