 Q-Chem 5.4, Q-Chem, Inc., Pleasanton, CA (2021)
 Q-Chem 5.4.0 for Intel X86 EM64T Linux

User input:
--------------------------------------------------------------
$molecule
0 1
C	-0.170599	-0.553870	-0.002733
C	0.045001	0.262730	1.110267
C	0.400501	1.607530	0.817867
H	-0.054099	-0.112470	2.140167
C	0.464101	1.847430	-0.566333
S	0.077001	0.384630	-1.467433
C	0.672601	2.636830	1.879667
H	0.558001	2.203730	2.892267
H	-0.022499	3.499130	1.805367
H	1.703101	3.042930	1.805467
C	-0.170599	-2.003970	-0.002733
H	-0.710599	-2.004470	0.932567
H	-0.982899	-2.539070	-0.472033
H	0.551101	-2.691170	0.413567
H	0.708901	2.773630	-1.099833
$end

$rem
JOBTYPE		SP
EXCHANGE	HF
CORRELATION	pRIMP2
BASIS		cc-pvtz
METHOD		rimp2
AUX_BASIS	rimp2-cc-pvtz
SOLVENT_METHOD	PCM
PURECART	11111
SYMMETRY	false
MEM_TOTAL	110000
SCF_CONVERGENCE = 6
THRESH=10
GUI = 2
$end

$solvent
dielectric 4.90
$end
--------------------------------------------------------------

             Standard Nuclear Orientation (Angstroms)
    I     Atom           X                Y                Z
 ----------------------------------------------------------------
    1      C      -0.1705990000    -0.5538700000    -0.0027330000
    2      C       0.0450010000     0.2627300000     1.1102670000
    3      C       0.4005010000     1.6075300000     0.8178670000
    4      H      -0.0540990000    -0.1124700000     2.1401670000
    5      C       0.4641010000     1.8474300000    -0.5663330000
    6      S       0.0770010000     0.3846300000    -1.4674330000
    7      C       0.6726010000     2.6368300000     1.8796670000
    8      H       0.5580010000     2.2037300000     2.8922670000
    9      H      -0.0224990000     3.4991300000     1.8053670000
   10      H       1.7031010000     3.0429300000     1.8054670000
   11      C      -0.1705990000    -2.0039700000    -0.0027330000
   12      H      -0.7105990000    -2.0044700000     0.9325670000
   13      H      -0.9828990000    -2.5390700000    -0.4720330000
   14      H       0.5511010000    -2.6911700000     0.4135670000
   15      H       0.7089010000     2.7736300000    -1.0998330000
 ----------------------------------------------------------------

   10    -629.4214264543      5.09e-07  Convergence criterion met
 Total energy in the final basis set =     -629.4214264543
        RIMP2         total energy =      -630.5999160738 a.u.

                    Orbital Energies (a.u.)
 --------------------------------------------------------------

 Alpha MOs
 -- Occupied --
-91.9757 -11.2767 -11.2578 -11.2475 -11.2330 -11.2275 -11.2173  -8.9758
 -6.6567  -6.6561  -6.6556  -1.1609  -1.0524  -0.9990  -0.9393  -0.8853
 -0.7427  -0.7229  -0.6479  -0.5887  -0.5769  -0.5658  -0.5592  -0.5417
 -0.5109  -0.4875  -0.4657  -0.4414  -0.3375  -0.3012

          Ground-State Mulliken Net Atomic Charges

     Atom                 Charge (a.u.)
  ----------------------------------------
      1 C                     0.041819
      2 C                    -0.270381
      3 C                     0.036594
      4 H                     0.177374
      5 C                    -0.254040
      6 S                    -0.004722
      7 C                    -0.272963
      8 H                     0.101339
      9 H                     0.107042
     10 H                     0.107280
     11 C                    -0.366476
     12 H                     0.122407
     13 H                     0.136476
     14 H                     0.144575
     15 H                     0.193676
  ----------------------------------------
  Sum of atomic charges =     0.000000

                    Cartesian Multipole Moments
 -----------------------------------------------------------------
    Charge (ESU x 10^10)
                -0.0000
    Dipole Moment (Debye)
         X       0.0409      Y      -0.1220      Z       2.0890
       Tot       2.0930
    Quadrupole Moments (Debye-Ang)
        XX     -53.2010     XY       2.9058     YY     -42.7298
        XZ       0.2742     YZ      -0.9219     ZZ     -48.8334

 Total job time:  15.86s(wall), 740.54s(cpu)
        *  Thank you very much for using Q-Chem.  Have a nice day.  *
