 Q-Chem 5.4, Q-Chem, Inc., Pleasanton, CA (2021)
 Q-Chem 5.4.0 for Intel X86 EM64T Linux

User input:
--------------------------------------------------------------
$molecule
0 1
C	-0.053316	-0.574004	-0.002181
C	0.017184	0.267696	1.110819
C	0.133784	1.653696	0.818419
H	-0.015216	-0.119104	2.140719
C	0.154784	1.900996	-0.565781
S	0.027584	0.393196	-1.466881
C	0.222984	2.714596	1.880219
H	0.185384	2.268196	2.892819
H	-0.611316	3.443096	1.805919
H	1.167284	3.293496	1.806019
C	-0.053316	-2.024104	-0.002181
H	-0.747516	-2.024604	0.825119
H	-0.771816	-2.559204	-0.605381
H	0.585184	-2.711304	0.533119
H	0.234984	2.855696	-1.099281
$end

$rem
JOBTYPE		SP
EXCHANGE	HF
CORRELATION	pRIMP2
BASIS		cc-pvtz
METHOD		rimp2
AUX_BASIS	rimp2-cc-pvtz
SOLVENT_METHOD	PCM
PURECART	11111
SYMMETRY	false
MEM_TOTAL	110000
SCF_CONVERGENCE = 6
THRESH=10
GUI = 2
$end

$solvent
dielectric 4.90
$end
--------------------------------------------------------------

             Standard Nuclear Orientation (Angstroms)
    I     Atom           X                Y                Z
 ----------------------------------------------------------------
    1      C      -0.0533160000    -0.5740040000    -0.0021810000
    2      C       0.0171840000     0.2676960000     1.1108190000
    3      C       0.1337840000     1.6536960000     0.8184190000
    4      H      -0.0152160000    -0.1191040000     2.1407190000
    5      C       0.1547840000     1.9009960000    -0.5657810000
    6      S       0.0275840000     0.3931960000    -1.4668810000
    7      C       0.2229840000     2.7145960000     1.8802190000
    8      H       0.1853840000     2.2681960000     2.8928190000
    9      H      -0.6113160000     3.4430960000     1.8059190000
   10      H       1.1672840000     3.2934960000     1.8060190000
   11      C      -0.0533160000    -2.0241040000    -0.0021810000
   12      H      -0.7475160000    -2.0246040000     0.8251190000
   13      H      -0.7718160000    -2.5592040000    -0.6053810000
   14      H       0.5851840000    -2.7113040000     0.5331190000
   15      H       0.2349840000     2.8556960000    -1.0992810000
 ----------------------------------------------------------------

   10    -629.4248154973      5.42e-07  Convergence criterion met
 Total energy in the final basis set =     -629.4248154973
        RIMP2         total energy =      -630.6020044878 a.u.

                    Orbital Energies (a.u.)
 --------------------------------------------------------------

 Alpha MOs
 -- Occupied --
-91.9772 -11.2804 -11.2543 -11.2474 -11.2292 -11.2272 -11.2188  -8.9770
 -6.6580  -6.6574  -6.6569  -1.1603  -1.0529  -0.9988  -0.9396  -0.8849
 -0.7425  -0.7214  -0.6484  -0.5890  -0.5751  -0.5654  -0.5598  -0.5423
 -0.5092  -0.4898  -0.4663  -0.4465  -0.3372  -0.2979

          Ground-State Mulliken Net Atomic Charges

     Atom                 Charge (a.u.)
  ----------------------------------------
      1 C                     0.059112
      2 C                    -0.276504
      3 C                     0.035882
      4 H                     0.176483
      5 C                    -0.262146
      6 S                    -0.004627
      7 C                    -0.274610
      8 H                     0.101349
      9 H                     0.107123
     10 H                     0.107353
     11 C                    -0.376989
     12 H                     0.129530
     13 H                     0.138528
     14 H                     0.146155
     15 H                     0.193363
  ----------------------------------------
  Sum of atomic charges =     0.000000

                    Cartesian Multipole Moments
 -----------------------------------------------------------------
    Charge (ESU x 10^10)
                -0.0000
    Dipole Moment (Debye)
         X      -0.3424      Y      -0.3174      Z       1.9880
       Tot       2.0421
    Quadrupole Moments (Debye-Ang)
        XX     -53.8690     XY       1.7037     YY     -42.1019
        XZ       0.3200     YZ      -0.7830     ZZ     -48.7694

 Total job time:  15.90s(wall), 742.16s(cpu)
        *  Thank you very much for using Q-Chem.  Have a nice day.  *
