 Q-Chem 5.4, Q-Chem, Inc., Pleasanton, CA (2021)
 Q-Chem 5.4.0 for Intel X86 EM64T Linux

User input:
--------------------------------------------------------------
$molecule
0 1
C	-0.289535	-0.513776	0.002446
C	0.064665	0.253024	1.115446
C	0.648265	1.515624	0.823046
H	-0.098235	-0.099276	2.145346
C	0.752465	1.740824	-0.561154
S	0.117365	0.367424	-1.462254
C	1.094865	2.482024	1.884846
H	0.906865	2.075424	2.897446
H	0.560065	3.451924	1.810546
H	2.180265	2.703024	1.810646
C	-0.289535	-1.963876	0.002446
H	0.725365	-1.964376	-0.366954
H	0.031165	-2.498976	0.884046
H	-0.574835	-2.651076	-0.780354
H	1.154365	2.610424	-1.094654
$end

$rem
JOBTYPE		SP
EXCHANGE	HF
CORRELATION	pRIMP2
BASIS		cc-pvtz
METHOD		rimp2
AUX_BASIS	rimp2-cc-pvtz
SOLVENT_METHOD	PCM
PURECART	11111
SYMMETRY	false
MEM_TOTAL	110000
SCF_CONVERGENCE = 6
THRESH=10
GUI = 2
$end

$solvent
dielectric 4.90
$end
--------------------------------------------------------------

             Standard Nuclear Orientation (Angstroms)
    I     Atom           X                Y                Z
 ----------------------------------------------------------------
    1      C      -0.2895350000    -0.5137760000     0.0024460000
    2      C       0.0646650000     0.2530240000     1.1154460000
    3      C       0.6482650000     1.5156240000     0.8230460000
    4      H      -0.0982350000    -0.0992760000     2.1453460000
    5      C       0.7524650000     1.7408240000    -0.5611540000
    6      S       0.1173650000     0.3674240000    -1.4622540000
    7      C       1.0948650000     2.4820240000     1.8848460000
    8      H       0.9068650000     2.0754240000     2.8974460000
    9      H       0.5600650000     3.4519240000     1.8105460000
   10      H       2.1802650000     2.7030240000     1.8106460000
   11      C      -0.2895350000    -1.9638760000     0.0024460000
   12      H       0.7253650000    -1.9643760000    -0.3669540000
   13      H       0.0311650000    -2.4989760000     0.8840460000
   14      H      -0.5748350000    -2.6510760000    -0.7803540000
   15      H       1.1543650000     2.6104240000    -1.0946540000
 ----------------------------------------------------------------

   10    -629.4162244482      6.72e-07  Convergence criterion met
 Total energy in the final basis set =     -629.4162244482
        RIMP2         total energy =      -630.5935543662 a.u.

                    Orbital Energies (a.u.)
 --------------------------------------------------------------

 Alpha MOs
 -- Occupied --
-91.9763 -11.2820 -11.2542 -11.2476 -11.2271 -11.2269 -11.2218  -8.9765
 -6.6575  -6.6569  -6.6563  -1.1629  -1.0552  -0.9960  -0.9416  -0.8827
 -0.7457  -0.7195  -0.6459  -0.5888  -0.5791  -0.5663  -0.5506  -0.5464
 -0.5071  -0.4956  -0.4637  -0.4540  -0.3394  -0.2908

          Ground-State Mulliken Net Atomic Charges

     Atom                 Charge (a.u.)
  ----------------------------------------
      1 C                     0.054203
      2 C                    -0.319752
      3 C                     0.060924
      4 H                     0.177101
      5 C                    -0.270488
      6 S                    -0.004350
      7 C                    -0.270508
      8 H                     0.101673
      9 H                     0.107748
     10 H                     0.106984
     11 C                    -0.370607
     12 H                     0.143185
     13 H                     0.139765
     14 H                     0.151023
     15 H                     0.193098
  ----------------------------------------
  Sum of atomic charges =     0.000000

                    Cartesian Multipole Moments
 -----------------------------------------------------------------
    Charge (ESU x 10^10)
                -0.0000
    Dipole Moment (Debye)
         X       1.2084      Y      -0.5591      Z       1.2777
       Tot       1.8454
    Quadrupole Moments (Debye-Ang)
        XX     -53.2599     XY       2.1403     YY     -43.4829
        XZ       0.3882     YZ       0.8995     ZZ     -48.5873

 Total job time:  17.42s(wall), 770.14s(cpu)
        *  Thank you very much for using Q-Chem.  Have a nice day.  *
