 Q-Chem 5.4, Q-Chem, Inc., Pleasanton, CA (2021)
 Q-Chem 5.4.0 for Intel X86 EM64T Linux

User input:
--------------------------------------------------------------
$molecule
0 1
C	-0.060757	-0.574004	-0.001602
C	0.009743	0.267696	1.111398
C	0.126343	1.653696	0.818998
H	-0.022657	-0.119104	2.141298
C	0.147343	1.900996	-0.565202
S	0.020143	0.393196	-1.466302
C	0.215543	2.714596	1.880798
H	0.177943	2.268196	2.893398
H	-0.618757	3.443096	1.806498
H	1.159843	3.293496	1.806598
C	-0.060757	-2.024104	-0.001602
H	0.874543	-2.024604	0.538398
H	-0.530057	-2.559204	0.810698
H	0.355543	-2.711304	-0.723302
H	0.227543	2.855696	-1.098702
$end

$rem
JOBTYPE		SP
EXCHANGE	HF
CORRELATION	pRIMP2
BASIS		cc-pvtz
METHOD		rimp2
AUX_BASIS	rimp2-cc-pvtz
SOLVENT_METHOD	PCM
PURECART	11111
SYMMETRY	false
MEM_TOTAL	110000
SCF_CONVERGENCE = 6
THRESH=10
GUI = 2
$end

$solvent
dielectric 4.90
$end
--------------------------------------------------------------

             Standard Nuclear Orientation (Angstroms)
    I     Atom           X                Y                Z
 ----------------------------------------------------------------
    1      C      -0.0607570000    -0.5740040000    -0.0016020000
    2      C       0.0097430000     0.2676960000     1.1113980000
    3      C       0.1263430000     1.6536960000     0.8189980000
    4      H      -0.0226570000    -0.1191040000     2.1412980000
    5      C       0.1473430000     1.9009960000    -0.5652020000
    6      S       0.0201430000     0.3931960000    -1.4663020000
    7      C       0.2155430000     2.7145960000     1.8807980000
    8      H       0.1779430000     2.2681960000     2.8933980000
    9      H      -0.6187570000     3.4430960000     1.8064980000
   10      H       1.1598430000     3.2934960000     1.8065980000
   11      C      -0.0607570000    -2.0241040000    -0.0016020000
   12      H       0.8745430000    -2.0246040000     0.5383980000
   13      H      -0.5300570000    -2.5592040000     0.8106980000
   14      H       0.3555430000    -2.7113040000    -0.7233020000
   15      H       0.2275430000     2.8556960000    -1.0987020000
 ----------------------------------------------------------------

   10    -629.4248152232      6.30e-07  Convergence criterion met
 Total energy in the final basis set =     -629.4248152232
        RIMP2         total energy =      -630.6009988611 a.u.

                    Orbital Energies (a.u.)
 --------------------------------------------------------------

 Alpha MOs
 -- Occupied --
-91.9784 -11.2850 -11.2499 -11.2475 -11.2269 -11.2246 -11.2214  -8.9781
 -6.6590  -6.6585  -6.6579  -1.1601  -1.0540  -0.9984  -0.9395  -0.8844
 -0.7425  -0.7194  -0.6472  -0.5900  -0.5733  -0.5703  -0.5565  -0.5434
 -0.5083  -0.4907  -0.4667  -0.4530  -0.3372  -0.2919

          Ground-State Mulliken Net Atomic Charges

     Atom                 Charge (a.u.)
  ----------------------------------------
      1 C                     0.064064
      2 C                    -0.289545
      3 C                     0.040870
      4 H                     0.174744
      5 C                    -0.275376
      6 S                    -0.001206
      7 C                    -0.274570
      8 H                     0.101319
      9 H                     0.107335
     10 H                     0.107261
     11 C                    -0.388540
     12 H                     0.142020
     13 H                     0.140422
     14 H                     0.158558
     15 H                     0.192644
  ----------------------------------------
  Sum of atomic charges =     0.000000

                    Cartesian Multipole Moments
 -----------------------------------------------------------------
    Charge (ESU x 10^10)
                -0.0000
    Dipole Moment (Debye)
         X       0.7192      Y      -0.6512      Z       1.7821
       Tot       2.0291
    Quadrupole Moments (Debye-Ang)
        XX     -54.2292     XY      -0.6865     YY     -41.9301
        XZ      -0.2270     YZ      -0.2171     ZZ     -48.6538

 Total job time:  16.73s(wall), 748.96s(cpu)
        *  Thank you very much for using Q-Chem.  Have a nice day.  *
