 Q-Chem 5.4, Q-Chem, Inc., Pleasanton, CA (2021)
 Q-Chem 5.4.0 for Intel X86 EM64T Linux

User input:
--------------------------------------------------------------
$molecule
0 1
C	-0.281984	-0.513776	-0.002733
C	0.072216	0.253024	1.110267
C	0.655816	1.515624	0.817867
H	-0.090684	-0.099276	2.140167
C	0.760016	1.740824	-0.566333
S	0.124916	0.367424	-1.467433
C	1.102416	2.482024	1.879667
H	0.914416	2.075424	2.892267
H	0.567616	3.451924	1.805367
H	2.187816	2.703024	1.805467
C	-0.281984	-1.963876	-0.002733
H	-0.821984	-1.964376	0.932567
H	-1.094284	-2.498976	-0.472033
H	0.439716	-2.651076	0.413567
H	1.161916	2.610424	-1.099833
$end

$rem
JOBTYPE		SP
EXCHANGE	HF
CORRELATION	pRIMP2
BASIS		cc-pvtz
METHOD		rimp2
AUX_BASIS	rimp2-cc-pvtz
SOLVENT_METHOD	PCM
PURECART	11111
SYMMETRY	false
MEM_TOTAL	110000
SCF_CONVERGENCE = 6
THRESH=10
GUI = 2
$end

$solvent
dielectric 4.90
$end
--------------------------------------------------------------

             Standard Nuclear Orientation (Angstroms)
    I     Atom           X                Y                Z
 ----------------------------------------------------------------
    1      C      -0.2819840000    -0.5137760000    -0.0027330000
    2      C       0.0722160000     0.2530240000     1.1102670000
    3      C       0.6558160000     1.5156240000     0.8178670000
    4      H      -0.0906840000    -0.0992760000     2.1401670000
    5      C       0.7600160000     1.7408240000    -0.5663330000
    6      S       0.1249160000     0.3674240000    -1.4674330000
    7      C       1.1024160000     2.4820240000     1.8796670000
    8      H       0.9144160000     2.0754240000     2.8922670000
    9      H       0.5676160000     3.4519240000     1.8053670000
   10      H       2.1878160000     2.7030240000     1.8054670000
   11      C      -0.2819840000    -1.9638760000    -0.0027330000
   12      H      -0.8219840000    -1.9643760000     0.9325670000
   13      H      -1.0942840000    -2.4989760000    -0.4720330000
   14      H       0.4397160000    -2.6510760000     0.4135670000
   15      H       1.1619160000     2.6104240000    -1.0998330000
 ----------------------------------------------------------------

   10    -629.4134663838      5.14e-07  Convergence criterion met
 Total energy in the final basis set =     -629.4134663838
        RIMP2         total energy =      -630.5939133508 a.u.

                    Orbital Energies (a.u.)
 --------------------------------------------------------------

 Alpha MOs
 -- Occupied --
-91.9747 -11.2725 -11.2610 -11.2478 -11.2359 -11.2278 -11.2158  -8.9749
 -6.6558  -6.6552  -6.6547  -1.1620  -1.0522  -0.9989  -0.9388  -0.8853
 -0.7432  -0.7239  -0.6471  -0.5875  -0.5781  -0.5664  -0.5582  -0.5416
 -0.5127  -0.4857  -0.4643  -0.4385  -0.3375  -0.3016

          Ground-State Mulliken Net Atomic Charges

     Atom                 Charge (a.u.)
  ----------------------------------------
      1 C                     0.018428
      2 C                    -0.259955
      3 C                     0.034856
      4 H                     0.177700
      5 C                    -0.245723
      6 S                    -0.002762
      7 C                    -0.271281
      8 H                     0.101465
      9 H                     0.106964
     10 H                     0.106958
     11 C                    -0.362667
     12 H                     0.119882
     13 H                     0.132647
     14 H                     0.149622
     15 H                     0.193866
  ----------------------------------------
  Sum of atomic charges =     0.000000

                    Cartesian Multipole Moments
 -----------------------------------------------------------------
    Charge (ESU x 10^10)
                -0.0000
    Dipole Moment (Debye)
         X       0.3659      Y      -0.0060      Z       2.1262
       Tot       2.1575
    Quadrupole Moments (Debye-Ang)
        XX     -52.2223     XY       4.0811     YY     -43.8772
        XZ       0.2389     YZ      -0.9399     ZZ     -48.7710

 Total job time:  19.05s(wall), 744.45s(cpu)
        *  Thank you very much for using Q-Chem.  Have a nice day.  *
