 Q-Chem 5.4, Q-Chem, Inc., Pleasanton, CA (2021)
 Q-Chem 5.4.0 for Intel X86 EM64T Linux

User input:
--------------------------------------------------------------
$molecule
0 1
C	-0.289212	-0.513776	-0.000871
C	0.064988	0.253024	1.112129
C	0.648588	1.515624	0.819729
H	-0.097912	-0.099276	2.142029
C	0.752788	1.740824	-0.564471
S	0.117688	0.367424	-1.465571
C	1.095188	2.482024	1.881529
H	0.907188	2.075424	2.894129
H	0.560388	3.451924	1.807229
H	2.180588	2.703024	1.807329
C	-0.289212	-1.963876	-0.000871
H	0.725688	-1.964376	0.368529
H	-0.610312	-2.498976	0.880629
H	-0.004512	-2.651076	-0.783871
H	1.154688	2.610424	-1.097971
$end

$rem
JOBTYPE		SP
EXCHANGE	HF
CORRELATION	pRIMP2
BASIS		cc-pvtz
METHOD		rimp2
AUX_BASIS	rimp2-cc-pvtz
SOLVENT_METHOD	PCM
PURECART	11111
SYMMETRY	false
MEM_TOTAL	110000
SCF_CONVERGENCE = 6
THRESH=10
GUI = 2
$end

$solvent
dielectric 4.90
$end
--------------------------------------------------------------

             Standard Nuclear Orientation (Angstroms)
    I     Atom           X                Y                Z
 ----------------------------------------------------------------
    1      C      -0.2892120000    -0.5137760000    -0.0008710000
    2      C       0.0649880000     0.2530240000     1.1121290000
    3      C       0.6485880000     1.5156240000     0.8197290000
    4      H      -0.0979120000    -0.0992760000     2.1420290000
    5      C       0.7527880000     1.7408240000    -0.5644710000
    6      S       0.1176880000     0.3674240000    -1.4655710000
    7      C       1.0951880000     2.4820240000     1.8815290000
    8      H       0.9071880000     2.0754240000     2.8941290000
    9      H       0.5603880000     3.4519240000     1.8072290000
   10      H       2.1805880000     2.7030240000     1.8073290000
   11      C      -0.2892120000    -1.9638760000    -0.0008710000
   12      H       0.7256880000    -1.9643760000     0.3685290000
   13      H      -0.6103120000    -2.4989760000     0.8806290000
   14      H      -0.0045120000    -2.6510760000    -0.7838710000
   15      H       1.1546880000     2.6104240000    -1.0979710000
 ----------------------------------------------------------------

   10    -629.4135142486      6.20e-07  Convergence criterion met
 Total energy in the final basis set =     -629.4135142486
        RIMP2         total energy =      -630.5920423870 a.u.

                    Orbital Energies (a.u.)
 --------------------------------------------------------------

 Alpha MOs
 -- Occupied --
-91.9789 -11.2829 -11.2520 -11.2481 -11.2271 -11.2247 -11.2210  -8.9786
 -6.6596  -6.6590  -6.6584  -1.1626  -1.0546  -0.9978  -0.9386  -0.8837
 -0.7435  -0.7202  -0.6461  -0.5889  -0.5765  -0.5698  -0.5545  -0.5442
 -0.5086  -0.4887  -0.4654  -0.4560  -0.3374  -0.2892

          Ground-State Mulliken Net Atomic Charges

     Atom                 Charge (a.u.)
  ----------------------------------------
      1 C                     0.036885
      2 C                    -0.283559
      3 C                     0.046002
      4 H                     0.173881
      5 C                    -0.275963
      6 S                     0.004723
      7 C                    -0.270622
      8 H                     0.101623
      9 H                     0.107581
     10 H                     0.106524
     11 C                    -0.384461
     12 H                     0.151062
     13 H                     0.135298
     14 H                     0.157877
     15 H                     0.193149
  ----------------------------------------
  Sum of atomic charges =     0.000000

                    Cartesian Multipole Moments
 -----------------------------------------------------------------
    Charge (ESU x 10^10)
                -0.0000
    Dipole Moment (Debye)
         X       1.1747      Y      -0.6239      Z       1.6808
       Tot       2.1434
    Quadrupole Moments (Debye-Ang)
        XX     -53.2717     XY       2.0218     YY     -43.6237
        XZ      -0.0278     YZ      -0.0772     ZZ     -48.5086

 Total job time:  22.37s(wall), 770.62s(cpu)
        *  Thank you very much for using Q-Chem.  Have a nice day.  *
