 Q-Chem 5.4, Q-Chem, Inc., Pleasanton, CA (2021)
 Q-Chem 5.4.0 for Intel X86 EM64T Linux

User input:
--------------------------------------------------------------
$molecule
0 1
C	-0.436667	-0.419059	-0.003205
C	0.103833	0.229941	1.109795
C	0.994333	1.298441	0.817395
H	-0.144567	-0.068259	2.139695
C	1.153433	1.489041	-0.566805
S	0.184433	0.326841	-1.467905
C	1.675933	2.116341	1.879195
H	1.389133	1.772241	2.891795
H	1.410433	3.191641	1.804895
H	2.781533	2.048841	1.804995
C	-0.436667	-1.869159	-0.003205
H	0.103333	-1.869659	0.932095
H	-1.249267	-2.404259	0.465695
H	0.284733	-2.556359	-0.420105
H	1.766633	2.225041	-1.100305
$end

$rem
JOBTYPE		SP
EXCHANGE	HF
CORRELATION	pRIMP2
BASIS		cc-pvtz
METHOD		rimp2
AUX_BASIS	rimp2-cc-pvtz
SOLVENT_METHOD	PCM
PURECART	11111
SYMMETRY	false
MEM_TOTAL	110000
SCF_CONVERGENCE = 6
THRESH=10
GUI = 2
$end

$solvent
dielectric 4.90
$end
--------------------------------------------------------------

             Standard Nuclear Orientation (Angstroms)
    I     Atom           X                Y                Z
 ----------------------------------------------------------------
    1      C      -0.4366670000    -0.4190590000    -0.0032050000
    2      C       0.1038330000     0.2299410000     1.1097950000
    3      C       0.9943330000     1.2984410000     0.8173950000
    4      H      -0.1445670000    -0.0682590000     2.1396950000
    5      C       1.1534330000     1.4890410000    -0.5668050000
    6      S       0.1844330000     0.3268410000    -1.4679050000
    7      C       1.6759330000     2.1163410000     1.8791950000
    8      H       1.3891330000     1.7722410000     2.8917950000
    9      H       1.4104330000     3.1916410000     1.8048950000
   10      H       2.7815330000     2.0488410000     1.8049950000
   11      C      -0.4366670000    -1.8691590000    -0.0032050000
   12      H       0.1033330000    -1.8696590000     0.9320950000
   13      H      -1.2492670000    -2.4042590000     0.4656950000
   14      H       0.2847330000    -2.5563590000    -0.4201050000
   15      H       1.7666330000     2.2250410000    -1.1003050000
 ----------------------------------------------------------------

   10    -629.3861392690      6.12e-07  Convergence criterion met
 Total energy in the final basis set =     -629.3861392690
        RIMP2         total energy =      -630.5718889632 a.u.

                    Orbital Energies (a.u.)
 --------------------------------------------------------------

 Alpha MOs
 -- Occupied --
-91.9771 -11.2668 -11.2646 -11.2482 -11.2373 -11.2282 -11.2111  -8.9771
 -6.6580  -6.6574  -6.6570  -1.1663  -1.0533  -0.9995  -0.9353  -0.8840
 -0.7440  -0.7268  -0.6443  -0.5884  -0.5782  -0.5720  -0.5548  -0.5421
 -0.5146  -0.4716  -0.4652  -0.4446  -0.3334  -0.2978

          Ground-State Mulliken Net Atomic Charges

     Atom                 Charge (a.u.)
  ----------------------------------------
      1 C                    -0.017158
      2 C                    -0.215212
      3 C                     0.015582
      4 H                     0.176279
      5 C                    -0.234939
      6 S                     0.007213
      7 C                    -0.269537
      8 H                     0.101456
      9 H                     0.107216
     10 H                     0.105591
     11 C                    -0.380024
     12 H                     0.134981
     13 H                     0.118712
     14 H                     0.155946
     15 H                     0.193895
  ----------------------------------------
  Sum of atomic charges =     0.000000

                    Cartesian Multipole Moments
 -----------------------------------------------------------------
    Charge (ESU x 10^10)
                -0.0000
    Dipole Moment (Debye)
         X       1.5441      Y       0.0093      Z       2.1315
       Tot       2.6320
    Quadrupole Moments (Debye-Ang)
        XX     -50.9203     XY       3.5558     YY     -46.5613
        XZ      -0.3948     YZ      -0.8483     ZZ     -48.4065

 Total job time:  19.44s(wall), 765.43s(cpu)
        *  Thank you very much for using Q-Chem.  Have a nice day.  *
