 Q-Chem 5.4, Q-Chem, Inc., Pleasanton, CA (2021)
 Q-Chem 5.4.0 for Intel X86 EM64T Linux

User input:
--------------------------------------------------------------
$molecule
0 1
C	-0.229625	-0.536244	0.006088
C	0.056375	0.258456	1.119088
C	0.527675	1.567156	0.826688
H	-0.075125	-0.106644	2.148988
C	0.611975	1.800556	-0.557512
S	0.098875	0.377056	-1.458612
C	0.888475	2.568756	1.888488
H	0.736575	2.147356	2.901088
H	0.271175	3.488456	1.814188
H	1.950375	2.883556	1.814288
C	-0.229625	-1.986344	0.006088
H	-0.417225	-1.986844	-1.057512
H	0.694275	-2.521444	-0.156612
H	-1.050125	-2.673544	0.151088
H	0.936475	2.701956	-1.091012
$end

$rem
JOBTYPE		SP
EXCHANGE	HF
CORRELATION	pRIMP2
BASIS		cc-pvtz
METHOD		rimp2
AUX_BASIS	rimp2-cc-pvtz
SOLVENT_METHOD	PCM
PURECART	11111
SYMMETRY	false
MEM_TOTAL	110000
SCF_CONVERGENCE = 6
THRESH=10
GUI = 2
$end

$solvent
dielectric 4.90
$end
--------------------------------------------------------------

             Standard Nuclear Orientation (Angstroms)
    I     Atom           X                Y                Z
 ----------------------------------------------------------------
    1      C      -0.2296250000    -0.5362440000     0.0060880000
    2      C       0.0563750000     0.2584560000     1.1190880000
    3      C       0.5276750000     1.5671560000     0.8266880000
    4      H      -0.0751250000    -0.1066440000     2.1489880000
    5      C       0.6119750000     1.8005560000    -0.5575120000
    6      S       0.0988750000     0.3770560000    -1.4586120000
    7      C       0.8884750000     2.5687560000     1.8884880000
    8      H       0.7365750000     2.1473560000     2.9010880000
    9      H       0.2711750000     3.4884560000     1.8141880000
   10      H       1.9503750000     2.8835560000     1.8142880000
   11      C      -0.2296250000    -1.9863440000     0.0060880000
   12      H      -0.4172250000    -1.9868440000    -1.0575120000
   13      H       0.6942750000    -2.5214440000    -0.1566120000
   14      H      -1.0501250000    -2.6735440000     0.1510880000
   15      H       0.9364750000     2.7019560000    -1.0910120000
 ----------------------------------------------------------------

   10    -629.4145095586      5.20e-07  Convergence criterion met
 Total energy in the final basis set =     -629.4145095586
        RIMP2         total energy =      -630.5937026335 a.u.

                    Orbital Energies (a.u.)
 --------------------------------------------------------------

 Alpha MOs
 -- Occupied --
-91.9808 -11.2720 -11.2607 -11.2474 -11.2304 -11.2271 -11.2159  -8.9806
 -6.6615  -6.6610  -6.6604  -1.1617  -1.0534  -0.9949  -0.9454  -0.8825
 -0.7482  -0.7190  -0.6463  -0.5910  -0.5754  -0.5661  -0.5533  -0.5462
 -0.5100  -0.4830  -0.4648  -0.4442  -0.3376  -0.3046

          Ground-State Mulliken Net Atomic Charges

     Atom                 Charge (a.u.)
  ----------------------------------------
      1 C                     0.025734
      2 C                    -0.254606
      3 C                     0.039951
      4 H                     0.178423
      5 C                    -0.253509
      6 S                    -0.001040
      7 C                    -0.272069
      8 H                     0.102104
      9 H                     0.106797
     10 H                     0.106571
     11 C                    -0.361320
     12 H                     0.110590
     13 H                     0.128279
     14 H                     0.148296
     15 H                     0.195800
  ----------------------------------------
  Sum of atomic charges =     0.000000

                    Cartesian Multipole Moments
 -----------------------------------------------------------------
    Charge (ESU x 10^10)
                -0.0000
    Dipole Moment (Debye)
         X       0.4651      Y       0.0863      Z       0.9148
       Tot       1.0298
    Quadrupole Moments (Debye-Ang)
        XX     -52.7249     XY       3.2140     YY     -43.2669
        XZ       0.0830     YZ       1.4253     ZZ     -48.7907

 Total job time:  16.02s(wall), 759.31s(cpu)
        *  Thank you very much for using Q-Chem.  Have a nice day.  *
