 Q-Chem 5.4, Q-Chem, Inc., Pleasanton, CA (2021)
 Q-Chem 5.4.0 for Intel X86 EM64T Linux

User input:
--------------------------------------------------------------
$molecule
0 1
C	-0.169468	-0.553870	0.004064
C	0.046132	0.262730	1.117064
C	0.401632	1.607530	0.824664
H	-0.052968	-0.112470	2.146964
C	0.465232	1.847430	-0.559536
S	0.078132	0.384630	-1.460636
C	0.673732	2.636830	1.886464
H	0.559132	2.203730	2.899064
H	-0.021368	3.499130	1.812164
H	1.704232	3.042930	1.812264
C	-0.169468	-2.003970	0.004064
H	-1.104768	-2.004470	-0.535936
H	0.299832	-2.539070	-0.808236
H	-0.585768	-2.691170	0.725764
H	0.710032	2.773630	-1.093036
$end

$rem
JOBTYPE		SP
EXCHANGE	HF
CORRELATION	pRIMP2
BASIS		cc-pvtz
METHOD		rimp2
AUX_BASIS	rimp2-cc-pvtz
SOLVENT_METHOD	PCM
PURECART	11111
SYMMETRY	false
MEM_TOTAL	110000
SCF_CONVERGENCE = 6
THRESH=10
GUI = 2
$end

$solvent
dielectric 4.90
$end
--------------------------------------------------------------

             Standard Nuclear Orientation (Angstroms)
    I     Atom           X                Y                Z
 ----------------------------------------------------------------
    1      C      -0.1694680000    -0.5538700000     0.0040640000
    2      C       0.0461320000     0.2627300000     1.1170640000
    3      C       0.4016320000     1.6075300000     0.8246640000
    4      H      -0.0529680000    -0.1124700000     2.1469640000
    5      C       0.4652320000     1.8474300000    -0.5595360000
    6      S       0.0781320000     0.3846300000    -1.4606360000
    7      C       0.6737320000     2.6368300000     1.8864640000
    8      H       0.5591320000     2.2037300000     2.8990640000
    9      H      -0.0213680000     3.4991300000     1.8121640000
   10      H       1.7042320000     3.0429300000     1.8122640000
   11      C      -0.1694680000    -2.0039700000     0.0040640000
   12      H      -1.1047680000    -2.0044700000    -0.5359360000
   13      H       0.2998320000    -2.5390700000    -0.8082360000
   14      H      -0.5857680000    -2.6911700000     0.7257640000
   15      H       0.7100320000     2.7736300000    -1.0930360000
 ----------------------------------------------------------------

   10    -629.4180447516      6.06e-07  Convergence criterion met
 Total energy in the final basis set =     -629.4180447516
        RIMP2         total energy =      -630.5948842069 a.u.

                    Orbital Energies (a.u.)
 --------------------------------------------------------------

 Alpha MOs
 -- Occupied --
-91.9795 -11.2802 -11.2538 -11.2470 -11.2266 -11.2252 -11.2194  -8.9793
 -6.6603  -6.6598  -6.6591  -1.1603  -1.0538  -0.9959  -0.9437  -0.8832
 -0.7454  -0.7182  -0.6471  -0.5883  -0.5740  -0.5671  -0.5527  -0.5458
 -0.5089  -0.4917  -0.4632  -0.4541  -0.3384  -0.2924

          Ground-State Mulliken Net Atomic Charges

     Atom                 Charge (a.u.)
  ----------------------------------------
      1 C                     0.026117
      2 C                    -0.262644
      3 C                     0.034706
      4 H                     0.179603
      5 C                    -0.261693
      6 S                    -0.005254
      7 C                    -0.273252
      8 H                     0.101481
      9 H                     0.107096
     10 H                     0.106975
     11 C                    -0.375568
     12 H                     0.128211
     13 H                     0.138609
     14 H                     0.160478
     15 H                     0.195136
  ----------------------------------------
  Sum of atomic charges =     0.000000

                    Cartesian Multipole Moments
 -----------------------------------------------------------------
    Charge (ESU x 10^10)
                -0.0000
    Dipole Moment (Debye)
         X      -0.2692      Y      -0.4228      Z       1.1074
       Tot       1.2155
    Quadrupole Moments (Debye-Ang)
        XX     -53.5262     XY       3.5663     YY     -42.4307
        XZ      -0.1887     YZ       0.9138     ZZ     -48.5994

 Total job time:  16.12s(wall), 734.60s(cpu)
        *  Thank you very much for using Q-Chem.  Have a nice day.  *
