 Q-Chem 5.4, Q-Chem, Inc., Pleasanton, CA (2021)
 Q-Chem 5.4.0 for Intel X86 EM64T Linux

User input:
--------------------------------------------------------------
$molecule
0 1
C	-0.588978	-0.238938	0.005627
C	0.140922	0.186062	1.118627
C	1.343222	0.885562	0.826227
H	-0.194478	-0.009138	2.148527
C	1.557822	1.010262	-0.557973
S	0.249722	0.249562	-1.459073
C	2.263422	1.420962	1.888027
H	1.876122	1.195762	2.900627
H	2.381622	2.522262	1.813727
H	3.279222	0.979462	1.813827
C	-0.588978	-1.689038	0.005627
H	-0.219578	-1.689538	-1.009273
H	0.292522	-2.224138	0.326727
H	-1.371978	-2.376238	-0.279073
H	2.385822	1.492062	-1.091473
$end

$rem
JOBTYPE		SP
EXCHANGE	HF
CORRELATION	pRIMP2
BASIS		cc-pvtz
METHOD		rimp2
AUX_BASIS	rimp2-cc-pvtz
SOLVENT_METHOD	PCM
PURECART	11111
SYMMETRY	false
MEM_TOTAL	110000
SCF_CONVERGENCE = 6
THRESH=10
GUI = 2
$end

$solvent
dielectric 4.90
$end
--------------------------------------------------------------

             Standard Nuclear Orientation (Angstroms)
    I     Atom           X                Y                Z
 ----------------------------------------------------------------
    1      C      -0.5889780000    -0.2389380000     0.0056270000
    2      C       0.1409220000     0.1860620000     1.1186270000
    3      C       1.3432220000     0.8855620000     0.8262270000
    4      H      -0.1944780000    -0.0091380000     2.1485270000
    5      C       1.5578220000     1.0102620000    -0.5579730000
    6      S       0.2497220000     0.2495620000    -1.4590730000
    7      C       2.2634220000     1.4209620000     1.8880270000
    8      H       1.8761220000     1.1957620000     2.9006270000
    9      H       2.3816220000     2.5222620000     1.8137270000
   10      H       3.2792220000     0.9794620000     1.8138270000
   11      C      -0.5889780000    -1.6890380000     0.0056270000
   12      H      -0.2195780000    -1.6895380000    -1.0092730000
   13      H       0.2925220000    -2.2241380000     0.3267270000
   14      H      -1.3719780000    -2.3762380000    -0.2790730000
   15      H       2.3858220000     1.4920620000    -1.0914730000
 ----------------------------------------------------------------

   10    -629.3403098274      9.59e-07  Convergence criterion met
 Total energy in the final basis set =     -629.3403098274
        RIMP2         total energy =      -630.5315706440 a.u.

                    Orbital Energies (a.u.)
 --------------------------------------------------------------

 Alpha MOs
 -- Occupied --
-91.9716 -11.2834 -11.2541 -11.2478 -11.2454 -11.2290 -11.2051  -8.9735
 -6.6542  -6.6533  -6.6531  -1.1761  -1.0579  -0.9951  -0.9432  -0.8778
 -0.7570  -0.7283  -0.6438  -0.5913  -0.5822  -0.5654  -0.5520  -0.5464
 -0.5169  -0.4696  -0.4633  -0.4327  -0.3287  -0.3022

          Ground-State Mulliken Net Atomic Charges

     Atom                 Charge (a.u.)
  ----------------------------------------
      1 C                    -0.103660
      2 C                    -0.114749
      3 C                    -0.020098
      4 H                     0.184403
      5 C                    -0.184387
      6 S                     0.003093
      7 C                    -0.267806
      8 H                     0.102240
      9 H                     0.107193
     10 H                     0.104076
     11 C                    -0.378146
     12 H                     0.131616
     13 H                     0.118496
     14 H                     0.118646
     15 H                     0.199083
  ----------------------------------------
  Sum of atomic charges =     0.000000

                    Cartesian Multipole Moments
 -----------------------------------------------------------------
    Charge (ESU x 10^10)
                -0.0000
    Dipole Moment (Debye)
         X       2.6667      Y       0.1612      Z       1.2110
       Tot       2.9332
    Quadrupole Moments (Debye-Ang)
        XX     -48.1952     XY       3.8697     YY     -50.3275
        XZ       0.1724     YZ       1.3826     ZZ     -47.7832

 Total job time:  16.52s(wall), 784.86s(cpu)
        *  Thank you very much for using Q-Chem.  Have a nice day.  *
