 Q-Chem 5.4, Q-Chem, Inc., Pleasanton, CA (2021)
 Q-Chem 5.4.0 for Intel X86 EM64T Linux

User input:
--------------------------------------------------------------
$molecule
0 1
C	-0.168574	-0.553870	0.000852
C	0.047026	0.262730	1.113852
C	0.402526	1.607530	0.821452
H	-0.052074	-0.112470	2.143752
C	0.466126	1.847430	-0.562748
S	0.079026	0.384630	-1.463848
C	0.674626	2.636830	1.883252
H	0.560026	2.203730	2.895852
H	-0.020474	3.499130	1.808952
H	1.705126	3.042930	1.809052
C	-0.168574	-2.003970	0.000852
H	-1.232174	-2.004470	0.188452
H	-0.331274	-2.539070	-0.923048
H	-0.023574	-2.691170	0.821352
H	0.710926	2.773630	-1.096248
$end

$rem
JOBTYPE		SP
EXCHANGE	HF
CORRELATION	pRIMP2
BASIS		cc-pvtz
METHOD		rimp2
AUX_BASIS	rimp2-cc-pvtz
SOLVENT_METHOD	PCM
PURECART	11111
SYMMETRY	false
MEM_TOTAL	110000
SCF_CONVERGENCE = 6
THRESH=10
GUI = 2
$end

$solvent
dielectric 4.90
$end
--------------------------------------------------------------

             Standard Nuclear Orientation (Angstroms)
    I     Atom           X                Y                Z
 ----------------------------------------------------------------
    1      C      -0.1685740000    -0.5538700000     0.0008520000
    2      C       0.0470260000     0.2627300000     1.1138520000
    3      C       0.4025260000     1.6075300000     0.8214520000
    4      H      -0.0520740000    -0.1124700000     2.1437520000
    5      C       0.4661260000     1.8474300000    -0.5627480000
    6      S       0.0790260000     0.3846300000    -1.4638480000
    7      C       0.6746260000     2.6368300000     1.8832520000
    8      H       0.5600260000     2.2037300000     2.8958520000
    9      H      -0.0204740000     3.4991300000     1.8089520000
   10      H       1.7051260000     3.0429300000     1.8090520000
   11      C      -0.1685740000    -2.0039700000     0.0008520000
   12      H      -1.2321740000    -2.0044700000     0.1884520000
   13      H      -0.3312740000    -2.5390700000    -0.9230480000
   14      H      -0.0235740000    -2.6911700000     0.8213520000
   15      H       0.7109260000     2.7736300000    -1.0962480000
 ----------------------------------------------------------------

   10    -629.4184069554      6.43e-07  Convergence criterion met
 Total energy in the final basis set =     -629.4184069554
        RIMP2         total energy =      -630.5954424603 a.u.

                    Orbital Energies (a.u.)
 --------------------------------------------------------------

 Alpha MOs
 -- Occupied --
-91.9786 -11.2826 -11.2509 -11.2472 -11.2266 -11.2243 -11.2206  -8.9783
 -6.6593  -6.6588  -6.6581  -1.1599  -1.0538  -0.9972  -0.9413  -0.8839
 -0.7435  -0.7189  -0.6478  -0.5861  -0.5729  -0.5671  -0.5558  -0.5447
 -0.5090  -0.4956  -0.4613  -0.4556  -0.3376  -0.2892

          Ground-State Mulliken Net Atomic Charges

     Atom                 Charge (a.u.)
  ----------------------------------------
      1 C                     0.050076
      2 C                    -0.303098
      3 C                     0.051195
      4 H                     0.174303
      5 C                    -0.276033
      6 S                     0.005751
      7 C                    -0.272889
      8 H                     0.101468
      9 H                     0.107218
     10 H                     0.107156
     11 C                    -0.379651
     12 H                     0.138811
     13 H                     0.140161
     14 H                     0.162596
     15 H                     0.192936
  ----------------------------------------
  Sum of atomic charges =     0.000000

                    Cartesian Multipole Moments
 -----------------------------------------------------------------
    Charge (ESU x 10^10)
                -0.0000
    Dipole Moment (Debye)
         X      -0.4302      Y      -0.6215      Z       1.5452
       Tot       1.7202
    Quadrupole Moments (Debye-Ang)
        XX     -53.6311     XY       3.7348     YY     -42.4419
        XZ       0.1681     YZ       0.0232     ZZ     -48.5009

 Total job time:  17.05s(wall), 774.87s(cpu)
        *  Thank you very much for using Q-Chem.  Have a nice day.  *
