 Q-Chem 5.4, Q-Chem, Inc., Pleasanton, CA (2021)
 Q-Chem 5.4.0 for Intel X86 EM64T Linux

User input:
--------------------------------------------------------------
$molecule
0 1
C	-0.439086	-0.419059	0.003247
C	0.101414	0.229941	1.116247
C	0.991914	1.298441	0.823847
H	-0.146986	-0.068259	2.146147
C	1.151014	1.489041	-0.560353
S	0.182014	0.326841	-1.461453
C	1.673514	2.116341	1.885647
H	1.386714	1.772241	2.898247
H	1.408014	3.191641	1.811347
H	2.779114	2.048841	1.811447
C	-0.439086	-1.869159	0.003247
H	0.496214	-1.869659	-0.536753
H	0.029814	-2.404259	0.815847
H	-0.855986	-2.556359	-0.718153
H	1.764214	2.225041	-1.093853
$end

$rem
JOBTYPE		SP
EXCHANGE	HF
CORRELATION	pRIMP2
BASIS		cc-pvtz
METHOD		rimp2
AUX_BASIS	rimp2-cc-pvtz
SOLVENT_METHOD	PCM
PURECART	11111
SYMMETRY	false
MEM_TOTAL	110000
SCF_CONVERGENCE = 6
THRESH=10
GUI = 2
$end

$solvent
dielectric 4.90
$end
--------------------------------------------------------------

             Standard Nuclear Orientation (Angstroms)
    I     Atom           X                Y                Z
 ----------------------------------------------------------------
    1      C      -0.4390860000    -0.4190590000     0.0032470000
    2      C       0.1014140000     0.2299410000     1.1162470000
    3      C       0.9919140000     1.2984410000     0.8238470000
    4      H      -0.1469860000    -0.0682590000     2.1461470000
    5      C       1.1510140000     1.4890410000    -0.5603530000
    6      S       0.1820140000     0.3268410000    -1.4614530000
    7      C       1.6735140000     2.1163410000     1.8856470000
    8      H       1.3867140000     1.7722410000     2.8982470000
    9      H       1.4080140000     3.1916410000     1.8113470000
   10      H       2.7791140000     2.0488410000     1.8114470000
   11      C      -0.4390860000    -1.8691590000     0.0032470000
   12      H       0.4962140000    -1.8696590000    -0.5367530000
   13      H       0.0298140000    -2.4042590000     0.8158470000
   14      H      -0.8559860000    -2.5563590000    -0.7181530000
   15      H       1.7642140000     2.2250410000    -1.0938530000
 ----------------------------------------------------------------

   10    -629.3943337875      6.15e-07  Convergence criterion met
 Total energy in the final basis set =     -629.3943337875
        RIMP2         total energy =      -630.5766771920 a.u.

                    Orbital Energies (a.u.)
 --------------------------------------------------------------

 Alpha MOs
 -- Occupied --
-91.9733 -11.2730 -11.2626 -11.2483 -11.2344 -11.2279 -11.2172  -8.9742
 -6.6551  -6.6545  -6.6539  -1.1670  -1.0557  -0.9951  -0.9414  -0.8815
 -0.7484  -0.7223  -0.6443  -0.5883  -0.5816  -0.5654  -0.5509  -0.5463
 -0.5097  -0.4929  -0.4607  -0.4468  -0.3397  -0.2918

          Ground-State Mulliken Net Atomic Charges

     Atom                 Charge (a.u.)
  ----------------------------------------
      1 C                     0.019635
      2 C                    -0.273338
      3 C                     0.040148
      4 H                     0.179006
      5 C                    -0.244412
      6 S                    -0.006702
      7 C                    -0.269295
      8 H                     0.101747
      9 H                     0.107990
     10 H                     0.106428
     11 C                    -0.370892
     12 H                     0.138752
     13 H                     0.136467
     14 H                     0.140545
     15 H                     0.193920
  ----------------------------------------
  Sum of atomic charges =     0.000000

                    Cartesian Multipole Moments
 -----------------------------------------------------------------
    Charge (ESU x 10^10)
                -0.0000
    Dipole Moment (Debye)
         X       1.6909      Y      -0.2832      Z       1.3252
       Tot       2.1669
    Quadrupole Moments (Debye-Ang)
        XX     -51.3880     XY       3.4558     YY     -46.1150
        XZ       0.4354     YZ       0.9578     ZZ     -48.4247

 Total job time:  15.76s(wall), 762.75s(cpu)
        *  Thank you very much for using Q-Chem.  Have a nice day.  *
