 Q-Chem 5.4, Q-Chem, Inc., Pleasanton, CA (2021)
 Q-Chem 5.4.0 for Intel X86 EM64T Linux

User input:
--------------------------------------------------------------
$molecule
0 1
C	-0.523505	-0.335659	0.001609
C	0.121495	0.209641	1.114609
C	1.184095	1.107341	0.822209
H	-0.174905	-0.040859	2.144509
C	1.373695	1.267341	-0.561991
S	0.217695	0.291041	-1.463091
C	1.997295	1.794341	1.884009
H	1.655095	1.505341	2.896609
H	1.922495	2.899441	1.809709
H	3.074295	1.535941	1.809809
C	-0.523505	-1.785759	0.001609
H	0.540095	-1.786259	-0.185991
H	-0.360805	-2.320859	0.925509
H	-0.668505	-2.472959	-0.818891
H	2.105495	1.885641	-1.095491
$end

$rem
JOBTYPE		SP
EXCHANGE	HF
CORRELATION	pRIMP2
BASIS		cc-pvtz
METHOD		rimp2
AUX_BASIS	rimp2-cc-pvtz
SOLVENT_METHOD	PCM
PURECART	11111
SYMMETRY	false
MEM_TOTAL	110000
SCF_CONVERGENCE = 6
THRESH=10
GUI = 2
$end

$solvent
dielectric 4.90
$end
--------------------------------------------------------------

             Standard Nuclear Orientation (Angstroms)
    I     Atom           X                Y                Z
 ----------------------------------------------------------------
    1      C      -0.5235050000    -0.3356590000     0.0016090000
    2      C       0.1214950000     0.2096410000     1.1146090000
    3      C       1.1840950000     1.1073410000     0.8222090000
    4      H      -0.1749050000    -0.0408590000     2.1445090000
    5      C       1.3736950000     1.2673410000    -0.5619910000
    6      S       0.2176950000     0.2910410000    -1.4630910000
    7      C       1.9972950000     1.7943410000     1.8840090000
    8      H       1.6550950000     1.5053410000     2.8966090000
    9      H       1.9224950000     2.8994410000     1.8097090000
   10      H       3.0742950000     1.5359410000     1.8098090000
   11      C      -0.5235050000    -1.7857590000     0.0016090000
   12      H       0.5400950000    -1.7862590000    -0.1859910000
   13      H      -0.3608050000    -2.3208590000     0.9255090000
   14      H      -0.6685050000    -2.4729590000    -0.8188910000
   15      H       2.1054950000     1.8856410000    -1.0954910000
 ----------------------------------------------------------------

   10    -629.3774508860      6.21e-07  Convergence criterion met
 Total energy in the final basis set =     -629.3774508860
        RIMP2         total energy =      -630.5638665893 a.u.

                    Orbital Energies (a.u.)
 --------------------------------------------------------------

 Alpha MOs
 -- Occupied --
-91.9740 -11.2687 -11.2684 -11.2502 -11.2373 -11.2287 -11.2178  -8.9749
 -6.6558  -6.6551  -6.6547  -1.1717  -1.0570  -0.9967  -0.9386  -0.8819
 -0.7494  -0.7255  -0.6440  -0.5872  -0.5855  -0.5666  -0.5520  -0.5454
 -0.5086  -0.4962  -0.4600  -0.4438  -0.3397  -0.2895

          Ground-State Mulliken Net Atomic Charges

     Atom                 Charge (a.u.)
  ----------------------------------------
      1 C                    -0.018249
      2 C                    -0.226508
      3 C                     0.022664
      4 H                     0.178959
      5 C                    -0.232911
      6 S                     0.001084
      7 C                    -0.268276
      8 H                     0.102319
      9 H                     0.107816
     10 H                     0.105808
     11 C                    -0.364889
     12 H                     0.129046
     13 H                     0.127394
     14 H                     0.140240
     15 H                     0.195505
  ----------------------------------------
  Sum of atomic charges =     0.000000

                    Cartesian Multipole Moments
 -----------------------------------------------------------------
    Charge (ESU x 10^10)
                -0.0000
    Dipole Moment (Debye)
         X       2.1136      Y      -0.2666      Z       1.5748
       Tot       2.6493
    Quadrupole Moments (Debye-Ang)
        XX     -50.2533     XY       3.8255     YY     -47.8202
        XZ       0.1910     YZ       0.3834     ZZ     -48.1589

 Total job time:  17.17s(wall), 772.59s(cpu)
        *  Thank you very much for using Q-Chem.  Have a nice day.  *
