 Q-Chem 5.4, Q-Chem, Inc., Pleasanton, CA (2021)
 Q-Chem 5.4.0 for Intel X86 EM64T Linux

User input:
--------------------------------------------------------------
$molecule
0 1
C	-0.060205	-0.574004	-0.002247
C	0.010295	0.267696	1.110753
C	0.126895	1.653696	0.818353
H	-0.022105	-0.119104	2.140653
C	0.147895	1.900996	-0.565847
S	0.020695	0.393196	-1.466947
C	0.216095	2.714596	1.880153
H	0.178495	2.268196	2.892753
H	-0.618205	3.443096	1.805853
H	1.160395	3.293496	1.805953
C	-0.060205	-2.024104	-0.002247
H	0.767095	-2.024604	0.691953
H	-0.663405	-2.559204	0.716253
H	0.475095	-2.711304	-0.640747
H	0.228095	2.855696	-1.099347
$end

$rem
JOBTYPE		SP
EXCHANGE	HF
CORRELATION	pRIMP2
BASIS		cc-pvtz
METHOD		rimp2
AUX_BASIS	rimp2-cc-pvtz
SOLVENT_METHOD	PCM
PURECART	11111
SYMMETRY	false
MEM_TOTAL	110000
SCF_CONVERGENCE = 6
THRESH=10
GUI = 2
$end

$solvent
dielectric 4.90
$end
--------------------------------------------------------------

             Standard Nuclear Orientation (Angstroms)
    I     Atom           X                Y                Z
 ----------------------------------------------------------------
    1      C      -0.0602050000    -0.5740040000    -0.0022470000
    2      C       0.0102950000     0.2676960000     1.1107530000
    3      C       0.1268950000     1.6536960000     0.8183530000
    4      H      -0.0221050000    -0.1191040000     2.1406530000
    5      C       0.1478950000     1.9009960000    -0.5658470000
    6      S       0.0206950000     0.3931960000    -1.4669470000
    7      C       0.2160950000     2.7145960000     1.8801530000
    8      H       0.1784950000     2.2681960000     2.8927530000
    9      H      -0.6182050000     3.4430960000     1.8058530000
   10      H       1.1603950000     3.2934960000     1.8059530000
   11      C      -0.0602050000    -2.0241040000    -0.0022470000
   12      H       0.7670950000    -2.0246040000     0.6919530000
   13      H      -0.6634050000    -2.5592040000     0.7162530000
   14      H       0.4750950000    -2.7113040000    -0.6407470000
   15      H       0.2280950000     2.8556960000    -1.0993470000
 ----------------------------------------------------------------

   10    -629.4244504581      5.92e-07  Convergence criterion met
 Total energy in the final basis set =     -629.4244504581
        RIMP2         total energy =      -630.6011733450 a.u.

                    Orbital Energies (a.u.)
 --------------------------------------------------------------

 Alpha MOs
 -- Occupied --
-91.9780 -11.2836 -11.2513 -11.2475 -11.2270 -11.2264 -11.2202  -8.9777
 -6.6586  -6.6581  -6.6575  -1.1603  -1.0536  -0.9987  -0.9392  -0.8846
 -0.7423  -0.7202  -0.6473  -0.5905  -0.5740  -0.5695  -0.5574  -0.5429
 -0.5088  -0.4890  -0.4669  -0.4504  -0.3369  -0.2942

          Ground-State Mulliken Net Atomic Charges

     Atom                 Charge (a.u.)
  ----------------------------------------
      1 C                     0.062272
      2 C                    -0.279506
      3 C                     0.036516
      4 H                     0.175334
      5 C                    -0.270380
      6 S                    -0.003046
      7 C                    -0.274459
      8 H                     0.101297
      9 H                     0.107347
     10 H                     0.107198
     11 C                    -0.388099
     12 H                     0.138163
     13 H                     0.137800
     14 H                     0.156844
     15 H                     0.192719
  ----------------------------------------
  Sum of atomic charges =     0.000000

                    Cartesian Multipole Moments
 -----------------------------------------------------------------
    Charge (ESU x 10^10)
                -0.0000
    Dipole Moment (Debye)
         X       0.6390      Y      -0.5323      Z       1.8956
       Tot       2.0700
    Quadrupole Moments (Debye-Ang)
        XX     -54.0996     XY      -0.5473     YY     -42.0266
        XZ      -0.2806     YZ      -0.4392     ZZ     -48.7112

 Total job time:  16.36s(wall), 754.60s(cpu)
        *  Thank you very much for using Q-Chem.  Have a nice day.  *
