 Q-Chem 5.4, Q-Chem, Inc., Pleasanton, CA (2021)
 Q-Chem 5.4.0 for Intel X86 EM64T Linux

User input:
--------------------------------------------------------------
$molecule
0 1
C	-0.340864	-0.486609	-0.002247
C	0.078736	0.246391	1.110753
C	0.770236	1.453391	0.818353
H	-0.114164	-0.090409	2.140653
C	0.893736	1.668591	-0.565847
S	0.141236	0.355791	-1.466947
C	1.299436	2.377091	1.880153
H	1.076636	1.988491	2.892753
H	0.851136	3.389991	1.805853
H	2.399836	2.502691	1.805953
C	-0.340864	-1.936709	-0.002247
H	0.486436	-1.937209	0.691953
H	-0.944064	-2.471809	0.716253
H	0.194436	-2.623909	-0.640747
H	1.369836	2.499891	-1.099347
$end

$rem
JOBTYPE		SP
EXCHANGE	HF
CORRELATION	pRIMP2
BASIS		cc-pvtz
METHOD		rimp2
AUX_BASIS	rimp2-cc-pvtz
SOLVENT_METHOD	PCM
PURECART	11111
SYMMETRY	false
MEM_TOTAL	110000
SCF_CONVERGENCE = 6
THRESH=10
GUI = 2
$end

$solvent
dielectric 4.90
$end
--------------------------------------------------------------

             Standard Nuclear Orientation (Angstroms)
    I     Atom           X                Y                Z
 ----------------------------------------------------------------
    1      C      -0.3408640000    -0.4866090000    -0.0022470000
    2      C       0.0787360000     0.2463910000     1.1107530000
    3      C       0.7702360000     1.4533910000     0.8183530000
    4      H      -0.1141640000    -0.0904090000     2.1406530000
    5      C       0.8937360000     1.6685910000    -0.5658470000
    6      S       0.1412360000     0.3557910000    -1.4669470000
    7      C       1.2994360000     2.3770910000     1.8801530000
    8      H       1.0766360000     1.9884910000     2.8927530000
    9      H       0.8511360000     3.3899910000     1.8058530000
   10      H       2.3998360000     2.5026910000     1.8059530000
   11      C      -0.3408640000    -1.9367090000    -0.0022470000
   12      H       0.4864360000    -1.9372090000     0.6919530000
   13      H      -0.9440640000    -2.4718090000     0.7162530000
   14      H       0.1944360000    -2.6239090000    -0.6407470000
   15      H       1.3698360000     2.4998910000    -1.0993470000
 ----------------------------------------------------------------

   10    -629.4038995361      5.43e-07  Convergence criterion met
 Total energy in the final basis set =     -629.4038995361
        RIMP2         total energy =      -630.5853084789 a.u.

                    Orbital Energies (a.u.)
 --------------------------------------------------------------

 Alpha MOs
 -- Occupied --
-91.9787 -11.2776 -11.2559 -11.2482 -11.2288 -11.2275 -11.2166  -8.9785
 -6.6594  -6.6588  -6.6583  -1.1635  -1.0538  -0.9985  -0.9371  -0.8839
 -0.7432  -0.7224  -0.6455  -0.5891  -0.5751  -0.5721  -0.5556  -0.5430
 -0.5110  -0.4806  -0.4659  -0.4520  -0.3357  -0.2922

          Ground-State Mulliken Net Atomic Charges

     Atom                 Charge (a.u.)
  ----------------------------------------
      1 C                     0.018550
      2 C                    -0.253710
      3 C                     0.032114
      4 H                     0.174912
      5 C                    -0.261668
      6 S                     0.005741
      7 C                    -0.270355
      8 H                     0.101548
      9 H                     0.107403
     10 H                     0.106165
     11 C                    -0.389880
     12 H                     0.146688
     13 H                     0.130596
     14 H                     0.158729
     15 H                     0.193167
  ----------------------------------------
  Sum of atomic charges =     0.000000

                    Cartesian Multipole Moments
 -----------------------------------------------------------------
    Charge (ESU x 10^10)
                -0.0000
    Dipole Moment (Debye)
         X       1.2349      Y      -0.3653      Z       1.9134
       Tot       2.3064
    Quadrupole Moments (Debye-Ang)
        XX     -52.4877     XY       2.6526     YY     -44.6445
        XZ      -0.2216     YZ      -0.5283     ZZ     -48.4792

 Total job time:  15.81s(wall), 736.63s(cpu)
        *  Thank you very much for using Q-Chem.  Have a nice day.  *
