 Q-Chem 5.4, Q-Chem, Inc., Pleasanton, CA (2021)
 Q-Chem 5.4.0 for Intel X86 EM64T Linux

User input:
--------------------------------------------------------------
$molecule
0 1
C	-0.110695	-0.566489	0.000852
C	0.032905	0.265811	1.113852
C	0.269805	1.636511	0.821452
H	-0.033095	-0.116589	2.143752
C	0.312305	1.881011	-0.562748
S	0.054205	0.390011	-1.463848
C	0.451205	2.685511	1.883252
H	0.374805	2.244111	2.895852
H	-0.316395	3.484011	1.808952
H	1.442305	3.179911	1.809052
C	-0.110695	-2.016589	0.000852
H	-1.174295	-2.017089	0.188452
H	-0.273395	-2.551689	-0.923048
H	0.034305	-2.703789	0.821352
H	0.475405	2.825011	-1.096248
$end

$rem
JOBTYPE		SP
EXCHANGE	HF
CORRELATION	pRIMP2
BASIS		cc-pvtz
METHOD		rimp2
AUX_BASIS	rimp2-cc-pvtz
SOLVENT_METHOD	PCM
PURECART	11111
SYMMETRY	false
MEM_TOTAL	110000
SCF_CONVERGENCE = 6
THRESH=10
GUI = 2
$end

$solvent
dielectric 4.90
$end
--------------------------------------------------------------

             Standard Nuclear Orientation (Angstroms)
    I     Atom           X                Y                Z
 ----------------------------------------------------------------
    1      C      -0.1106950000    -0.5664890000     0.0008520000
    2      C       0.0329050000     0.2658110000     1.1138520000
    3      C       0.2698050000     1.6365110000     0.8214520000
    4      H      -0.0330950000    -0.1165890000     2.1437520000
    5      C       0.3123050000     1.8810110000    -0.5627480000
    6      S       0.0542050000     0.3900110000    -1.4638480000
    7      C       0.4512050000     2.6855110000     1.8832520000
    8      H       0.3748050000     2.2441110000     2.8958520000
    9      H      -0.3163950000     3.4840110000     1.8089520000
   10      H       1.4423050000     3.1799110000     1.8090520000
   11      C      -0.1106950000    -2.0165890000     0.0008520000
   12      H      -1.1742950000    -2.0170890000     0.1884520000
   13      H      -0.2733950000    -2.5516890000    -0.9230480000
   14      H       0.0343050000    -2.7037890000     0.8213520000
   15      H       0.4754050000     2.8250110000    -1.0962480000
 ----------------------------------------------------------------

   10    -629.4218299217      6.62e-07  Convergence criterion met
 Total energy in the final basis set =     -629.4218299217
        RIMP2         total energy =      -630.5979348173 a.u.

                    Orbital Energies (a.u.)
 --------------------------------------------------------------

 Alpha MOs
 -- Occupied --
-91.9790 -11.2841 -11.2499 -11.2472 -11.2265 -11.2232 -11.2216  -8.9787
 -6.6597  -6.6591  -6.6585  -1.1597  -1.0540  -0.9973  -0.9414  -0.8839
 -0.7433  -0.7186  -0.6482  -0.5864  -0.5729  -0.5672  -0.5557  -0.5449
 -0.5082  -0.4957  -0.4631  -0.4560  -0.3377  -0.2893

          Ground-State Mulliken Net Atomic Charges

     Atom                 Charge (a.u.)
  ----------------------------------------
      1 C                     0.056904
      2 C                    -0.305975
      3 C                     0.050574
      4 H                     0.174170
      5 C                    -0.278416
      6 S                     0.005132
      7 C                    -0.273866
      8 H                     0.101461
      9 H                     0.107250
     10 H                     0.107262
     11 C                    -0.381280
     12 H                     0.140549
     13 H                     0.140280
     14 H                     0.162870
     15 H                     0.193086
  ----------------------------------------
  Sum of atomic charges =     0.000000

                    Cartesian Multipole Moments
 -----------------------------------------------------------------
    Charge (ESU x 10^10)
                -0.0000
    Dipole Moment (Debye)
         X      -0.5435      Y      -0.6779      Z       1.5288
       Tot       1.7585
    Quadrupole Moments (Debye-Ang)
        XX     -54.0050     XY       3.0418     YY     -42.0370
        XZ       0.1399     YZ       0.0400     ZZ     -48.5305

 Total job time:  18.59s(wall), 775.49s(cpu)
        *  Thank you very much for using Q-Chem.  Have a nice day.  *
