 Q-Chem 5.4, Q-Chem, Inc., Pleasanton, CA (2021)
 Q-Chem 5.4.0 for Intel X86 EM64T Linux

User input:
--------------------------------------------------------------
$molecule
0 1
C	-0.332603	-0.486609	0.001702
C	0.086997	0.246391	1.114702
C	0.778497	1.453391	0.822302
H	-0.105903	-0.090409	2.144602
C	0.901997	1.668591	-0.561898
S	0.149497	0.355791	-1.462998
C	1.307697	2.377091	1.884102
H	1.084897	1.988491	2.896702
H	0.859397	3.389991	1.809802
H	2.408097	2.502691	1.809902
C	-0.332603	-1.936709	0.001702
H	-1.412603	-1.937209	0.001702
H	-0.332403	-2.471809	-0.936398
H	-0.332303	-2.623909	0.834902
H	1.378097	2.499891	-1.095398
$end

$rem
JOBTYPE		SP
EXCHANGE	HF
CORRELATION	pRIMP2
BASIS		cc-pvtz
METHOD		rimp2
AUX_BASIS	rimp2-cc-pvtz
SOLVENT_METHOD	PCM
PURECART	11111
SYMMETRY	false
MEM_TOTAL	110000
SCF_CONVERGENCE = 6
THRESH=10
GUI = 2
$end

$solvent
dielectric 4.90
$end
--------------------------------------------------------------

             Standard Nuclear Orientation (Angstroms)
    I     Atom           X                Y                Z
 ----------------------------------------------------------------
    1      C      -0.3326030000    -0.4866090000     0.0017020000
    2      C       0.0869970000     0.2463910000     1.1147020000
    3      C       0.7784970000     1.4533910000     0.8223020000
    4      H      -0.1059030000    -0.0904090000     2.1446020000
    5      C       0.9019970000     1.6685910000    -0.5618980000
    6      S       0.1494970000     0.3557910000    -1.4629980000
    7      C       1.3076970000     2.3770910000     1.8841020000
    8      H       1.0848970000     1.9884910000     2.8967020000
    9      H       0.8593970000     3.3899910000     1.8098020000
   10      H       2.4080970000     2.5026910000     1.8099020000
   11      C      -0.3326030000    -1.9367090000     0.0017020000
   12      H      -1.4126030000    -1.9372090000     0.0017020000
   13      H      -0.3324030000    -2.4718090000    -0.9363980000
   14      H      -0.3323030000    -2.6239090000     0.8349020000
   15      H       1.3780970000     2.4998910000    -1.0953980000
 ----------------------------------------------------------------

   10    -629.4008410244      5.59e-07  Convergence criterion met
 Total energy in the final basis set =     -629.4008410244
        RIMP2         total energy =      -630.5819941571 a.u.

                    Orbital Energies (a.u.)
 --------------------------------------------------------------

 Alpha MOs
 -- Occupied --
-91.9772 -11.2753 -11.2560 -11.2473 -11.2287 -11.2268 -11.2164  -8.9772
 -6.6582  -6.6575  -6.6570  -1.1613  -1.0530  -0.9962  -0.9415  -0.8835
 -0.7446  -0.7201  -0.6456  -0.5850  -0.5735  -0.5670  -0.5543  -0.5441
 -0.5113  -0.4950  -0.4572  -0.4512  -0.3372  -0.2876

          Ground-State Mulliken Net Atomic Charges

     Atom                 Charge (a.u.)
  ----------------------------------------
      1 C                     0.015337
      2 C                    -0.272217
      3 C                     0.046818
      4 H                     0.176598
      5 C                    -0.264391
      6 S                     0.005545
      7 C                    -0.270391
      8 H                     0.101553
      9 H                     0.107094
     10 H                     0.106418
     11 C                    -0.379539
     12 H                     0.132446
     13 H                     0.141489
     14 H                     0.159616
     15 H                     0.193625
  ----------------------------------------
  Sum of atomic charges =     0.000000

                    Cartesian Multipole Moments
 -----------------------------------------------------------------
    Charge (ESU x 10^10)
                -0.0000
    Dipole Moment (Debye)
         X       0.0062      Y      -0.4067      Z       1.4975
       Tot       1.5518
    Quadrupole Moments (Debye-Ang)
        XX     -51.9928     XY       5.3143     YY     -44.4128
        XZ       0.1010     YZ       0.1673     ZZ     -48.3304

 Total job time:  15.73s(wall), 750.14s(cpu)
        *  Thank you very much for using Q-Chem.  Have a nice day.  *
