 Q-Chem 5.4, Q-Chem, Inc., Pleasanton, CA (2021)
 Q-Chem 5.4.0 for Intel X86 EM64T Linux

User input:
--------------------------------------------------------------
$molecule
0 1
C	-0.518176	-0.335659	-0.003619
C	0.126824	0.209641	1.109381
C	1.189424	1.107341	0.816981
H	-0.169576	-0.040859	2.139281
C	1.379024	1.267341	-0.567219
S	0.223024	0.291041	-1.468319
C	2.002624	1.794341	1.878781
H	1.660424	1.505341	2.891381
H	1.927824	2.899441	1.804481
H	3.079624	1.535941	1.804581
C	-0.518176	-1.785759	-0.003619
H	-0.518176	-1.786259	1.076381
H	-1.456276	-2.320859	-0.003819
H	0.315024	-2.472959	-0.003919
H	2.110824	1.885641	-1.100719
$end

$rem
JOBTYPE		SP
EXCHANGE	HF
CORRELATION	pRIMP2
BASIS		cc-pvtz
METHOD		rimp2
AUX_BASIS	rimp2-cc-pvtz
SOLVENT_METHOD	PCM
PURECART	11111
SYMMETRY	false
MEM_TOTAL	110000
SCF_CONVERGENCE = 6
THRESH=10
GUI = 2
$end

$solvent
dielectric 4.90
$end
--------------------------------------------------------------

             Standard Nuclear Orientation (Angstroms)
    I     Atom           X                Y                Z
 ----------------------------------------------------------------
    1      C      -0.5181760000    -0.3356590000    -0.0036190000
    2      C       0.1268240000     0.2096410000     1.1093810000
    3      C       1.1894240000     1.1073410000     0.8169810000
    4      H      -0.1695760000    -0.0408590000     2.1392810000
    5      C       1.3790240000     1.2673410000    -0.5672190000
    6      S       0.2230240000     0.2910410000    -1.4683190000
    7      C       2.0026240000     1.7943410000     1.8787810000
    8      H       1.6604240000     1.5053410000     2.8913810000
    9      H       1.9278240000     2.8994410000     1.8044810000
   10      H       3.0796240000     1.5359410000     1.8045810000
   11      C      -0.5181760000    -1.7857590000    -0.0036190000
   12      H      -0.5181760000    -1.7862590000     1.0763810000
   13      H      -1.4562760000    -2.3208590000    -0.0038190000
   14      H       0.3150240000    -2.4729590000    -0.0039190000
   15      H       2.1108240000     1.8856410000    -1.1007190000
 ----------------------------------------------------------------

   10    -629.3723665723      8.44e-07  Convergence criterion met
 Total energy in the final basis set =     -629.3723665723
        RIMP2         total energy =      -630.5604921685 a.u.

                    Orbital Energies (a.u.)
 --------------------------------------------------------------

 Alpha MOs
 -- Occupied --
-91.9735 -11.2759 -11.2536 -11.2489 -11.2478 -11.2291 -11.2089  -8.9741
 -6.6549  -6.6542  -6.6539  -1.1696  -1.0536  -1.0005  -0.9344  -0.8845
 -0.7460  -0.7314  -0.6439  -0.5875  -0.5833  -0.5703  -0.5535  -0.5415
 -0.5185  -0.4707  -0.4609  -0.4298  -0.3333  -0.3071

          Ground-State Mulliken Net Atomic Charges

     Atom                 Charge (a.u.)
  ----------------------------------------
      1 C                    -0.068115
      2 C                    -0.165729
      3 C                     0.001513
      4 H                     0.177469
      5 C                    -0.203853
      6 S                     0.005781
      7 C                    -0.268168
      8 H                     0.101676
      9 H                     0.106884
     10 H                     0.105464
     11 C                    -0.350835
     12 H                     0.109177
     13 H                     0.108190
     14 H                     0.144354
     15 H                     0.196191
  ----------------------------------------
  Sum of atomic charges =     0.000000

                    Cartesian Multipole Moments
 -----------------------------------------------------------------
    Charge (ESU x 10^10)
                -0.0000
    Dipole Moment (Debye)
         X       1.9026      Y       0.3080      Z       2.3192
       Tot       3.0156
    Quadrupole Moments (Debye-Ang)
        XX     -49.0490     XY       4.3900     YY     -48.3524
        XZ      -0.3903     YZ      -0.9958     ZZ     -48.4119

 Total job time:  18.08s(wall), 772.57s(cpu)
        *  Thank you very much for using Q-Chem.  Have a nice day.  *
