 Q-Chem 5.4, Q-Chem, Inc., Pleasanton, CA (2021)
 Q-Chem 5.4.0 for Intel X86 EM64T Linux

User input:
--------------------------------------------------------------
$molecule
0 1
C	-0.116859	-0.566489	0.005925
C	0.026741	0.265811	1.118925
C	0.263641	1.636511	0.826525
H	-0.039259	-0.116589	2.148825
C	0.306141	1.881011	-0.557675
S	0.048041	0.390011	-1.458775
C	0.445041	2.685511	1.888325
H	0.368641	2.244111	2.900925
H	-0.322559	3.484011	1.814025
H	1.436141	3.179911	1.814125
C	-0.116859	-2.016589	0.005925
H	0.070641	-2.017089	-1.057675
H	0.807041	-2.551689	0.169025
H	-0.937459	-2.703789	-0.138475
H	0.469241	2.825011	-1.091175
$end

$rem
JOBTYPE		SP
EXCHANGE	HF
CORRELATION	pRIMP2
BASIS		cc-pvtz
METHOD		rimp2
AUX_BASIS	rimp2-cc-pvtz
SOLVENT_METHOD	PCM
PURECART	11111
SYMMETRY	false
MEM_TOTAL	110000
SCF_CONVERGENCE = 6
THRESH=10
GUI = 2
$end

$solvent
dielectric 4.90
$end
--------------------------------------------------------------

             Standard Nuclear Orientation (Angstroms)
    I     Atom           X                Y                Z
 ----------------------------------------------------------------
    1      C      -0.1168590000    -0.5664890000     0.0059250000
    2      C       0.0267410000     0.2658110000     1.1189250000
    3      C       0.2636410000     1.6365110000     0.8265250000
    4      H      -0.0392590000    -0.1165890000     2.1488250000
    5      C       0.3061410000     1.8810110000    -0.5576750000
    6      S       0.0480410000     0.3900110000    -1.4587750000
    7      C       0.4450410000     2.6855110000     1.8883250000
    8      H       0.3686410000     2.2441110000     2.9009250000
    9      H      -0.3225590000     3.4840110000     1.8140250000
   10      H       1.4361410000     3.1799110000     1.8141250000
   11      C      -0.1168590000    -2.0165890000     0.0059250000
   12      H       0.0706410000    -2.0170890000    -1.0576750000
   13      H       0.8070410000    -2.5516890000     0.1690250000
   14      H      -0.9374590000    -2.7037890000    -0.1384750000
   15      H       0.4692410000     2.8250110000    -1.0911750000
 ----------------------------------------------------------------

   10    -629.4203782355      5.39e-07  Convergence criterion met
 Total energy in the final basis set =     -629.4203782355
        RIMP2         total energy =      -630.5981964721 a.u.

                    Orbital Energies (a.u.)
 --------------------------------------------------------------

 Alpha MOs
 -- Occupied --
-91.9806 -11.2749 -11.2586 -11.2472 -11.2292 -11.2270 -11.2167  -8.9805
 -6.6614  -6.6609  -6.6602  -1.1609  -1.0535  -0.9951  -0.9455  -0.8827
 -0.7478  -0.7184  -0.6469  -0.5910  -0.5755  -0.5658  -0.5532  -0.5464
 -0.5087  -0.4866  -0.4648  -0.4447  -0.3380  -0.3044

          Ground-State Mulliken Net Atomic Charges

     Atom                 Charge (a.u.)
  ----------------------------------------
      1 C                     0.048367
      2 C                    -0.263244
      3 C                     0.041943
      4 H                     0.178970
      5 C                    -0.259594
      6 S                    -0.002383
      7 C                    -0.272837
      8 H                     0.102018
      9 H                     0.106933
     10 H                     0.106864
     11 C                    -0.368324
     12 H                     0.113053
     13 H                     0.129588
     14 H                     0.142710
     15 H                     0.195935
  ----------------------------------------
  Sum of atomic charges =     0.000000

                    Cartesian Multipole Moments
 -----------------------------------------------------------------
    Charge (ESU x 10^10)
                -0.0000
    Dipole Moment (Debye)
         X       0.3908      Y       0.0180      Z       0.8781
       Tot       0.9613
    Quadrupole Moments (Debye-Ang)
        XX     -53.4998     XY       1.3229     YY     -42.4170
        XZ       0.2270     YZ       1.5875     ZZ     -48.8317

 Total job time:  19.47s(wall), 739.72s(cpu)
        *  Thank you very much for using Q-Chem.  Have a nice day.  *
