 Q-Chem 5.4, Q-Chem, Inc., Pleasanton, CA (2021)
 Q-Chem 5.4.0 for Intel X86 EM64T Linux

User input:
--------------------------------------------------------------
$molecule
0 1
C	-0.120411	-0.566489	0.001609
C	0.023189	0.265811	1.114609
C	0.260089	1.636511	0.822209
H	-0.042811	-0.116589	2.144509
C	0.302589	1.881011	-0.561991
S	0.044489	0.390011	-1.463091
C	0.441489	2.685511	1.884009
H	0.365089	2.244111	2.896609
H	-0.326111	3.484011	1.809709
H	1.432589	3.179911	1.809809
C	-0.120411	-2.016589	0.001609
H	0.943189	-2.017089	-0.185991
H	0.042289	-2.551689	0.925509
H	-0.265411	-2.703789	-0.818891
H	0.465689	2.825011	-1.095491
$end

$rem
JOBTYPE		SP
EXCHANGE	HF
CORRELATION	pRIMP2
BASIS		cc-pvtz
METHOD		rimp2
AUX_BASIS	rimp2-cc-pvtz
SOLVENT_METHOD	PCM
PURECART	11111
SYMMETRY	false
MEM_TOTAL	110000
SCF_CONVERGENCE = 6
THRESH=10
GUI = 2
$end

$solvent
dielectric 4.90
$end
--------------------------------------------------------------

             Standard Nuclear Orientation (Angstroms)
    I     Atom           X                Y                Z
 ----------------------------------------------------------------
    1      C      -0.1204110000    -0.5664890000     0.0016090000
    2      C       0.0231890000     0.2658110000     1.1146090000
    3      C       0.2600890000     1.6365110000     0.8222090000
    4      H      -0.0428110000    -0.1165890000     2.1445090000
    5      C       0.3025890000     1.8810110000    -0.5619910000
    6      S       0.0444890000     0.3900110000    -1.4630910000
    7      C       0.4414890000     2.6855110000     1.8840090000
    8      H       0.3650890000     2.2441110000     2.8966090000
    9      H      -0.3261110000     3.4840110000     1.8097090000
   10      H       1.4325890000     3.1799110000     1.8098090000
   11      C      -0.1204110000    -2.0165890000     0.0016090000
   12      H       0.9431890000    -2.0170890000    -0.1859910000
   13      H       0.0422890000    -2.5516890000     0.9255090000
   14      H      -0.2654110000    -2.7037890000    -0.8188910000
   15      H       0.4656890000     2.8250110000    -1.0954910000
 ----------------------------------------------------------------

   10    -629.4257775019      6.90e-07  Convergence criterion met
 Total energy in the final basis set =     -629.4257775019
        RIMP2         total energy =      -630.6006927588 a.u.

                    Orbital Energies (a.u.)
 --------------------------------------------------------------

 Alpha MOs
 -- Occupied --
-91.9780 -11.2861 -11.2499 -11.2472 -11.2267 -11.2236 -11.2233  -8.9779
 -6.6589  -6.6584  -6.6577  -1.1606  -1.0549  -0.9970  -0.9416  -0.8835
 -0.7443  -0.7183  -0.6469  -0.5892  -0.5765  -0.5681  -0.5511  -0.5461
 -0.5068  -0.4955  -0.4667  -0.4559  -0.3387  -0.2899

          Ground-State Mulliken Net Atomic Charges

     Atom                 Charge (a.u.)
  ----------------------------------------
      1 C                     0.060225
      2 C                    -0.313955
      3 C                     0.054528
      4 H                     0.176594
      5 C                    -0.279217
      6 S                    -0.002476
      7 C                    -0.273085
      8 H                     0.101453
      9 H                     0.107371
     10 H                     0.107461
     11 C                    -0.377388
     12 H                     0.144110
     13 H                     0.143023
     14 H                     0.158078
     15 H                     0.193279
  ----------------------------------------
  Sum of atomic charges =     0.000000

                    Cartesian Multipole Moments
 -----------------------------------------------------------------
    Charge (ESU x 10^10)
                -0.0000
    Dipole Moment (Debye)
         X       0.9072      Y      -0.7379      Z       1.3064
       Tot       1.7533
    Quadrupole Moments (Debye-Ang)
        XX     -54.3280     XY       0.0184     YY     -41.8932
        XZ       0.2097     YZ       0.7791     ZZ     -48.6151

 Total job time:  16.71s(wall), 738.56s(cpu)
        *  Thank you very much for using Q-Chem.  Have a nice day.  *
