 Q-Chem 5.4, Q-Chem, Inc., Pleasanton, CA (2021)
 Q-Chem 5.4.0 for Intel X86 EM64T Linux

User input:
--------------------------------------------------------------
$molecule
0 1
C	-0.338759	-0.486609	0.005925
C	0.080841	0.246391	1.118925
C	0.772341	1.453391	0.826525
H	-0.112059	-0.090409	2.148825
C	0.895841	1.668591	-0.557675
S	0.143341	0.355791	-1.458775
C	1.301541	2.377091	1.888325
H	1.078741	1.988491	2.900925
H	0.853241	3.389991	1.814025
H	2.401941	2.502691	1.814125
C	-0.338759	-1.936709	0.005925
H	-0.151259	-1.937209	-1.057675
H	0.585141	-2.471809	0.169025
H	-1.159359	-2.623909	-0.138475
H	1.371941	2.499891	-1.091175
$end

$rem
JOBTYPE		SP
EXCHANGE	HF
CORRELATION	pRIMP2
BASIS		cc-pvtz
METHOD		rimp2
AUX_BASIS	rimp2-cc-pvtz
SOLVENT_METHOD	PCM
PURECART	11111
SYMMETRY	false
MEM_TOTAL	110000
SCF_CONVERGENCE = 6
THRESH=10
GUI = 2
$end

$solvent
dielectric 4.90
$end
--------------------------------------------------------------

             Standard Nuclear Orientation (Angstroms)
    I     Atom           X                Y                Z
 ----------------------------------------------------------------
    1      C      -0.3387590000    -0.4866090000     0.0059250000
    2      C       0.0808410000     0.2463910000     1.1189250000
    3      C       0.7723410000     1.4533910000     0.8265250000
    4      H      -0.1120590000    -0.0904090000     2.1488250000
    5      C       0.8958410000     1.6685910000    -0.5576750000
    6      S       0.1433410000     0.3557910000    -1.4587750000
    7      C       1.3015410000     2.3770910000     1.8883250000
    8      H       1.0787410000     1.9884910000     2.9009250000
    9      H       0.8532410000     3.3899910000     1.8140250000
   10      H       2.4019410000     2.5026910000     1.8141250000
   11      C      -0.3387590000    -1.9367090000     0.0059250000
   12      H      -0.1512590000    -1.9372090000    -1.0576750000
   13      H       0.5851410000    -2.4718090000     0.1690250000
   14      H      -1.1593590000    -2.6239090000    -0.1384750000
   15      H       1.3719410000     2.4998910000    -1.0911750000
 ----------------------------------------------------------------

   10    -629.4041172266      5.38e-07  Convergence criterion met
 Total energy in the final basis set =     -629.4041172266
        RIMP2         total energy =      -630.5854695006 a.u.

                    Orbital Energies (a.u.)
 --------------------------------------------------------------

 Alpha MOs
 -- Occupied --
-91.9786 -11.2684 -11.2634 -11.2473 -11.2338 -11.2274 -11.2141  -8.9788
 -6.6597  -6.6591  -6.6585  -1.1635  -1.0538  -0.9943  -0.9448  -0.8817
 -0.7493  -0.7201  -0.6453  -0.5904  -0.5767  -0.5659  -0.5523  -0.5466
 -0.5114  -0.4798  -0.4642  -0.4430  -0.3366  -0.3044

          Ground-State Mulliken Net Atomic Charges

     Atom                 Charge (a.u.)
  ----------------------------------------
      1 C                     0.012340
      2 C                    -0.249631
      3 C                     0.043671
      4 H                     0.177598
      5 C                    -0.247264
      6 S                    -0.002735
      7 C                    -0.270982
      8 H                     0.102102
      9 H                     0.107043
     10 H                     0.106074
     11 C                    -0.364305
     12 H                     0.116977
     13 H                     0.134262
     14 H                     0.138656
     15 H                     0.196193
  ----------------------------------------
  Sum of atomic charges =     0.000000

                    Cartesian Multipole Moments
 -----------------------------------------------------------------
    Charge (ESU x 10^10)
                -0.0000
    Dipole Moment (Debye)
         X       1.0265      Y       0.1234      Z       0.9589
       Tot       1.4102
    Quadrupole Moments (Debye-Ang)
        XX     -51.8064     XY       3.7106     YY     -44.7296
        XZ       0.3551     YZ       1.4438     ZZ     -48.6411

 Total job time:  15.81s(wall), 750.42s(cpu)
        *  Thank you very much for using Q-Chem.  Have a nice day.  *
