 Q-Chem 5.4, Q-Chem, Inc., Pleasanton, CA (2021)
 Q-Chem 5.4.0 for Intel X86 EM64T Linux

User input:
--------------------------------------------------------------
$molecule
0 1
C	-0.119031	-0.566489	0.004642
C	0.024569	0.265811	1.117642
C	0.261469	1.636511	0.825242
H	-0.041431	-0.116589	2.147542
C	0.303969	1.881011	-0.558958
S	0.045869	0.390011	-1.460058
C	0.442869	2.685511	1.887042
H	0.366469	2.244111	2.899642
H	-0.324731	3.484011	1.812742
H	1.433969	3.179911	1.812842
C	-0.119031	-2.016589	0.004642
H	0.575169	-2.017089	-0.822658
H	0.599469	-2.551689	0.607842
H	-0.757531	-2.703789	-0.530658
H	0.467069	2.825011	-1.092458
$end

$rem
JOBTYPE		SP
EXCHANGE	HF
CORRELATION	pRIMP2
BASIS		cc-pvtz
METHOD		rimp2
AUX_BASIS	rimp2-cc-pvtz
SOLVENT_METHOD	PCM
PURECART	11111
SYMMETRY	false
MEM_TOTAL	110000
SCF_CONVERGENCE = 6
THRESH=10
GUI = 2
$end

$solvent
dielectric 4.90
$end
--------------------------------------------------------------

             Standard Nuclear Orientation (Angstroms)
    I     Atom           X                Y                Z
 ----------------------------------------------------------------
    1      C      -0.1190310000    -0.5664890000     0.0046420000
    2      C       0.0245690000     0.2658110000     1.1176420000
    3      C       0.2614690000     1.6365110000     0.8252420000
    4      H      -0.0414310000    -0.1165890000     2.1475420000
    5      C       0.3039690000     1.8810110000    -0.5589580000
    6      S       0.0458690000     0.3900110000    -1.4600580000
    7      C       0.4428690000     2.6855110000     1.8870420000
    8      H       0.3664690000     2.2441110000     2.8996420000
    9      H      -0.3247310000     3.4840110000     1.8127420000
   10      H       1.4339690000     3.1799110000     1.8128420000
   11      C      -0.1190310000    -2.0165890000     0.0046420000
   12      H       0.5751690000    -2.0170890000    -0.8226580000
   13      H       0.5994690000    -2.5516890000     0.6078420000
   14      H      -0.7575310000    -2.7037890000    -0.5306580000
   15      H       0.4670690000     2.8250110000    -1.0924580000
 ----------------------------------------------------------------

   10    -629.4225672120      6.04e-07  Convergence criterion met
 Total energy in the final basis set =     -629.4225672120
        RIMP2         total energy =      -630.5990814795 a.u.

                    Orbital Energies (a.u.)
 --------------------------------------------------------------

 Alpha MOs
 -- Occupied --
-91.9785 -11.2794 -11.2555 -11.2470 -11.2277 -11.2269 -11.2189  -8.9785
 -6.6594  -6.6589  -6.6583  -1.1608  -1.0540  -0.9956  -0.9443  -0.8828
 -0.7466  -0.7183  -0.6467  -0.5906  -0.5762  -0.5663  -0.5516  -0.5465
 -0.5079  -0.4904  -0.4648  -0.4502  -0.3388  -0.2979

          Ground-State Mulliken Net Atomic Charges

     Atom                 Charge (a.u.)
  ----------------------------------------
      1 C                     0.052923
      2 C                    -0.286215
      3 C                     0.047168
      4 H                     0.180058
      5 C                    -0.263073
      6 S                    -0.003580
      7 C                    -0.272468
      8 H                     0.101663
      9 H                     0.107340
     10 H                     0.107061
     11 C                    -0.372544
     12 H                     0.123179
     13 H                     0.137791
     14 H                     0.146086
     15 H                     0.194611
  ----------------------------------------
  Sum of atomic charges =     0.000000

                    Cartesian Multipole Moments
 -----------------------------------------------------------------
    Charge (ESU x 10^10)
                -0.0000
    Dipole Moment (Debye)
         X       0.6825      Y      -0.2638      Z       0.9828
       Tot       1.2253
    Quadrupole Moments (Debye-Ang)
        XX     -53.8656     XY       0.5901     YY     -42.2344
        XZ       0.4186     YZ       1.4744     ZZ     -48.7283

 Total job time:  19.28s(wall), 765.80s(cpu)
        *  Thank you very much for using Q-Chem.  Have a nice day.  *
