 Q-Chem 5.4, Q-Chem, Inc., Pleasanton, CA (2021)
 Q-Chem 5.4.0 for Intel X86 EM64T Linux

User input:
--------------------------------------------------------------
$molecule
0 1
C	-0.225607	-0.536244	0.003333
C	0.060393	0.258456	1.116333
C	0.531693	1.567156	0.823933
H	-0.071107	-0.106644	2.146233
C	0.615993	1.800556	-0.560267
S	0.102893	0.377056	-1.461367
C	0.892493	2.568756	1.885733
H	0.740593	2.147356	2.898333
H	0.275193	3.488456	1.811433
H	1.954393	2.883556	1.811533
C	-0.225607	-1.986344	0.003333
H	-1.240507	-1.986844	-0.366067
H	0.095493	-2.521444	-0.878167
H	-0.510307	-2.673544	0.786333
H	0.940493	2.701956	-1.093767
$end

$rem
JOBTYPE		SP
EXCHANGE	HF
CORRELATION	pRIMP2
BASIS		cc-pvtz
METHOD		rimp2
AUX_BASIS	rimp2-cc-pvtz
SOLVENT_METHOD	PCM
PURECART	11111
SYMMETRY	false
MEM_TOTAL	110000
SCF_CONVERGENCE = 6
THRESH=10
GUI = 2
$end

$solvent
dielectric 4.90
$end
--------------------------------------------------------------

             Standard Nuclear Orientation (Angstroms)
    I     Atom           X                Y                Z
 ----------------------------------------------------------------
    1      C      -0.2256070000    -0.5362440000     0.0033330000
    2      C       0.0603930000     0.2584560000     1.1163330000
    3      C       0.5316930000     1.5671560000     0.8239330000
    4      H      -0.0711070000    -0.1066440000     2.1462330000
    5      C       0.6159930000     1.8005560000    -0.5602670000
    6      S       0.1028930000     0.3770560000    -1.4613670000
    7      C       0.8924930000     2.5687560000     1.8857330000
    8      H       0.7405930000     2.1473560000     2.8983330000
    9      H       0.2751930000     3.4884560000     1.8114330000
   10      H       1.9543930000     2.8835560000     1.8115330000
   11      C      -0.2256070000    -1.9863440000     0.0033330000
   12      H      -1.2405070000    -1.9868440000    -0.3660670000
   13      H       0.0954930000    -2.5214440000    -0.8781670000
   14      H      -0.5103070000    -2.6735440000     0.7863330000
   15      H       0.9404930000     2.7019560000    -1.0937670000
 ----------------------------------------------------------------

   10    -629.4134170841      6.00e-07  Convergence criterion met
 Total energy in the final basis set =     -629.4134170841
        RIMP2         total energy =      -630.5912411514 a.u.

                    Orbital Energies (a.u.)
 --------------------------------------------------------------

 Alpha MOs
 -- Occupied --
-91.9790 -11.2797 -11.2537 -11.2471 -11.2266 -11.2255 -11.2190  -8.9788
 -6.6598  -6.6593  -6.6587  -1.1605  -1.0537  -0.9960  -0.9430  -0.8833
 -0.7450  -0.7186  -0.6467  -0.5871  -0.5734  -0.5678  -0.5527  -0.5454
 -0.5095  -0.4931  -0.4605  -0.4553  -0.3381  -0.2902

          Ground-State Mulliken Net Atomic Charges

     Atom                 Charge (a.u.)
  ----------------------------------------
      1 C                     0.022391
      2 C                    -0.266980
      3 C                     0.039631
      4 H                     0.178972
      5 C                    -0.266169
      6 S                    -0.001774
      7 C                    -0.272325
      8 H                     0.101499
      9 H                     0.107071
     10 H                     0.106811
     11 C                    -0.377587
     12 H                     0.131449
     13 H                     0.141781
     14 H                     0.160333
     15 H                     0.194898
  ----------------------------------------
  Sum of atomic charges =     0.000000

                    Cartesian Multipole Moments
 -----------------------------------------------------------------
    Charge (ESU x 10^10)
                -0.0000
    Dipole Moment (Debye)
         X      -0.2210      Y      -0.4658      Z       1.2152
       Tot       1.3200
    Quadrupole Moments (Debye-Ang)
        XX     -53.1371     XY       4.2937     YY     -42.9383
        XZ      -0.1027     YZ       0.6794     ZZ     -48.5006

 Total job time:  19.28s(wall), 737.04s(cpu)
        *  Thank you very much for using Q-Chem.  Have a nice day.  *
