 Q-Chem 5.4, Q-Chem, Inc., Pleasanton, CA (2021)
 Q-Chem 5.4.0 for Intel X86 EM64T Linux

User input:
--------------------------------------------------------------
$molecule
0 1
C	-0.117569	-0.566489	-0.003205
C	0.026031	0.265811	1.109795
C	0.262931	1.636511	0.817395
H	-0.039969	-0.116589	2.139695
C	0.305431	1.881011	-0.566805
S	0.047331	0.390011	-1.467905
C	0.444331	2.685511	1.879195
H	0.367931	2.244111	2.891795
H	-0.323269	3.484011	1.804895
H	1.435431	3.179911	1.804995
C	-0.117569	-2.016589	-0.003205
H	0.422431	-2.017089	0.932095
H	-0.930169	-2.551689	0.465695
H	0.603831	-2.703789	-0.420105
H	0.468531	2.825011	-1.100305
$end

$rem
JOBTYPE		SP
EXCHANGE	HF
CORRELATION	pRIMP2
BASIS		cc-pvtz
METHOD		rimp2
AUX_BASIS	rimp2-cc-pvtz
SOLVENT_METHOD	PCM
PURECART	11111
SYMMETRY	false
MEM_TOTAL	110000
SCF_CONVERGENCE = 6
THRESH=10
GUI = 2
$end

$solvent
dielectric 4.90
$end
--------------------------------------------------------------

             Standard Nuclear Orientation (Angstroms)
    I     Atom           X                Y                Z
 ----------------------------------------------------------------
    1      C      -0.1175690000    -0.5664890000    -0.0032050000
    2      C       0.0260310000     0.2658110000     1.1097950000
    3      C       0.2629310000     1.6365110000     0.8173950000
    4      H      -0.0399690000    -0.1165890000     2.1396950000
    5      C       0.3054310000     1.8810110000    -0.5668050000
    6      S       0.0473310000     0.3900110000    -1.4679050000
    7      C       0.4443310000     2.6855110000     1.8791950000
    8      H       0.3679310000     2.2441110000     2.8917950000
    9      H      -0.3232690000     3.4840110000     1.8048950000
   10      H       1.4354310000     3.1799110000     1.8049950000
   11      C      -0.1175690000    -2.0165890000    -0.0032050000
   12      H       0.4224310000    -2.0170890000     0.9320950000
   13      H      -0.9301690000    -2.5516890000     0.4656950000
   14      H       0.6038310000    -2.7037890000    -0.4201050000
   15      H       0.4685310000     2.8250110000    -1.1003050000
 ----------------------------------------------------------------

   10    -629.4226553121      5.22e-07  Convergence criterion met
 Total energy in the final basis set =     -629.4226553121
        RIMP2         total energy =      -630.6004915498 a.u.

                    Orbital Energies (a.u.)
 --------------------------------------------------------------

 Alpha MOs
 -- Occupied --
-91.9769 -11.2799 -11.2551 -11.2474 -11.2306 -11.2274 -11.2178  -8.9767
 -6.6576  -6.6571  -6.6566  -1.1609  -1.0529  -0.9993  -0.9386  -0.8850
 -0.7422  -0.7223  -0.6473  -0.5908  -0.5762  -0.5686  -0.5580  -0.5418
 -0.5100  -0.4849  -0.4679  -0.4445  -0.3367  -0.2998

          Ground-State Mulliken Net Atomic Charges

     Atom                 Charge (a.u.)
  ----------------------------------------
      1 C                     0.054550
      2 C                    -0.265159
      3 C                     0.030156
      4 H                     0.175456
      5 C                    -0.258265
      6 S                    -0.004871
      7 C                    -0.273522
      8 H                     0.101249
      9 H                     0.107287
     10 H                     0.107156
     11 C                    -0.382289
     12 H                     0.131344
     13 H                     0.131678
     14 H                     0.152186
     15 H                     0.193045
  ----------------------------------------
  Sum of atomic charges =     0.000000

                    Cartesian Multipole Moments
 -----------------------------------------------------------------
    Charge (ESU x 10^10)
                -0.0000
    Dipole Moment (Debye)
         X       0.5610      Y      -0.2599      Z       2.0709
       Tot       2.1612
    Quadrupole Moments (Debye-Ang)
        XX     -53.7024     XY       0.6025     YY     -42.4019
        XZ      -0.2708     YZ      -0.7922     ZZ     -48.8364

 Total job time:  15.82s(wall), 749.53s(cpu)
        *  Thank you very much for using Q-Chem.  Have a nice day.  *
