 Q-Chem 5.4, Q-Chem, Inc., Pleasanton, CA (2021)
 Q-Chem 5.4.0 for Intel X86 EM64T Linux

User input:
--------------------------------------------------------------
$molecule
0 1
C	-0.289252	-0.513776	0.003247
C	0.064948	0.253024	1.116247
C	0.648548	1.515624	0.823847
H	-0.097952	-0.099276	2.146147
C	0.752748	1.740824	-0.560353
S	0.117648	0.367424	-1.461453
C	1.095148	2.482024	1.885647
H	0.907148	2.075424	2.898247
H	0.560348	3.451924	1.811347
H	2.180548	2.703024	1.811447
C	-0.289252	-1.963876	0.003247
H	0.646048	-1.964376	-0.536753
H	0.179648	-2.498976	0.815847
H	-0.706152	-2.651076	-0.718153
H	1.154648	2.610424	-1.093853
$end

$rem
JOBTYPE		SP
EXCHANGE	HF
CORRELATION	pRIMP2
BASIS		cc-pvtz
METHOD		rimp2
AUX_BASIS	rimp2-cc-pvtz
SOLVENT_METHOD	PCM
PURECART	11111
SYMMETRY	false
MEM_TOTAL	110000
SCF_CONVERGENCE = 6
THRESH=10
GUI = 2
$end

$solvent
dielectric 4.90
$end
--------------------------------------------------------------

             Standard Nuclear Orientation (Angstroms)
    I     Atom           X                Y                Z
 ----------------------------------------------------------------
    1      C      -0.2892520000    -0.5137760000     0.0032470000
    2      C       0.0649480000     0.2530240000     1.1162470000
    3      C       0.6485480000     1.5156240000     0.8238470000
    4      H      -0.0979520000    -0.0992760000     2.1461470000
    5      C       0.7527480000     1.7408240000    -0.5603530000
    6      S       0.1176480000     0.3674240000    -1.4614530000
    7      C       1.0951480000     2.4820240000     1.8856470000
    8      H       0.9071480000     2.0754240000     2.8982470000
    9      H       0.5603480000     3.4519240000     1.8113470000
   10      H       2.1805480000     2.7030240000     1.8114470000
   11      C      -0.2892520000    -1.9638760000     0.0032470000
   12      H       0.6460480000    -1.9643760000    -0.5367530000
   13      H       0.1796480000    -2.4989760000     0.8158470000
   14      H      -0.7061520000    -2.6510760000    -0.7181530000
   15      H       1.1546480000     2.6104240000    -1.0938530000
 ----------------------------------------------------------------

   10    -629.4150906253      6.59e-07  Convergence criterion met
 Total energy in the final basis set =     -629.4150906253
        RIMP2         total energy =      -630.5927603869 a.u.

                    Orbital Energies (a.u.)
 --------------------------------------------------------------

 Alpha MOs
 -- Occupied --
-91.9759 -11.2803 -11.2555 -11.2474 -11.2283 -11.2271 -11.2204  -8.9763
 -6.6573  -6.6567  -6.6561  -1.1629  -1.0549  -0.9956  -0.9424  -0.8825
 -0.7464  -0.7195  -0.6458  -0.5893  -0.5787  -0.5659  -0.5506  -0.5466
 -0.5078  -0.4939  -0.4634  -0.4523  -0.3395  -0.2925

          Ground-State Mulliken Net Atomic Charges

     Atom                 Charge (a.u.)
  ----------------------------------------
      1 C                     0.051568
      2 C                    -0.314091
      3 C                     0.058640
      4 H                     0.178245
      5 C                    -0.265115
      6 S                    -0.005160
      7 C                    -0.270509
      8 H                     0.101660
      9 H                     0.107743
     10 H                     0.106921
     11 C                    -0.371703
     12 H                     0.139347
     13 H                     0.140395
     14 H                     0.148784
     15 H                     0.193274
  ----------------------------------------
  Sum of atomic charges =     0.000000

                    Cartesian Multipole Moments
 -----------------------------------------------------------------
    Charge (ESU x 10^10)
                -0.0000
    Dipole Moment (Debye)
         X       1.1842      Y      -0.4527      Z       1.1924
       Tot       1.7404
    Quadrupole Moments (Debye-Ang)
        XX     -53.1351     XY       2.2327     YY     -43.5835
        XZ       0.4566     YZ       1.1091     ZZ     -48.6022

 Total job time:  15.66s(wall), 749.90s(cpu)
        *  Thank you very much for using Q-Chem.  Have a nice day.  *
