 Q-Chem 5.4, Q-Chem, Inc., Pleasanton, CA (2021)
 Q-Chem 5.4.0 for Intel X86 EM64T Linux

User input:
--------------------------------------------------------------
$molecule
0 1
C	-0.514684	-0.335659	0.004064
C	0.130316	0.209641	1.117064
C	1.192916	1.107341	0.824664
H	-0.166084	-0.040859	2.146964
C	1.382516	1.267341	-0.559536
S	0.226516	0.291041	-1.460636
C	2.006116	1.794341	1.886464
H	1.663916	1.505341	2.899064
H	1.931316	2.899441	1.812164
H	3.083116	1.535941	1.812264
C	-0.514684	-1.785759	0.004064
H	-1.449984	-1.786259	-0.535936
H	-0.045384	-2.320859	-0.808236
H	-0.930984	-2.472959	0.725764
H	2.114316	1.885641	-1.093036
$end

$rem
JOBTYPE		SP
EXCHANGE	HF
CORRELATION	pRIMP2
BASIS		cc-pvtz
METHOD		rimp2
AUX_BASIS	rimp2-cc-pvtz
SOLVENT_METHOD	PCM
PURECART	11111
SYMMETRY	false
MEM_TOTAL	110000
SCF_CONVERGENCE = 6
THRESH=10
GUI = 2
$end

$solvent
dielectric 4.90
$end
--------------------------------------------------------------

             Standard Nuclear Orientation (Angstroms)
    I     Atom           X                Y                Z
 ----------------------------------------------------------------
    1      C      -0.5146840000    -0.3356590000     0.0040640000
    2      C       0.1303160000     0.2096410000     1.1170640000
    3      C       1.1929160000     1.1073410000     0.8246640000
    4      H      -0.1660840000    -0.0408590000     2.1469640000
    5      C       1.3825160000     1.2673410000    -0.5595360000
    6      S       0.2265160000     0.2910410000    -1.4606360000
    7      C       2.0061160000     1.7943410000     1.8864640000
    8      H       1.6639160000     1.5053410000     2.8990640000
    9      H       1.9313160000     2.8994410000     1.8121640000
   10      H       3.0831160000     1.5359410000     1.8122640000
   11      C      -0.5146840000    -1.7857590000     0.0040640000
   12      H      -1.4499840000    -1.7862590000    -0.5359360000
   13      H      -0.0453840000    -2.3208590000    -0.8082360000
   14      H      -0.9309840000    -2.4729590000     0.7257640000
   15      H       2.1143160000     1.8856410000    -1.0930360000
 ----------------------------------------------------------------

   11    -629.3649778933      4.26e-07  Convergence criterion met
 Total energy in the final basis set =     -629.3649778933
        RIMP2         total energy =      -630.5531038638 a.u.

                    Orbital Energies (a.u.)
 --------------------------------------------------------------

 Alpha MOs
 -- Occupied --
-91.9763 -11.2724 -11.2544 -11.2480 -11.2413 -11.2278 -11.2085  -8.9768
 -6.6577  -6.6570  -6.6565  -1.1670  -1.0529  -0.9950  -0.9421  -0.8820
 -0.7496  -0.7245  -0.6419  -0.5885  -0.5750  -0.5684  -0.5519  -0.5435
 -0.5154  -0.4852  -0.4567  -0.4371  -0.3361  -0.2902

          Ground-State Mulliken Net Atomic Charges

     Atom                 Charge (a.u.)
  ----------------------------------------
      1 C                    -0.076720
      2 C                    -0.162407
      3 C                     0.008350
      4 H                     0.182076
      5 C                    -0.211207
      6 S                     0.004965
      7 C                    -0.269710
      8 H                     0.101671
      9 H                     0.106785
     10 H                     0.104755
     11 C                    -0.387723
     12 H                     0.120328
     13 H                     0.137061
     14 H                     0.144635
     15 H                     0.197139
  ----------------------------------------
  Sum of atomic charges =     0.000000

                    Cartesian Multipole Moments
 -----------------------------------------------------------------
    Charge (ESU x 10^10)
                -0.0000
    Dipole Moment (Debye)
         X       1.2567      Y       0.1016      Z       1.4003
       Tot       1.8843
    Quadrupole Moments (Debye-Ang)
        XX     -49.0756     XY       5.6674     YY     -48.1463
        XZ      -0.3616     YZ       0.4351     ZZ     -47.9962

 Total job time:  19.36s(wall), 840.44s(cpu)
        *  Thank you very much for using Q-Chem.  Have a nice day.  *
