 Q-Chem 5.4, Q-Chem, Inc., Pleasanton, CA (2021)
 Q-Chem 5.4.0 for Intel X86 EM64T Linux

User input:
--------------------------------------------------------------
$molecule
0 1
C	-0.280381	-0.513776	-0.000785
C	0.073819	0.253024	1.112215
C	0.657419	1.515624	0.819815
H	-0.089081	-0.099276	2.142115
C	0.761619	1.740824	-0.564385
S	0.126519	0.367424	-1.465485
C	1.104019	2.482024	1.881615
H	0.916019	2.075424	2.894215
H	0.569219	3.451924	1.807315
H	2.189419	2.703024	1.807415
C	-0.280381	-1.963876	-0.000785
H	-1.215681	-1.964376	0.539215
H	-0.749281	-2.498976	-0.813385
H	0.136519	-2.651076	0.720615
H	1.163519	2.610424	-1.097885
$end

$rem
JOBTYPE		SP
EXCHANGE	HF
CORRELATION	pRIMP2
BASIS		cc-pvtz
METHOD		rimp2
AUX_BASIS	rimp2-cc-pvtz
SOLVENT_METHOD	PCM
PURECART	11111
SYMMETRY	false
MEM_TOTAL	110000
SCF_CONVERGENCE = 6
THRESH=10
GUI = 2
$end

$solvent
dielectric 4.90
$end
--------------------------------------------------------------

             Standard Nuclear Orientation (Angstroms)
    I     Atom           X                Y                Z
 ----------------------------------------------------------------
    1      C      -0.2803810000    -0.5137760000    -0.0007850000
    2      C       0.0738190000     0.2530240000     1.1122150000
    3      C       0.6574190000     1.5156240000     0.8198150000
    4      H      -0.0890810000    -0.0992760000     2.1421150000
    5      C       0.7616190000     1.7408240000    -0.5643850000
    6      S       0.1265190000     0.3674240000    -1.4654850000
    7      C       1.1040190000     2.4820240000     1.8816150000
    8      H       0.9160190000     2.0754240000     2.8942150000
    9      H       0.5692190000     3.4519240000     1.8073150000
   10      H       2.1894190000     2.7030240000     1.8074150000
   11      C      -0.2803810000    -1.9638760000    -0.0007850000
   12      H      -1.2156810000    -1.9643760000     0.5392150000
   13      H      -0.7492810000    -2.4989760000    -0.8133850000
   14      H       0.1365190000    -2.6510760000     0.7206150000
   15      H       1.1635190000     2.6104240000    -1.0978850000
 ----------------------------------------------------------------

   10    -629.4102502632      5.55e-07  Convergence criterion met
 Total energy in the final basis set =     -629.4102502632
        RIMP2         total energy =      -630.5904286373 a.u.

                    Orbital Energies (a.u.)
 --------------------------------------------------------------

 Alpha MOs
 -- Occupied --
-91.9763 -11.2762 -11.2563 -11.2477 -11.2304 -11.2272 -11.2173  -8.9763
 -6.6573  -6.6567  -6.6561  -1.1610  -1.0528  -0.9976  -0.9401  -0.8844
 -0.7434  -0.7212  -0.6470  -0.5858  -0.5751  -0.5645  -0.5586  -0.5430
 -0.5115  -0.4928  -0.4608  -0.4470  -0.3372  -0.2925

          Ground-State Mulliken Net Atomic Charges

     Atom                 Charge (a.u.)
  ----------------------------------------
      1 C                     0.029858
      2 C                    -0.285881
      3 C                     0.045147
      4 H                     0.175357
      5 C                    -0.256724
      6 S                     0.002992
      7 C                    -0.271905
      8 H                     0.101458
      9 H                     0.107092
     10 H                     0.106913
     11 C                    -0.376834
     12 H                     0.133705
     13 H                     0.136961
     14 H                     0.159446
     15 H                     0.192416
  ----------------------------------------
  Sum of atomic charges =     0.000000

                    Cartesian Multipole Moments
 -----------------------------------------------------------------
    Charge (ESU x 10^10)
                -0.0000
    Dipole Moment (Debye)
         X      -0.0125      Y      -0.3217      Z       1.8523
       Tot       1.8800
    Quadrupole Moments (Debye-Ang)
        XX     -52.4460     XY       4.6809     YY     -43.7601
        XZ       0.3277     YZ      -0.4713     ZZ     -48.5204

 Total job time:  18.75s(wall), 759.45s(cpu)
        *  Thank you very much for using Q-Chem.  Have a nice day.  *
