 Q-Chem 5.4, Q-Chem, Inc., Pleasanton, CA (2021)
 Q-Chem 5.4.0 for Intel X86 EM64T Linux

User input:
--------------------------------------------------------------
$molecule
0 1
C	-0.171329	-0.553870	-0.003165
C	0.044271	0.262730	1.109835
C	0.399771	1.607530	0.817435
H	-0.054829	-0.112470	2.139735
C	0.463371	1.847430	-0.566765
S	0.076271	0.384630	-1.467865
C	0.671871	2.636830	1.879235
H	0.557271	2.203730	2.891835
H	-0.023229	3.499130	1.804935
H	1.702371	3.042930	1.805035
C	-0.171329	-2.003970	-0.003165
H	-0.540729	-2.004470	1.011735
H	-1.052829	-2.539070	-0.324265
H	0.611671	-2.691170	0.281535
H	0.708171	2.773630	-1.100265
$end

$rem
JOBTYPE		SP
EXCHANGE	HF
CORRELATION	pRIMP2
BASIS		cc-pvtz
METHOD		rimp2
AUX_BASIS	rimp2-cc-pvtz
SOLVENT_METHOD	PCM
PURECART	11111
SYMMETRY	false
MEM_TOTAL	110000
SCF_CONVERGENCE = 6
THRESH=10
GUI = 2
$end

$solvent
dielectric 4.90
$end
--------------------------------------------------------------

             Standard Nuclear Orientation (Angstroms)
    I     Atom           X                Y                Z
 ----------------------------------------------------------------
    1      C      -0.1713290000    -0.5538700000    -0.0031650000
    2      C       0.0442710000     0.2627300000     1.1098350000
    3      C       0.3997710000     1.6075300000     0.8174350000
    4      H      -0.0548290000    -0.1124700000     2.1397350000
    5      C       0.4633710000     1.8474300000    -0.5667650000
    6      S       0.0762710000     0.3846300000    -1.4678650000
    7      C       0.6718710000     2.6368300000     1.8792350000
    8      H       0.5572710000     2.2037300000     2.8918350000
    9      H      -0.0232290000     3.4991300000     1.8049350000
   10      H       1.7023710000     3.0429300000     1.8050350000
   11      C      -0.1713290000    -2.0039700000    -0.0031650000
   12      H      -0.5407290000    -2.0044700000     1.0117350000
   13      H      -1.0528290000    -2.5390700000    -0.3242650000
   14      H       0.6116710000    -2.6911700000     0.2815350000
   15      H       0.7081710000     2.7736300000    -1.1002650000
 ----------------------------------------------------------------

   10    -629.4217794506      4.95e-07  Convergence criterion met
 Total energy in the final basis set =     -629.4217794506
        RIMP2         total energy =      -630.6003507077 a.u.

                    Orbital Energies (a.u.)
 --------------------------------------------------------------

 Alpha MOs
 -- Occupied --
-91.9753 -11.2759 -11.2590 -11.2474 -11.2344 -11.2277 -11.2168  -8.9754
 -6.6563  -6.6558  -6.6552  -1.1612  -1.0523  -0.9993  -0.9390  -0.8854
 -0.7427  -0.7237  -0.6478  -0.5892  -0.5778  -0.5665  -0.5588  -0.5413
 -0.5112  -0.4857  -0.4665  -0.4391  -0.3377  -0.3036

          Ground-State Mulliken Net Atomic Charges

     Atom                 Charge (a.u.)
  ----------------------------------------
      1 C                     0.040460
      2 C                    -0.265949
      3 C                     0.035336
      4 H                     0.177243
      5 C                    -0.250903
      6 S                    -0.005802
      7 C                    -0.272483
      8 H                     0.101326
      9 H                     0.107046
     10 H                     0.107282
     11 C                    -0.362239
     12 H                     0.118774
     13 H                     0.134056
     14 H                     0.141928
     15 H                     0.193925
  ----------------------------------------
  Sum of atomic charges =     0.000000

                    Cartesian Multipole Moments
 -----------------------------------------------------------------
    Charge (ESU x 10^10)
                -0.0000
    Dipole Moment (Debye)
         X       0.1648      Y      -0.0424      Z       2.1403
       Tot       2.1471
    Quadrupole Moments (Debye-Ang)
        XX     -53.1474     XY       2.6451     YY     -42.7590
        XZ       0.1881     YZ      -1.0018     ZZ     -48.9017

 Total job time:  19.04s(wall), 775.27s(cpu)
        *  Thank you very much for using Q-Chem.  Have a nice day.  *
