 Q-Chem 5.4, Q-Chem, Inc., Pleasanton, CA (2021)
 Q-Chem 5.4.0 for Intel X86 EM64T Linux

User input:
--------------------------------------------------------------
$molecule
0 1
C	-0.061488	-0.574004	-0.000076
C	0.009012	0.267696	1.112924
C	0.125612	1.653696	0.820524
H	-0.023388	-0.119104	2.142824
C	0.146612	1.900996	-0.563676
S	0.019412	0.393196	-1.464776
C	0.214812	2.714596	1.882324
H	0.177212	2.268196	2.894924
H	-0.619488	3.443096	1.808024
H	1.159112	3.293496	1.808124
C	-0.061488	-2.024104	-0.000076
H	1.002112	-2.024604	0.187424
H	-0.224588	-2.559204	0.923824
H	0.082912	-2.711304	-0.820676
H	0.226812	2.855696	-1.097176
$end

$rem
JOBTYPE		SP
EXCHANGE	HF
CORRELATION	pRIMP2
BASIS		cc-pvtz
METHOD		rimp2
AUX_BASIS	rimp2-cc-pvtz
SOLVENT_METHOD	PCM
PURECART	11111
SYMMETRY	false
MEM_TOTAL	110000
SCF_CONVERGENCE = 6
THRESH=10
GUI = 2
$end

$solvent
dielectric 4.90
$end
--------------------------------------------------------------

             Standard Nuclear Orientation (Angstroms)
    I     Atom           X                Y                Z
 ----------------------------------------------------------------
    1      C      -0.0614880000    -0.5740040000    -0.0000760000
    2      C       0.0090120000     0.2676960000     1.1129240000
    3      C       0.1256120000     1.6536960000     0.8205240000
    4      H      -0.0233880000    -0.1191040000     2.1428240000
    5      C       0.1466120000     1.9009960000    -0.5636760000
    6      S       0.0194120000     0.3931960000    -1.4647760000
    7      C       0.2148120000     2.7145960000     1.8823240000
    8      H       0.1772120000     2.2681960000     2.8949240000
    9      H      -0.6194880000     3.4430960000     1.8080240000
   10      H       1.1591120000     3.2934960000     1.8081240000
   11      C      -0.0614880000    -2.0241040000    -0.0000760000
   12      H       1.0021120000    -2.0246040000     0.1874240000
   13      H      -0.2245880000    -2.5592040000     0.9238240000
   14      H       0.0829120000    -2.7113040000    -0.8206760000
   15      H       0.2268120000     2.8556960000    -1.0971760000
 ----------------------------------------------------------------

   10    -629.4259713404      6.81e-07  Convergence criterion met
 Total energy in the final basis set =     -629.4259713404
        RIMP2         total energy =      -630.6011159077 a.u.

                    Orbital Energies (a.u.)
 --------------------------------------------------------------

 Alpha MOs
 -- Occupied --
-91.9786 -11.2868 -11.2487 -11.2472 -11.2267 -11.2234 -11.2226  -8.9783
 -6.6593  -6.6588  -6.6581  -1.1601  -1.0547  -0.9977  -0.9405  -0.8839
 -0.7432  -0.7185  -0.6471  -0.5892  -0.5743  -0.5699  -0.5538  -0.5447
 -0.5074  -0.4940  -0.4666  -0.4559  -0.3379  -0.2894

          Ground-State Mulliken Net Atomic Charges

     Atom                 Charge (a.u.)
  ----------------------------------------
      1 C                     0.063793
      2 C                    -0.306064
      3 C                     0.048174
      4 H                     0.174444
      5 C                    -0.280833
      6 S                     0.000801
      7 C                    -0.274334
      8 H                     0.101411
      9 H                     0.107299
     10 H                     0.107437
     11 C                    -0.385275
     12 H                     0.146030
     13 H                     0.143704
     14 H                     0.160557
     15 H                     0.192856
  ----------------------------------------
  Sum of atomic charges =     0.000000

                    Cartesian Multipole Moments
 -----------------------------------------------------------------
    Charge (ESU x 10^10)
                -0.0000
    Dipole Moment (Debye)
         X       0.8177      Y      -0.7877      Z       1.5329
       Tot       1.9076
    Quadrupole Moments (Debye-Ang)
        XX     -54.4148     XY      -0.8205     YY     -41.7397
        XZ      -0.0454     YZ       0.2867     ZZ     -48.5971

 Total job time:  19.30s(wall), 746.03s(cpu)
        *  Thank you very much for using Q-Chem.  Have a nice day.  *
