 Q-Chem 5.4, Q-Chem, Inc., Pleasanton, CA (2021)
 Q-Chem 5.4.0 for Intel X86 EM64T Linux

User input:
--------------------------------------------------------------
$molecule
0 1
C	-0.336147	-0.486609	-0.003463
C	0.083453	0.246391	1.109537
C	0.774953	1.453391	0.817137
H	-0.109447	-0.090409	2.139437
C	0.898453	1.668591	-0.567063
S	0.145953	0.355791	-1.468163
C	1.304153	2.377091	1.878937
H	1.081353	1.988491	2.891537
H	0.855853	3.389991	1.804637
H	2.404553	2.502691	1.804737
C	-0.336147	-1.936709	-0.003463
H	-0.523647	-1.937209	1.060137
H	-1.260047	-2.471809	-0.166563
H	0.484453	-2.623909	0.140937
H	1.374553	2.499891	-1.100563
$end

$rem
JOBTYPE		SP
EXCHANGE	HF
CORRELATION	pRIMP2
BASIS		cc-pvtz
METHOD		rimp2
AUX_BASIS	rimp2-cc-pvtz
SOLVENT_METHOD	PCM
PURECART	11111
SYMMETRY	false
MEM_TOTAL	110000
SCF_CONVERGENCE = 6
THRESH=10
GUI = 2
$end

$solvent
dielectric 4.90
$end
--------------------------------------------------------------

             Standard Nuclear Orientation (Angstroms)
    I     Atom           X                Y                Z
 ----------------------------------------------------------------
    1      C      -0.3361470000    -0.4866090000    -0.0034630000
    2      C       0.0834530000     0.2463910000     1.1095370000
    3      C       0.7749530000     1.4533910000     0.8171370000
    4      H      -0.1094470000    -0.0904090000     2.1394370000
    5      C       0.8984530000     1.6685910000    -0.5670630000
    6      S       0.1459530000     0.3557910000    -1.4681630000
    7      C       1.3041530000     2.3770910000     1.8789370000
    8      H       1.0813530000     1.9884910000     2.8915370000
    9      H       0.8558530000     3.3899910000     1.8046370000
   10      H       2.4045530000     2.5026910000     1.8047370000
   11      C      -0.3361470000    -1.9367090000    -0.0034630000
   12      H      -0.5236470000    -1.9372090000     1.0601370000
   13      H      -1.2600470000    -2.4718090000    -0.1665630000
   14      H       0.4844530000    -2.6239090000     0.1409370000
   15      H       1.3745530000     2.4998910000    -1.1005630000
 ----------------------------------------------------------------

   10    -629.4079298685      5.12e-07  Convergence criterion met
 Total energy in the final basis set =     -629.4079298685
        RIMP2         total energy =      -630.5896492089 a.u.

                    Orbital Energies (a.u.)
 --------------------------------------------------------------

 Alpha MOs
 -- Occupied --
-91.9741 -11.2689 -11.2644 -11.2477 -11.2391 -11.2281 -11.2141  -8.9745
 -6.6554  -6.6547  -6.6543  -1.1633  -1.0522  -0.9994  -0.9376  -0.8853
 -0.7434  -0.7260  -0.6463  -0.5879  -0.5800  -0.5684  -0.5566  -0.5410
 -0.5140  -0.4790  -0.4660  -0.4346  -0.3371  -0.3057

          Ground-State Mulliken Net Atomic Charges

     Atom                 Charge (a.u.)
  ----------------------------------------
      1 C                     0.002582
      2 C                    -0.244667
      3 C                     0.033163
      4 H                     0.176582
      5 C                    -0.237560
      6 S                    -0.003044
      7 C                    -0.269921
      8 H                     0.101463
      9 H                     0.106915
     10 H                     0.106762
     11 C                    -0.352193
     12 H                     0.113606
     13 H                     0.123403
     14 H                     0.148493
     15 H                     0.194415
  ----------------------------------------
  Sum of atomic charges =     0.000000

                    Cartesian Multipole Moments
 -----------------------------------------------------------------
    Charge (ESU x 10^10)
                -0.0000
    Dipole Moment (Debye)
         X       0.8060      Y       0.1492      Z       2.2187
       Tot       2.3653
    Quadrupole Moments (Debye-Ang)
        XX     -51.6207     XY       3.9982     YY     -44.6941
        XZ      -0.0100     YZ      -1.0569     ZZ     -48.8151

 Total job time:  16.04s(wall), 737.28s(cpu)
        *  Thank you very much for using Q-Chem.  Have a nice day.  *
