 Q-Chem 5.4, Q-Chem, Inc., Pleasanton, CA (2021)
 Q-Chem 5.4.0 for Intel X86 EM64T Linux

User input:
--------------------------------------------------------------
$molecule
0 1
C	0.006362	-0.576386	0.004064
C	0.003262	0.268214	1.117064
C	-0.001438	1.659214	0.824664
H	0.004662	-0.119886	2.146964
C	-0.002038	1.907314	-0.559536
S	0.002662	0.394214	-1.460636
C	-0.005038	2.723814	1.886464
H	-0.003538	2.275814	2.899064
H	-0.899538	3.376814	1.812164
H	0.885262	3.382714	1.812264
C	0.006362	-2.026486	0.004064
H	-0.928938	-2.026986	-0.535936
H	0.475662	-2.561586	-0.808236
H	-0.409938	-2.713686	0.725764
H	-0.005338	2.865414	-1.093036
$end

$rem
JOBTYPE		SP
EXCHANGE	HF
CORRELATION	pRIMP2
BASIS		cc-pvtz
METHOD		rimp2
AUX_BASIS	rimp2-cc-pvtz
SOLVENT_METHOD	PCM
PURECART	11111
SYMMETRY	false
MEM_TOTAL	110000
SCF_CONVERGENCE = 6
THRESH=10
GUI = 2
$end

$solvent
dielectric 4.90
$end
--------------------------------------------------------------

             Standard Nuclear Orientation (Angstroms)
    I     Atom           X                Y                Z
 ----------------------------------------------------------------
    1      C       0.0063620000    -0.5763860000     0.0040640000
    2      C       0.0032620000     0.2682140000     1.1170640000
    3      C      -0.0014380000     1.6592140000     0.8246640000
    4      H       0.0046620000    -0.1198860000     2.1469640000
    5      C      -0.0020380000     1.9073140000    -0.5595360000
    6      S       0.0026620000     0.3942140000    -1.4606360000
    7      C      -0.0050380000     2.7238140000     1.8864640000
    8      H      -0.0035380000     2.2758140000     2.8990640000
    9      H      -0.8995380000     3.3768140000     1.8121640000
   10      H       0.8852620000     3.3827140000     1.8122640000
   11      C       0.0063620000    -2.0264860000     0.0040640000
   12      H      -0.9289380000    -2.0269860000    -0.5359360000
   13      H       0.4756620000    -2.5615860000    -0.8082360000
   14      H      -0.4099380000    -2.7136860000     0.7257640000
   15      H      -0.0053380000     2.8654140000    -1.0930360000
 ----------------------------------------------------------------

   10    -629.4247348882      6.59e-07  Convergence criterion met
 Total energy in the final basis set =     -629.4247348882
        RIMP2         total energy =      -630.5998583646 a.u.

                    Orbital Energies (a.u.)
 --------------------------------------------------------------

 Alpha MOs
 -- Occupied --
-91.9793 -11.2831 -11.2520 -11.2469 -11.2265 -11.2239 -11.2214  -8.9791
 -6.6601  -6.6596  -6.6590  -1.1601  -1.0544  -0.9961  -0.9437  -0.8831
 -0.7452  -0.7177  -0.6481  -0.5884  -0.5753  -0.5658  -0.5527  -0.5463
 -0.5075  -0.4933  -0.4659  -0.4545  -0.3389  -0.2927

          Ground-State Mulliken Net Atomic Charges

     Atom                 Charge (a.u.)
  ----------------------------------------
      1 C                     0.052506
      2 C                    -0.289740
      3 C                     0.043272
      4 H                     0.179530
      5 C                    -0.269533
      6 S                    -0.004047
      7 C                    -0.273569
      8 H                     0.101567
      9 H                     0.107238
     10 H                     0.107278
     11 C                    -0.377537
     12 H                     0.130777
     13 H                     0.136685
     14 H                     0.160934
     15 H                     0.194639
  ----------------------------------------
  Sum of atomic charges =     0.000000

                    Cartesian Multipole Moments
 -----------------------------------------------------------------
    Charge (ESU x 10^10)
                -0.0000
    Dipole Moment (Debye)
         X      -0.6172      Y      -0.5313      Z       1.0776
       Tot       1.3507
    Quadrupole Moments (Debye-Ang)
        XX     -54.2570     XY       1.3457     YY     -41.6984
        XZ      -0.2955     YZ       1.0009     ZZ     -48.6635

 Total job time:  19.01s(wall), 775.66s(cpu)
        *  Thank you very much for using Q-Chem.  Have a nice day.  *
