 Q-Chem 5.4, Q-Chem, Inc., Pleasanton, CA (2021)
 Q-Chem 5.4.0 for Intel X86 EM64T Linux

User input:
--------------------------------------------------------------
$molecule
0 1
C	-0.227987	-0.536244	0.005666
C	0.058013	0.258456	1.118666
C	0.529313	1.567156	0.826266
H	-0.073487	-0.106644	2.148566
C	0.613613	1.800556	-0.557934
S	0.100513	0.377056	-1.459034
C	0.890113	2.568756	1.888066
H	0.738213	2.147356	2.900666
H	0.272813	3.488456	1.813766
H	1.952013	2.883556	1.813866
C	-0.227987	-1.986344	0.005666
H	-0.767987	-1.986844	-0.929634
H	0.584613	-2.521444	-0.463234
H	-0.949387	-2.673544	0.422566
H	0.938113	2.701956	-1.091434
$end

$rem
JOBTYPE		SP
EXCHANGE	HF
CORRELATION	pRIMP2
BASIS		cc-pvtz
METHOD		rimp2
AUX_BASIS	rimp2-cc-pvtz
SOLVENT_METHOD	PCM
PURECART	11111
SYMMETRY	false
MEM_TOTAL	110000
SCF_CONVERGENCE = 6
THRESH=10
GUI = 2
$end

$solvent
dielectric 4.90
$end
--------------------------------------------------------------

             Standard Nuclear Orientation (Angstroms)
    I     Atom           X                Y                Z
 ----------------------------------------------------------------
    1      C      -0.2279870000    -0.5362440000     0.0056660000
    2      C       0.0580130000     0.2584560000     1.1186660000
    3      C       0.5293130000     1.5671560000     0.8262660000
    4      H      -0.0734870000    -0.1066440000     2.1485660000
    5      C       0.6136130000     1.8005560000    -0.5579340000
    6      S       0.1005130000     0.3770560000    -1.4590340000
    7      C       0.8901130000     2.5687560000     1.8880660000
    8      H       0.7382130000     2.1473560000     2.9006660000
    9      H       0.2728130000     3.4884560000     1.8137660000
   10      H       1.9520130000     2.8835560000     1.8138660000
   11      C      -0.2279870000    -1.9863440000     0.0056660000
   12      H      -0.7679870000    -1.9868440000    -0.9296340000
   13      H       0.5846130000    -2.5214440000    -0.4632340000
   14      H      -0.9493870000    -2.6735440000     0.4225660000
   15      H       0.9381130000     2.7019560000    -1.0914340000
 ----------------------------------------------------------------

   10    -629.4144911560      5.24e-07  Convergence criterion met
 Total energy in the final basis set =     -629.4144911560
        RIMP2         total energy =      -630.5932340041 a.u.

                    Orbital Energies (a.u.)
 --------------------------------------------------------------

 Alpha MOs
 -- Occupied --
-91.9805 -11.2737 -11.2594 -11.2473 -11.2292 -11.2270 -11.2165  -8.9803
 -6.6613  -6.6608  -6.6602  -1.1613  -1.0533  -0.9952  -0.9450  -0.8828
 -0.7474  -0.7189  -0.6462  -0.5905  -0.5748  -0.5666  -0.5532  -0.5459
 -0.5100  -0.4846  -0.4642  -0.4474  -0.3381  -0.3006

          Ground-State Mulliken Net Atomic Charges

     Atom                 Charge (a.u.)
  ----------------------------------------
      1 C                     0.013868
      2 C                    -0.246998
      3 C                     0.033298
      4 H                     0.179003
      5 C                    -0.250051
      6 S                    -0.001241
      7 C                    -0.272419
      8 H                     0.101915
      9 H                     0.106890
     10 H                     0.106650
     11 C                    -0.365101
     12 H                     0.113754
     13 H                     0.130603
     14 H                     0.154539
     15 H                     0.195292
  ----------------------------------------
  Sum of atomic charges =     0.000000

                    Cartesian Multipole Moments
 -----------------------------------------------------------------
    Charge (ESU x 10^10)
                -0.0000
    Dipole Moment (Debye)
         X       0.2254      Y      -0.0228      Z       0.9691
       Tot       0.9953
    Quadrupole Moments (Debye-Ang)
        XX     -52.7896     XY       3.6843     YY     -43.1529
        XZ      -0.1194     YZ       1.2501     ZZ     -48.7384

 Total job time:  16.36s(wall), 777.92s(cpu)
        *  Thank you very much for using Q-Chem.  Have a nice day.  *
