 Q-Chem 5.4, Q-Chem, Inc., Pleasanton, CA (2021)
 Q-Chem 5.4.0 for Intel X86 EM64T Linux

User input:
--------------------------------------------------------------
$molecule
0 1
C	-0.232019	-0.536244	-0.003205
C	0.053981	0.258456	1.109795
C	0.525281	1.567156	0.817395
H	-0.077519	-0.106644	2.139695
C	0.609581	1.800556	-0.566805
S	0.096481	0.377056	-1.467905
C	0.886081	2.568756	1.879195
H	0.734181	2.147356	2.891795
H	0.268781	3.488456	1.804895
H	1.947981	2.883556	1.804995
C	-0.232019	-1.986344	-0.003205
H	0.307981	-1.986844	0.932095
H	-1.044619	-2.521444	0.465695
H	0.489381	-2.673544	-0.420105
H	0.934081	2.701956	-1.100305
$end

$rem
JOBTYPE		SP
EXCHANGE	HF
CORRELATION	pRIMP2
BASIS		cc-pvtz
METHOD		rimp2
AUX_BASIS	rimp2-cc-pvtz
SOLVENT_METHOD	PCM
PURECART	11111
SYMMETRY	false
MEM_TOTAL	110000
SCF_CONVERGENCE = 6
THRESH=10
GUI = 2
$end

$solvent
dielectric 4.90
$end
--------------------------------------------------------------

             Standard Nuclear Orientation (Angstroms)
    I     Atom           X                Y                Z
 ----------------------------------------------------------------
    1      C      -0.2320190000    -0.5362440000    -0.0032050000
    2      C       0.0539810000     0.2584560000     1.1097950000
    3      C       0.5252810000     1.5671560000     0.8173950000
    4      H      -0.0775190000    -0.1066440000     2.1396950000
    5      C       0.6095810000     1.8005560000    -0.5668050000
    6      S       0.0964810000     0.3770560000    -1.4679050000
    7      C       0.8860810000     2.5687560000     1.8791950000
    8      H       0.7341810000     2.1473560000     2.8917950000
    9      H       0.2687810000     3.4884560000     1.8048950000
   10      H       1.9479810000     2.8835560000     1.8049950000
   11      C      -0.2320190000    -1.9863440000    -0.0032050000
   12      H       0.3079810000    -1.9868440000     0.9320950000
   13      H      -1.0446190000    -2.5214440000     0.4656950000
   14      H       0.4893810000    -2.6735440000    -0.4201050000
   15      H       0.9340810000     2.7019560000    -1.1003050000
 ----------------------------------------------------------------

   10    -629.4152896056      5.13e-07  Convergence criterion met
 Total energy in the final basis set =     -629.4152896056
        RIMP2         total energy =      -630.5947130265 a.u.

                    Orbital Energies (a.u.)
 --------------------------------------------------------------

 Alpha MOs
 -- Occupied --
-91.9771 -11.2776 -11.2566 -11.2476 -11.2315 -11.2275 -11.2163  -8.9770
 -6.6579  -6.6573  -6.6568  -1.1619  -1.0529  -0.9992  -0.9379  -0.8848
 -0.7425  -0.7231  -0.6466  -0.5901  -0.5764  -0.5699  -0.5571  -0.5418
 -0.5111  -0.4809  -0.4682  -0.4448  -0.3361  -0.2993

          Ground-State Mulliken Net Atomic Charges

     Atom                 Charge (a.u.)
  ----------------------------------------
      1 C                     0.038716
      2 C                    -0.261270
      3 C                     0.031308
      4 H                     0.174968
      5 C                    -0.255568
      6 S                    -0.001816
      7 C                    -0.271971
      8 H                     0.101342
      9 H                     0.107240
     10 H                     0.106851
     11 C                    -0.382296
     12 H                     0.134770
     13 H                     0.130396
     14 H                     0.154434
     15 H                     0.192896
  ----------------------------------------
  Sum of atomic charges =     0.000000

                    Cartesian Multipole Moments
 -----------------------------------------------------------------
    Charge (ESU x 10^10)
                -0.0000
    Dipole Moment (Debye)
         X       0.8216      Y      -0.2041      Z       2.0808
       Tot       2.2464
    Quadrupole Moments (Debye-Ang)
        XX     -53.0942     XY       1.9442     YY     -43.3480
        XZ      -0.2739     YZ      -0.8121     ZZ     -48.7481

 Total job time:  16.42s(wall), 768.82s(cpu)
        *  Thank you very much for using Q-Chem.  Have a nice day.  *
