 Q-Chem 5.4, Q-Chem, Inc., Pleasanton, CA (2021)
 Q-Chem 5.4.0 for Intel X86 EM64T Linux

User input:
--------------------------------------------------------------
$molecule
0 1
C	-0.228787	-0.536244	0.005949
C	0.057213	0.258456	1.118949
C	0.528513	1.567156	0.826549
H	-0.074287	-0.106644	2.148849
C	0.612813	1.800556	-0.557651
S	0.099713	0.377056	-1.458751
C	0.889313	2.568756	1.888349
H	0.737413	2.147356	2.900949
H	0.272013	3.488456	1.814049
H	1.951213	2.883556	1.814149
C	-0.228787	-1.986344	0.005949
H	-0.598187	-1.986844	-1.008951
H	0.652813	-2.521444	-0.314751
H	-1.011587	-2.673544	0.291249
H	0.937313	2.701956	-1.091151
$end

$rem
JOBTYPE		SP
EXCHANGE	HF
CORRELATION	pRIMP2
BASIS		cc-pvtz
METHOD		rimp2
AUX_BASIS	rimp2-cc-pvtz
SOLVENT_METHOD	PCM
PURECART	11111
SYMMETRY	false
MEM_TOTAL	110000
SCF_CONVERGENCE = 6
THRESH=10
GUI = 2
$end

$solvent
dielectric 4.90
$end
--------------------------------------------------------------

             Standard Nuclear Orientation (Angstroms)
    I     Atom           X                Y                Z
 ----------------------------------------------------------------
    1      C      -0.2287870000    -0.5362440000     0.0059490000
    2      C       0.0572130000     0.2584560000     1.1189490000
    3      C       0.5285130000     1.5671560000     0.8265490000
    4      H      -0.0742870000    -0.1066440000     2.1488490000
    5      C       0.6128130000     1.8005560000    -0.5576510000
    6      S       0.0997130000     0.3770560000    -1.4587510000
    7      C       0.8893130000     2.5687560000     1.8883490000
    8      H       0.7374130000     2.1473560000     2.9009490000
    9      H       0.2720130000     3.4884560000     1.8140490000
   10      H       1.9512130000     2.8835560000     1.8141490000
   11      C      -0.2287870000    -1.9863440000     0.0059490000
   12      H      -0.5981870000    -1.9868440000    -1.0089510000
   13      H       0.6528130000    -2.5214440000    -0.3147510000
   14      H      -1.0115870000    -2.6735440000     0.2912490000
   15      H       0.9373130000     2.7019560000    -1.0911510000
 ----------------------------------------------------------------

   10    -629.4145680491      5.19e-07  Convergence criterion met
 Total energy in the final basis set =     -629.4145680491
        RIMP2         total energy =      -630.5935777636 a.u.

                    Orbital Energies (a.u.)
 --------------------------------------------------------------

 Alpha MOs
 -- Occupied --
-91.9808 -11.2726 -11.2602 -11.2474 -11.2299 -11.2271 -11.2161  -8.9806
 -6.6615  -6.6610  -6.6604  -1.1615  -1.0533  -0.9950  -0.9453  -0.8827
 -0.7479  -0.7189  -0.6463  -0.5908  -0.5751  -0.5663  -0.5533  -0.5461
 -0.5101  -0.4834  -0.4646  -0.4456  -0.3379  -0.3030

          Ground-State Mulliken Net Atomic Charges

     Atom                 Charge (a.u.)
  ----------------------------------------
      1 C                     0.019643
      2 C                    -0.250470
      3 C                     0.036408
      4 H                     0.178710
      5 C                    -0.251577
      6 S                    -0.000579
      7 C                    -0.272196
      8 H                     0.102028
      9 H                     0.106818
     10 H                     0.106601
     11 C                    -0.362410
     12 H                     0.111198
     13 H                     0.128570
     14 H                     0.151741
     15 H                     0.195515
  ----------------------------------------
  Sum of atomic charges =     0.000000

                    Cartesian Multipole Moments
 -----------------------------------------------------------------
    Charge (ESU x 10^10)
                -0.0000
    Dipole Moment (Debye)
         X       0.3471      Y       0.0486      Z       0.9367
       Tot       1.0002
    Quadrupole Moments (Debye-Ang)
        XX     -52.7379     XY       3.4608     YY     -43.2145
        XZ      -0.0285     YZ       1.3450     ZZ     -48.7752

 Total job time:  18.92s(wall), 744.77s(cpu)
        *  Thank you very much for using Q-Chem.  Have a nice day.  *
