 Q-Chem 5.4, Q-Chem, Inc., Pleasanton, CA (2021)
 Q-Chem 5.4.0 for Intel X86 EM64T Linux

User input:
--------------------------------------------------------------
$molecule
0 1
C	-0.233481	-0.536244	0.004642
C	0.052519	0.258456	1.117642
C	0.523819	1.567156	0.825242
H	-0.078981	-0.106644	2.147542
C	0.608119	1.800556	-0.558958
S	0.095019	0.377056	-1.460058
C	0.884619	2.568756	1.887042
H	0.732719	2.147356	2.899642
H	0.267319	3.488456	1.812742
H	1.946519	2.883556	1.812842
C	-0.233481	-1.986344	0.004642
H	0.460719	-1.986844	-0.822658
H	0.485019	-2.521444	0.607842
H	-0.871981	-2.673544	-0.530658
H	0.932619	2.701956	-1.092458
$end

$rem
JOBTYPE		SP
EXCHANGE	HF
CORRELATION	pRIMP2
BASIS		cc-pvtz
METHOD		rimp2
AUX_BASIS	rimp2-cc-pvtz
SOLVENT_METHOD	PCM
PURECART	11111
SYMMETRY	false
MEM_TOTAL	110000
SCF_CONVERGENCE = 6
THRESH=10
GUI = 2
$end

$solvent
dielectric 4.90
$end
--------------------------------------------------------------

             Standard Nuclear Orientation (Angstroms)
    I     Atom           X                Y                Z
 ----------------------------------------------------------------
    1      C      -0.2334810000    -0.5362440000     0.0046420000
    2      C       0.0525190000     0.2584560000     1.1176420000
    3      C       0.5238190000     1.5671560000     0.8252420000
    4      H      -0.0789810000    -0.1066440000     2.1475420000
    5      C       0.6081190000     1.8005560000    -0.5589580000
    6      S       0.0950190000     0.3770560000    -1.4600580000
    7      C       0.8846190000     2.5687560000     1.8870420000
    8      H       0.7327190000     2.1473560000     2.8996420000
    9      H       0.2673190000     3.4884560000     1.8127420000
   10      H       1.9465190000     2.8835560000     1.8128420000
   11      C      -0.2334810000    -1.9863440000     0.0046420000
   12      H       0.4607190000    -1.9868440000    -0.8226580000
   13      H       0.4850190000    -2.5214440000     0.6078420000
   14      H      -0.8719810000    -2.6735440000    -0.5306580000
   15      H       0.9326190000     2.7019560000    -1.0924580000
 ----------------------------------------------------------------

   10    -629.4167525610      6.06e-07  Convergence criterion met
 Total energy in the final basis set =     -629.4167525610
        RIMP2         total energy =      -630.5945176567 a.u.

                    Orbital Energies (a.u.)
 --------------------------------------------------------------

 Alpha MOs
 -- Occupied --
-91.9773 -11.2776 -11.2571 -11.2471 -11.2295 -11.2271 -11.2180  -8.9775
 -6.6585  -6.6579  -6.6573  -1.1620  -1.0542  -0.9952  -0.9440  -0.8824
 -0.7472  -0.7190  -0.6462  -0.5902  -0.5771  -0.5657  -0.5515  -0.5467
 -0.5086  -0.4897  -0.4639  -0.4492  -0.3388  -0.2975

          Ground-State Mulliken Net Atomic Charges

     Atom                 Charge (a.u.)
  ----------------------------------------
      1 C                     0.047382
      2 C                    -0.293693
      3 C                     0.052715
      4 H                     0.179353
      5 C                    -0.259702
      6 S                    -0.003935
      7 C                    -0.271287
      8 H                     0.101727
      9 H                     0.107489
     10 H                     0.106839
     11 C                    -0.373559
     12 H                     0.127922
     13 H                     0.139081
     14 H                     0.145365
     15 H                     0.194304
  ----------------------------------------
  Sum of atomic charges =     0.000000

                    Cartesian Multipole Moments
 -----------------------------------------------------------------
    Charge (ESU x 10^10)
                -0.0000
    Dipole Moment (Debye)
         X       0.9444      Y      -0.2293      Z       1.0166
       Tot       1.4064
    Quadrupole Moments (Debye-Ang)
        XX     -53.2594     XY       1.9569     YY     -43.1639
        XZ       0.4893     YZ       1.4400     ZZ     -48.6706

 Total job time:  16.18s(wall), 763.94s(cpu)
        *  Thank you very much for using Q-Chem.  Have a nice day.  *
