 Q-Chem 5.4, Q-Chem, Inc., Pleasanton, CA (2021)
 Q-Chem 5.4.0 for Intel X86 EM64T Linux

User input:
--------------------------------------------------------------
$molecule
0 1
C	-0.000358	-0.576386	-0.002787
C	-0.003458	0.268214	1.110213
C	-0.008158	1.659214	0.817813
H	-0.002058	-0.119886	2.140113
C	-0.008758	1.907314	-0.566387
S	-0.004058	0.394214	-1.467487
C	-0.011758	2.723814	1.879613
H	-0.010258	2.275814	2.892213
H	-0.906258	3.376814	1.805313
H	0.878542	3.382714	1.805413
C	-0.000358	-2.026486	-0.002787
H	0.693842	-2.026986	0.824513
H	-0.719158	-2.561586	0.600113
H	0.637742	-2.713686	-0.538587
H	-0.012058	2.865414	-1.099887
$end

$rem
JOBTYPE		SP
EXCHANGE	HF
CORRELATION	pRIMP2
BASIS		cc-pvtz
METHOD		rimp2
AUX_BASIS	rimp2-cc-pvtz
SOLVENT_METHOD	PCM
PURECART	11111
SYMMETRY	false
MEM_TOTAL	110000
SCF_CONVERGENCE = 6
THRESH=10
GUI = 2
$end

$solvent
dielectric 4.90
$end
--------------------------------------------------------------

             Standard Nuclear Orientation (Angstroms)
    I     Atom           X                Y                Z
 ----------------------------------------------------------------
    1      C      -0.0003580000    -0.5763860000    -0.0027870000
    2      C      -0.0034580000     0.2682140000     1.1102130000
    3      C      -0.0081580000     1.6592140000     0.8178130000
    4      H      -0.0020580000    -0.1198860000     2.1401130000
    5      C      -0.0087580000     1.9073140000    -0.5663870000
    6      S      -0.0040580000     0.3942140000    -1.4674870000
    7      C      -0.0117580000     2.7238140000     1.8796130000
    8      H      -0.0102580000     2.2758140000     2.8922130000
    9      H      -0.9062580000     3.3768140000     1.8053130000
   10      H       0.8785420000     3.3827140000     1.8054130000
   11      C      -0.0003580000    -2.0264860000    -0.0027870000
   12      H       0.6938420000    -2.0269860000     0.8245130000
   13      H      -0.7191580000    -2.5615860000     0.6001130000
   14      H       0.6377420000    -2.7136860000    -0.5385870000
   15      H      -0.0120580000     2.8654140000    -1.0998870000
 ----------------------------------------------------------------

   10    -629.4251973103      5.53e-07  Convergence criterion met
 Total energy in the final basis set =     -629.4251973103
        RIMP2         total energy =      -630.6022582667 a.u.

                    Orbital Energies (a.u.)
 --------------------------------------------------------------

 Alpha MOs
 -- Occupied --
-91.9770 -11.2818 -11.2532 -11.2475 -11.2288 -11.2272 -11.2192  -8.9769
 -6.6578  -6.6573  -6.6567  -1.1603  -1.0532  -0.9990  -0.9391  -0.8849
 -0.7422  -0.7211  -0.6474  -0.5909  -0.5752  -0.5680  -0.5584  -0.5423
 -0.5092  -0.4887  -0.4668  -0.4467  -0.3370  -0.2973

          Ground-State Mulliken Net Atomic Charges

     Atom                 Charge (a.u.)
  ----------------------------------------
      1 C                     0.062377
      2 C                    -0.274296
      3 C                     0.033969
      4 H                     0.176116
      5 C                    -0.264448
      6 S                    -0.004997
      7 C                    -0.274610
      8 H                     0.101299
      9 H                     0.107418
     10 H                     0.107176
     11 C                    -0.384094
     12 H                     0.131825
     13 H                     0.133819
     14 H                     0.155574
     15 H                     0.192870
  ----------------------------------------
  Sum of atomic charges =     0.000000

                    Cartesian Multipole Moments
 -----------------------------------------------------------------
    Charge (ESU x 10^10)
                -0.0000
    Dipole Moment (Debye)
         X       0.4354      Y      -0.3945      Z       1.9969
       Tot       2.0815
    Quadrupole Moments (Debye-Ang)
        XX     -53.9646     XY      -1.1373     YY     -42.0100
        XZ      -0.3137     YZ      -0.6275     ZZ     -48.7968

 Total job time:  16.76s(wall), 763.04s(cpu)
        *  Thank you very much for using Q-Chem.  Have a nice day.  *
