 Q-Chem 5.4, Q-Chem, Inc., Pleasanton, CA (2021)
 Q-Chem 5.4.0 for Intel X86 EM64T Linux

User input:
--------------------------------------------------------------
$molecule
0 1
C	-0.000435	-0.576386	0.005194
C	-0.003535	0.268214	1.118194
C	-0.008235	1.659214	0.825794
H	-0.002135	-0.119886	2.148094
C	-0.008835	1.907314	-0.558406
S	-0.004135	0.394214	-1.459506
C	-0.011835	2.723814	1.887594
H	-0.010335	2.275814	2.900194
H	-0.906335	3.376814	1.813294
H	0.878465	3.382714	1.813394
C	-0.000435	-2.026486	0.005194
H	0.539565	-2.026986	-0.930106
H	0.811865	-2.561586	0.474494
H	-0.722135	-2.713686	-0.411106
H	-0.012135	2.865414	-1.091906
$end

$rem
JOBTYPE		SP
EXCHANGE	HF
CORRELATION	pRIMP2
BASIS		cc-pvtz
METHOD		rimp2
AUX_BASIS	rimp2-cc-pvtz
SOLVENT_METHOD	PCM
PURECART	11111
SYMMETRY	false
MEM_TOTAL	110000
SCF_CONVERGENCE = 6
THRESH=10
GUI = 2
$end

$solvent
dielectric 4.90
$end
--------------------------------------------------------------

             Standard Nuclear Orientation (Angstroms)
    I     Atom           X                Y                Z
 ----------------------------------------------------------------
    1      C      -0.0004350000    -0.5763860000     0.0051940000
    2      C      -0.0035350000     0.2682140000     1.1181940000
    3      C      -0.0082350000     1.6592140000     0.8257940000
    4      H      -0.0021350000    -0.1198860000     2.1480940000
    5      C      -0.0088350000     1.9073140000    -0.5584060000
    6      S      -0.0041350000     0.3942140000    -1.4595060000
    7      C      -0.0118350000     2.7238140000     1.8875940000
    8      H      -0.0103350000     2.2758140000     2.9001940000
    9      H      -0.9063350000     3.3768140000     1.8132940000
   10      H       0.8784650000     3.3827140000     1.8133940000
   11      C      -0.0004350000    -2.0264860000     0.0051940000
   12      H       0.5395650000    -2.0269860000    -0.9301060000
   13      H       0.8118650000    -2.5615860000     0.4744940000
   14      H      -0.7221350000    -2.7136860000    -0.4111060000
   15      H      -0.0121350000     2.8654140000    -1.0919060000
 ----------------------------------------------------------------

   10    -629.4231053752      5.64e-07  Convergence criterion met
 Total energy in the final basis set =     -629.4231053752
        RIMP2         total energy =      -630.5999335724 a.u.

                    Orbital Energies (a.u.)
 --------------------------------------------------------------

 Alpha MOs
 -- Occupied --
-91.9799 -11.2777 -11.2566 -11.2471 -11.2280 -11.2269 -11.2180  -8.9798
 -6.6607  -6.6602  -6.6596  -1.1605  -1.0536  -0.9956  -0.9450  -0.8830
 -0.7470  -0.7182  -0.6469  -0.5907  -0.5755  -0.5668  -0.5522  -0.5463
 -0.5084  -0.4883  -0.4650  -0.4483  -0.3384  -0.3007

          Ground-State Mulliken Net Atomic Charges

     Atom                 Charge (a.u.)
  ----------------------------------------
      1 C                     0.046984
      2 C                    -0.263637
      3 C                     0.036452
      4 H                     0.180102
      5 C                    -0.258824
      6 S                    -0.002721
      7 C                    -0.273295
      8 H                     0.101854
      9 H                     0.107150
     10 H                     0.106964
     11 C                    -0.368915
     12 H                     0.115664
     13 H                     0.136503
     14 H                     0.140584
     15 H                     0.195134
  ----------------------------------------
  Sum of atomic charges =     0.000000

                    Cartesian Multipole Moments
 -----------------------------------------------------------------
    Charge (ESU x 10^10)
                -0.0000
    Dipole Moment (Debye)
         X       0.3386      Y      -0.1279      Z       0.9291
       Tot       0.9971
    Quadrupole Moments (Debye-Ang)
        XX     -53.8795     XY      -0.7186     YY     -42.0041
        XZ       0.2918     YZ       1.5325     ZZ     -48.7839

 Total job time:  15.90s(wall), 758.69s(cpu)
        *  Thank you very much for using Q-Chem.  Have a nice day.  *
