 Q-Chem 5.4, Q-Chem, Inc., Pleasanton, CA (2021)
 Q-Chem 5.4.0 for Intel X86 EM64T Linux

User input:
--------------------------------------------------------------
$molecule
0 1
C	-0.058100	-0.574004	0.005925
C	0.012400	0.267696	1.118925
C	0.129000	1.653696	0.826525
H	-0.020000	-0.119104	2.148825
C	0.150000	1.900996	-0.557675
S	0.022800	0.393196	-1.458775
C	0.218200	2.714596	1.888325
H	0.180600	2.268196	2.900925
H	-0.616100	3.443096	1.814025
H	1.162500	3.293496	1.814125
C	-0.058100	-2.024104	0.005925
H	0.129400	-2.024604	-1.057675
H	0.865800	-2.559204	0.169025
H	-0.878700	-2.711304	-0.138475
H	0.230200	2.855696	-1.091175
$end

$rem
JOBTYPE		SP
EXCHANGE	HF
CORRELATION	pRIMP2
BASIS		cc-pvtz
METHOD		rimp2
AUX_BASIS	rimp2-cc-pvtz
SOLVENT_METHOD	PCM
PURECART	11111
SYMMETRY	false
MEM_TOTAL	110000
SCF_CONVERGENCE = 6
THRESH=10
GUI = 2
$end

$solvent
dielectric 4.90
$end
--------------------------------------------------------------

             Standard Nuclear Orientation (Angstroms)
    I     Atom           X                Y                Z
 ----------------------------------------------------------------
    1      C      -0.0581000000    -0.5740040000     0.0059250000
    2      C       0.0124000000     0.2676960000     1.1189250000
    3      C       0.1290000000     1.6536960000     0.8265250000
    4      H      -0.0200000000    -0.1191040000     2.1488250000
    5      C       0.1500000000     1.9009960000    -0.5576750000
    6      S       0.0228000000     0.3931960000    -1.4587750000
    7      C       0.2182000000     2.7145960000     1.8883250000
    8      H       0.1806000000     2.2681960000     2.9009250000
    9      H      -0.6161000000     3.4430960000     1.8140250000
   10      H       1.1625000000     3.2934960000     1.8141250000
   11      C      -0.0581000000    -2.0241040000     0.0059250000
   12      H       0.1294000000    -2.0246040000    -1.0576750000
   13      H       0.8658000000    -2.5592040000     0.1690250000
   14      H      -0.8787000000    -2.7113040000    -0.1384750000
   15      H       0.2302000000     2.8556960000    -1.0911750000
 ----------------------------------------------------------------

   10    -629.4217320157      5.40e-07  Convergence criterion met
 Total energy in the final basis set =     -629.4217320157
        RIMP2         total energy =      -630.5992626732 a.u.

                    Orbital Energies (a.u.)
 --------------------------------------------------------------

 Alpha MOs
 -- Occupied --
-91.9809 -11.2753 -11.2582 -11.2472 -11.2288 -11.2270 -11.2169  -8.9807
 -6.6616  -6.6611  -6.6604  -1.1607  -1.0534  -0.9952  -0.9456  -0.8828
 -0.7477  -0.7182  -0.6471  -0.5910  -0.5754  -0.5660  -0.5532  -0.5464
 -0.5085  -0.4870  -0.4649  -0.4449  -0.3381  -0.3044

          Ground-State Mulliken Net Atomic Charges

     Atom                 Charge (a.u.)
  ----------------------------------------
      1 C                     0.051272
      2 C                    -0.260966
      3 C                     0.039543
      4 H                     0.179250
      5 C                    -0.259859
      6 S                    -0.002059
      7 C                    -0.273096
      8 H                     0.102050
      9 H                     0.106909
     10 H                     0.106881
     11 C                    -0.368925
     12 H                     0.112416
     13 H                     0.129564
     14 H                     0.141114
     15 H                     0.195906
  ----------------------------------------
  Sum of atomic charges =     0.000000

                    Cartesian Multipole Moments
 -----------------------------------------------------------------
    Charge (ESU x 10^10)
                -0.0000
    Dipole Moment (Debye)
         X       0.2550      Y       0.0127      Z       0.8715
       Tot       0.9081
    Quadrupole Moments (Debye-Ang)
        XX     -53.6653     XY       0.5661     YY     -42.1841
        XZ       0.1757     YZ       1.5965     ZZ     -48.8468

 Total job time:  15.56s(wall), 739.00s(cpu)
        *  Thank you very much for using Q-Chem.  Have a nice day.  *
