 Q-Chem 5.4, Q-Chem, Inc., Pleasanton, CA (2021)
 Q-Chem 5.4.0 for Intel X86 EM64T Linux

User input:
--------------------------------------------------------------
$molecule
0 1
C	-0.225568	-0.536244	-0.000785
C	0.060432	0.258456	1.112215
C	0.531732	1.567156	0.819815
H	-0.071068	-0.106644	2.142115
C	0.616032	1.800556	-0.564385
S	0.102932	0.377056	-1.465485
C	0.892532	2.568756	1.881615
H	0.740632	2.147356	2.894215
H	0.275232	3.488456	1.807315
H	1.954432	2.883556	1.807415
C	-0.225568	-1.986344	-0.000785
H	-1.160868	-1.986844	0.539215
H	-0.694468	-2.521444	-0.813385
H	0.191332	-2.673544	0.720615
H	0.940532	2.701956	-1.097885
$end

$rem
JOBTYPE		SP
EXCHANGE	HF
CORRELATION	pRIMP2
BASIS		cc-pvtz
METHOD		rimp2
AUX_BASIS	rimp2-cc-pvtz
SOLVENT_METHOD	PCM
PURECART	11111
SYMMETRY	false
MEM_TOTAL	110000
SCF_CONVERGENCE = 6
THRESH=10
GUI = 2
$end

$solvent
dielectric 4.90
$end
--------------------------------------------------------------

             Standard Nuclear Orientation (Angstroms)
    I     Atom           X                Y                Z
 ----------------------------------------------------------------
    1      C      -0.2255680000    -0.5362440000    -0.0007850000
    2      C       0.0604320000     0.2584560000     1.1122150000
    3      C       0.5317320000     1.5671560000     0.8198150000
    4      H      -0.0710680000    -0.1066440000     2.1421150000
    5      C       0.6160320000     1.8005560000    -0.5643850000
    6      S       0.1029320000     0.3770560000    -1.4654850000
    7      C       0.8925320000     2.5687560000     1.8816150000
    8      H       0.7406320000     2.1473560000     2.8942150000
    9      H       0.2752320000     3.4884560000     1.8073150000
   10      H       1.9544320000     2.8835560000     1.8074150000
   11      C      -0.2255680000    -1.9863440000    -0.0007850000
   12      H      -1.1608680000    -1.9868440000     0.5392150000
   13      H      -0.6944680000    -2.5214440000    -0.8133850000
   14      H       0.1913320000    -2.6735440000     0.7206150000
   15      H       0.9405320000     2.7019560000    -1.0978850000
 ----------------------------------------------------------------

   10    -629.4153548452      5.72e-07  Convergence criterion met
 Total energy in the final basis set =     -629.4153548452
        RIMP2         total energy =      -630.5942122000 a.u.

                    Orbital Energies (a.u.)
 --------------------------------------------------------------

 Alpha MOs
 -- Occupied --
-91.9770 -11.2787 -11.2544 -11.2476 -11.2287 -11.2271 -11.2184  -8.9769
 -6.6579  -6.6573  -6.6567  -1.1605  -1.0530  -0.9978  -0.9403  -0.8845
 -0.7431  -0.7206  -0.6475  -0.5863  -0.5745  -0.5648  -0.5588  -0.5432
 -0.5105  -0.4932  -0.4618  -0.4491  -0.3373  -0.2925

          Ground-State Mulliken Net Atomic Charges

     Atom                 Charge (a.u.)
  ----------------------------------------
      1 C                     0.041513
      2 C                    -0.294713
      3 C                     0.047316
      4 H                     0.175137
      5 C                    -0.262341
      6 S                     0.002666
      7 C                    -0.272857
      8 H                     0.101421
      9 H                     0.107071
     10 H                     0.107150
     11 C                    -0.376279
     12 H                     0.134969
     13 H                     0.137723
     14 H                     0.158786
     15 H                     0.192437
  ----------------------------------------
  Sum of atomic charges =     0.000000

                    Cartesian Multipole Moments
 -----------------------------------------------------------------
    Charge (ESU x 10^10)
                -0.0000
    Dipole Moment (Debye)
         X      -0.1683      Y      -0.3982      Z       1.8263
       Tot       1.8768
    Quadrupole Moments (Debye-Ang)
        XX     -53.0056     XY       4.1487     YY     -43.1042
        XZ       0.3265     YZ      -0.4562     ZZ     -48.5601

 Total job time:  15.93s(wall), 753.24s(cpu)
        *  Thank you very much for using Q-Chem.  Have a nice day.  *
