 Q-Chem 5.4, Q-Chem, Inc., Pleasanton, CA (2021)
 Q-Chem 5.4.0 for Intel X86 EM64T Linux

User input:
--------------------------------------------------------------
$molecule
0 1
C	-0.341417	-0.486609	-0.001602
C	0.078183	0.246391	1.111398
C	0.769683	1.453391	0.818998
H	-0.114717	-0.090409	2.141298
C	0.893183	1.668591	-0.565202
S	0.140683	0.355791	-1.466302
C	1.298883	2.377091	1.880798
H	1.076083	1.988491	2.893398
H	0.850583	3.389991	1.806498
H	2.399283	2.502691	1.806598
C	-0.341417	-1.936709	-0.001602
H	0.593883	-1.937209	0.538398
H	-0.810717	-2.471809	0.810698
H	0.074883	-2.623909	-0.723302
H	1.369283	2.499891	-1.098702
$end

$rem
JOBTYPE		SP
EXCHANGE	HF
CORRELATION	pRIMP2
BASIS		cc-pvtz
METHOD		rimp2
AUX_BASIS	rimp2-cc-pvtz
SOLVENT_METHOD	PCM
PURECART	11111
SYMMETRY	false
MEM_TOTAL	110000
SCF_CONVERGENCE = 6
THRESH=10
GUI = 2
$end

$solvent
dielectric 4.90
$end
--------------------------------------------------------------

             Standard Nuclear Orientation (Angstroms)
    I     Atom           X                Y                Z
 ----------------------------------------------------------------
    1      C      -0.3414170000    -0.4866090000    -0.0016020000
    2      C       0.0781830000     0.2463910000     1.1113980000
    3      C       0.7696830000     1.4533910000     0.8189980000
    4      H      -0.1147170000    -0.0904090000     2.1412980000
    5      C       0.8931830000     1.6685910000    -0.5652020000
    6      S       0.1406830000     0.3557910000    -1.4663020000
    7      C       1.2988830000     2.3770910000     1.8807980000
    8      H       1.0760830000     1.9884910000     2.8933980000
    9      H       0.8505830000     3.3899910000     1.8064980000
   10      H       2.3992830000     2.5026910000     1.8065980000
   11      C      -0.3414170000    -1.9367090000    -0.0016020000
   12      H       0.5938830000    -1.9372090000     0.5383980000
   13      H      -0.8107170000    -2.4718090000     0.8106980000
   14      H       0.0748830000    -2.6239090000    -0.7233020000
   15      H       1.3692830000     2.4998910000    -1.0987020000
 ----------------------------------------------------------------

   10    -629.4055234471      5.65e-07  Convergence criterion met
 Total energy in the final basis set =     -629.4055234471
        RIMP2         total energy =      -630.5862780172 a.u.

                    Orbital Energies (a.u.)
 --------------------------------------------------------------

 Alpha MOs
 -- Occupied --
-91.9790 -11.2795 -11.2546 -11.2484 -11.2274 -11.2270 -11.2184  -8.9787
 -6.6597  -6.6591  -6.6586  -1.1636  -1.0542  -0.9981  -0.9375  -0.8837
 -0.7435  -0.7215  -0.6455  -0.5889  -0.5759  -0.5711  -0.5551  -0.5436
 -0.5100  -0.4841  -0.4647  -0.4546  -0.3364  -0.2901

          Ground-State Mulliken Net Atomic Charges

     Atom                 Charge (a.u.)
  ----------------------------------------
      1 C                     0.021456
      2 C                    -0.262009
      3 C                     0.037043
      4 H                     0.174457
      5 C                    -0.267553
      6 S                     0.006636
      7 C                    -0.270186
      8 H                     0.101631
      9 H                     0.107499
     10 H                     0.106181
     11 C                    -0.388171
     12 H                     0.149627
     13 H                     0.131707
     14 H                     0.158371
     15 H                     0.193311
  ----------------------------------------
  Sum of atomic charges =     0.000000

                    Cartesian Multipole Moments
 -----------------------------------------------------------------
    Charge (ESU x 10^10)
                -0.0000
    Dipole Moment (Debye)
         X       1.2719      Y      -0.4775      Z       1.8026
       Tot       2.2573
    Quadrupole Moments (Debye-Ang)
        XX     -52.6462     XY       2.5787     YY     -44.5161
        XZ      -0.1290     YZ      -0.3336     ZZ     -48.4509

 Total job time:  16.16s(wall), 746.66s(cpu)
        *  Thank you very much for using Q-Chem.  Have a nice day.  *
