 Q-Chem 5.4, Q-Chem, Inc., Pleasanton, CA (2021)
 Q-Chem 5.4.0 for Intel X86 EM64T Linux

User input:
--------------------------------------------------------------
$molecule
0 1
C	-0.333975	-0.486609	-0.002181
C	0.085625	0.246391	1.110819
C	0.777125	1.453391	0.818419
H	-0.107275	-0.090409	2.140719
C	0.900625	1.668591	-0.565781
S	0.148125	0.355791	-1.466881
C	1.306325	2.377091	1.880219
H	1.083525	1.988491	2.892819
H	0.858025	3.389991	1.805919
H	2.406725	2.502691	1.806019
C	-0.333975	-1.936709	-0.002181
H	-1.028175	-1.937209	0.825119
H	-1.052475	-2.471809	-0.605381
H	0.304525	-2.623909	0.533119
H	1.376725	2.499891	-1.099281
$end

$rem
JOBTYPE		SP
EXCHANGE	HF
CORRELATION	pRIMP2
BASIS		cc-pvtz
METHOD		rimp2
AUX_BASIS	rimp2-cc-pvtz
SOLVENT_METHOD	PCM
PURECART	11111
SYMMETRY	false
MEM_TOTAL	110000
SCF_CONVERGENCE = 6
THRESH=10
GUI = 2
$end

$solvent
dielectric 4.90
$end
--------------------------------------------------------------

             Standard Nuclear Orientation (Angstroms)
    I     Atom           X                Y                Z
 ----------------------------------------------------------------
    1      C      -0.3339750000    -0.4866090000    -0.0021810000
    2      C       0.0856250000     0.2463910000     1.1108190000
    3      C       0.7771250000     1.4533910000     0.8184190000
    4      H      -0.1072750000    -0.0904090000     2.1407190000
    5      C       0.9006250000     1.6685910000    -0.5657810000
    6      S       0.1481250000     0.3557910000    -1.4668810000
    7      C       1.3063250000     2.3770910000     1.8802190000
    8      H       1.0835250000     1.9884910000     2.8928190000
    9      H       0.8580250000     3.3899910000     1.8059190000
   10      H       2.4067250000     2.5026910000     1.8060190000
   11      C      -0.3339750000    -1.9367090000    -0.0021810000
   12      H      -1.0281750000    -1.9372090000     0.8251190000
   13      H      -1.0524750000    -2.4718090000    -0.6053810000
   14      H       0.3045250000    -2.6239090000     0.5331190000
   15      H       1.3767250000     2.4998910000    -1.0992810000
 ----------------------------------------------------------------

   10    -629.4069990834      5.38e-07  Convergence criterion met
 Total energy in the final basis set =     -629.4069990834
        RIMP2         total energy =      -630.5887424783 a.u.

                    Orbital Energies (a.u.)
 --------------------------------------------------------------

 Alpha MOs
 -- Occupied --
-91.9745 -11.2706 -11.2618 -11.2480 -11.2362 -11.2278 -11.2152  -8.9747
 -6.6556  -6.6550  -6.6545  -1.1624  -1.0522  -0.9984  -0.9389  -0.8850
 -0.7435  -0.7237  -0.6466  -0.5862  -0.5778  -0.5657  -0.5580  -0.5419
 -0.5133  -0.4874  -0.4623  -0.4388  -0.3373  -0.2987

          Ground-State Mulliken Net Atomic Charges

     Atom                 Charge (a.u.)
  ----------------------------------------
      1 C                     0.008014
      2 C                    -0.254590
      3 C                     0.032216
      4 H                     0.177716
      5 C                    -0.241750
      6 S                    -0.000678
      7 C                    -0.271063
      8 H                     0.101457
      9 H                     0.106914
     10 H                     0.106799
     11 C                    -0.369429
     12 H                     0.123599
     13 H                     0.132979
     14 H                     0.154265
     15 H                     0.193552
  ----------------------------------------
  Sum of atomic charges =     0.000000

                    Cartesian Multipole Moments
 -----------------------------------------------------------------
    Charge (ESU x 10^10)
                -0.0000
    Dipole Moment (Debye)
         X       0.4210      Y      -0.0285      Z       2.0814
       Tot       2.1238
    Quadrupole Moments (Debye-Ang)
        XX     -51.6603     XY       4.7579     YY     -44.5912
        XZ       0.2828     YZ      -0.8289     ZZ     -48.6449

 Total job time:  15.48s(wall), 743.97s(cpu)
        *  Thank you very much for using Q-Chem.  Have a nice day.  *
