 Q-Chem 5.4, Q-Chem, Inc., Pleasanton, CA (2021)
 Q-Chem 5.4.0 for Intel X86 EM64T Linux

User input:
--------------------------------------------------------------
$molecule
0 1
C	-0.118964	-0.566489	-0.002247
C	0.024636	0.265811	1.110753
C	0.261536	1.636511	0.818353
H	-0.041364	-0.116589	2.140653
C	0.304036	1.881011	-0.565847
S	0.045936	0.390011	-1.466947
C	0.442936	2.685511	1.880153
H	0.366536	2.244111	2.892753
H	-0.324664	3.484011	1.805853
H	1.434036	3.179911	1.805953
C	-0.118964	-2.016589	-0.002247
H	0.708336	-2.017089	0.691953
H	-0.722164	-2.551689	0.716253
H	0.416336	-2.703789	-0.640747
H	0.467136	2.825011	-1.099347
$end

$rem
JOBTYPE		SP
EXCHANGE	HF
CORRELATION	pRIMP2
BASIS		cc-pvtz
METHOD		rimp2
AUX_BASIS	rimp2-cc-pvtz
SOLVENT_METHOD	PCM
PURECART	11111
SYMMETRY	false
MEM_TOTAL	110000
SCF_CONVERGENCE = 6
THRESH=10
GUI = 2
$end

$solvent
dielectric 4.90
$end
--------------------------------------------------------------

             Standard Nuclear Orientation (Angstroms)
    I     Atom           X                Y                Z
 ----------------------------------------------------------------
    1      C      -0.1189640000    -0.5664890000    -0.0022470000
    2      C       0.0246360000     0.2658110000     1.1107530000
    3      C       0.2615360000     1.6365110000     0.8183530000
    4      H      -0.0413640000    -0.1165890000     2.1406530000
    5      C       0.3040360000     1.8810110000    -0.5658470000
    6      S       0.0459360000     0.3900110000    -1.4669470000
    7      C       0.4429360000     2.6855110000     1.8801530000
    8      H       0.3665360000     2.2441110000     2.8927530000
    9      H      -0.3246640000     3.4840110000     1.8058530000
   10      H       1.4340360000     3.1799110000     1.8059530000
   11      C      -0.1189640000    -2.0165890000    -0.0022470000
   12      H       0.7083360000    -2.0170890000     0.6919530000
   13      H      -0.7221640000    -2.5516890000     0.7162530000
   14      H       0.4163360000    -2.7037890000    -0.6407470000
   15      H       0.4671360000     2.8250110000    -1.0993470000
 ----------------------------------------------------------------

   10    -629.4227187178      5.90e-07  Convergence criterion met
 Total energy in the final basis set =     -629.4227187178
        RIMP2         total energy =      -630.5997776618 a.u.

                    Orbital Energies (a.u.)
 --------------------------------------------------------------

 Alpha MOs
 -- Occupied --
-91.9782 -11.2833 -11.2515 -11.2476 -11.2271 -11.2263 -11.2199  -8.9779
 -6.6588  -6.6583  -6.6578  -1.1606  -1.0537  -0.9987  -0.9389  -0.8845
 -0.7424  -0.7204  -0.6471  -0.5904  -0.5739  -0.5702  -0.5571  -0.5429
 -0.5089  -0.4876  -0.4674  -0.4509  -0.3368  -0.2939

          Ground-State Mulliken Net Atomic Charges

     Atom                 Charge (a.u.)
  ----------------------------------------
      1 C                     0.056561
      2 C                    -0.276341
      3 C                     0.036391
      4 H                     0.175013
      5 C                    -0.270591
      6 S                    -0.001894
      7 C                    -0.273633
      8 H                     0.101286
      9 H                     0.107334
     10 H                     0.107128
     11 C                    -0.388960
     12 H                     0.140437
     13 H                     0.137818
     14 H                     0.156679
     15 H                     0.192770
  ----------------------------------------
  Sum of atomic charges =     0.000000

                    Cartesian Multipole Moments
 -----------------------------------------------------------------
    Charge (ESU x 10^10)
                -0.0000
    Dipole Moment (Debye)
         X       0.7413      Y      -0.5250      Z       1.8947
       Tot       2.1012
    Quadrupole Moments (Debye-Ang)
        XX     -53.9870     XY       0.2109     YY     -42.2722
        XZ      -0.2570     YZ      -0.4494     ZZ     -48.6909

 Total job time:  18.25s(wall), 761.80s(cpu)
        *  Thank you very much for using Q-Chem.  Have a nice day.  *
