 Q-Chem 5.4, Q-Chem, Inc., Pleasanton, CA (2021)
 Q-Chem 5.4.0 for Intel X86 EM64T Linux

User input:
--------------------------------------------------------------
$molecule
0 1
C	0.006794	-0.576386	0.003333
C	0.003694	0.268214	1.116333
C	-0.001006	1.659214	0.823933
H	0.005094	-0.119886	2.146233
C	-0.001606	1.907314	-0.560267
S	0.003094	0.394214	-1.461367
C	-0.004606	2.723814	1.885733
H	-0.003106	2.275814	2.898333
H	-0.899106	3.376814	1.811433
H	0.885694	3.382714	1.811533
C	0.006794	-2.026486	0.003333
H	-1.008106	-2.026986	-0.366067
H	0.327894	-2.561586	-0.878167
H	-0.277906	-2.713686	0.786333
H	-0.004906	2.865414	-1.093767
$end

$rem
JOBTYPE		SP
EXCHANGE	HF
CORRELATION	pRIMP2
BASIS		cc-pvtz
METHOD		rimp2
AUX_BASIS	rimp2-cc-pvtz
SOLVENT_METHOD	PCM
PURECART	11111
SYMMETRY	false
MEM_TOTAL	110000
SCF_CONVERGENCE = 6
THRESH=10
GUI = 2
$end

$solvent
dielectric 4.90
$end
--------------------------------------------------------------

             Standard Nuclear Orientation (Angstroms)
    I     Atom           X                Y                Z
 ----------------------------------------------------------------
    1      C       0.0067940000    -0.5763860000     0.0033330000
    2      C       0.0036940000     0.2682140000     1.1163330000
    3      C      -0.0010060000     1.6592140000     0.8239330000
    4      H       0.0050940000    -0.1198860000     2.1462330000
    5      C      -0.0016060000     1.9073140000    -0.5602670000
    6      S       0.0030940000     0.3942140000    -1.4613670000
    7      C      -0.0046060000     2.7238140000     1.8857330000
    8      H      -0.0031060000     2.2758140000     2.8983330000
    9      H      -0.8991060000     3.3768140000     1.8114330000
   10      H       0.8856940000     3.3827140000     1.8115330000
   11      C       0.0067940000    -2.0264860000     0.0033330000
   12      H      -1.0081060000    -2.0269860000    -0.3660670000
   13      H       0.3278940000    -2.5615860000    -0.8781670000
   14      H      -0.2779060000    -2.7136860000     0.7863330000
   15      H      -0.0049060000     2.8654140000    -1.0937670000
 ----------------------------------------------------------------

   10    -629.4252135391      6.79e-07  Convergence criterion met
 Total energy in the final basis set =     -629.4252135391
        RIMP2         total energy =      -630.6000190344 a.u.

                    Orbital Energies (a.u.)
 --------------------------------------------------------------

 Alpha MOs
 -- Occupied --
-91.9793 -11.2846 -11.2506 -11.2469 -11.2265 -11.2228 -11.2224  -8.9791
 -6.6601  -6.6596  -6.6589  -1.1600  -1.0546  -0.9964  -0.9430  -0.8832
 -0.7447  -0.7177  -0.6483  -0.5876  -0.5751  -0.5661  -0.5527  -0.5464
 -0.5073  -0.4948  -0.4661  -0.4557  -0.3388  -0.2909

          Ground-State Mulliken Net Atomic Charges

     Atom                 Charge (a.u.)
  ----------------------------------------
      1 C                     0.054709
      2 C                    -0.296547
      3 C                     0.045775
      4 H                     0.178288
      5 C                    -0.274748
      6 S                    -0.002331
      7 C                    -0.273743
      8 H                     0.101541
      9 H                     0.107322
     10 H                     0.107260
     11 C                    -0.379968
     12 H                     0.136123
     13 H                     0.138908
     14 H                     0.163031
     15 H                     0.194381
  ----------------------------------------
  Sum of atomic charges =     0.000000

                    Cartesian Multipole Moments
 -----------------------------------------------------------------
    Charge (ESU x 10^10)
                -0.0000
    Dipole Moment (Debye)
         X      -0.6842      Y      -0.6437      Z       1.1648
       Tot       1.4964
    Quadrupole Moments (Debye-Ang)
        XX     -54.3551     XY       1.4540     YY     -41.6360
        XZ      -0.2313     YZ       0.7924     ZZ     -48.6202

 Total job time:  15.98s(wall), 759.99s(cpu)
        *  Thank you very much for using Q-Chem.  Have a nice day.  *
