 Q-Chem 5.4, Q-Chem, Inc., Pleasanton, CA (2021)
 Q-Chem 5.4.0 for Intel X86 EM64T Linux

User input:
--------------------------------------------------------------
$molecule
0 1
C	-0.057172	-0.574004	-0.003627
C	0.013328	0.267696	1.109373
C	0.129928	1.653696	0.816973
H	-0.019072	-0.119104	2.139273
C	0.150928	1.900996	-0.567227
S	0.023728	0.393196	-1.468327
C	0.219128	2.714596	1.878773
H	0.181528	2.268196	2.891373
H	-0.615172	3.443096	1.804473
H	1.163428	3.293496	1.804573
C	-0.057172	-2.024104	-0.003627
H	0.130428	-2.024604	1.059973
H	-0.981072	-2.559204	0.159073
H	0.763328	-2.711304	-0.148627
H	0.231128	2.855696	-1.100727
$end

$rem
JOBTYPE		SP
EXCHANGE	HF
CORRELATION	pRIMP2
BASIS		cc-pvtz
METHOD		rimp2
AUX_BASIS	rimp2-cc-pvtz
SOLVENT_METHOD	PCM
PURECART	11111
SYMMETRY	false
MEM_TOTAL	110000
SCF_CONVERGENCE = 6
THRESH=10
GUI = 2
$end

$solvent
dielectric 4.90
$end
--------------------------------------------------------------

             Standard Nuclear Orientation (Angstroms)
    I     Atom           X                Y                Z
 ----------------------------------------------------------------
    1      C      -0.0571720000    -0.5740040000    -0.0036270000
    2      C       0.0133280000     0.2676960000     1.1093730000
    3      C       0.1299280000     1.6536960000     0.8169730000
    4      H      -0.0190720000    -0.1191040000     2.1392730000
    5      C       0.1509280000     1.9009960000    -0.5672270000
    6      S       0.0237280000     0.3931960000    -1.4683270000
    7      C       0.2191280000     2.7145960000     1.8787730000
    8      H       0.1815280000     2.2681960000     2.8913730000
    9      H      -0.6151720000     3.4430960000     1.8044730000
   10      H       1.1634280000     3.2934960000     1.8045730000
   11      C      -0.0571720000    -2.0241040000    -0.0036270000
   12      H       0.1304280000    -2.0246040000     1.0599730000
   13      H      -0.9810720000    -2.5592040000     0.1590730000
   14      H       0.7633280000    -2.7113040000    -0.1486270000
   15      H       0.2311280000     2.8556960000    -1.1007270000
 ----------------------------------------------------------------

   10    -629.4255065738      4.89e-07  Convergence criterion met
 Total energy in the final basis set =     -629.4255065738
        RIMP2         total energy =      -630.6031630870 a.u.

                    Orbital Energies (a.u.)
 --------------------------------------------------------------

 Alpha MOs
 -- Occupied --
-91.9756 -11.2780 -11.2576 -11.2472 -11.2336 -11.2276 -11.2173  -8.9757
 -6.6566  -6.6560  -6.6555  -1.1609  -1.0525  -0.9997  -0.9388  -0.8855
 -0.7423  -0.7237  -0.6477  -0.5911  -0.5778  -0.5670  -0.5588  -0.5411
 -0.5102  -0.4853  -0.4680  -0.4392  -0.3375  -0.3045

          Ground-State Mulliken Net Atomic Charges

     Atom                 Charge (a.u.)
  ----------------------------------------
      1 C                     0.059938
      2 C                    -0.266412
      3 C                     0.029289
      4 H                     0.176082
      5 C                    -0.250525
      6 S                    -0.007279
      7 C                    -0.273660
      8 H                     0.101258
      9 H                     0.107255
     10 H                     0.107278
     11 C                    -0.371152
     12 H                     0.121775
     13 H                     0.127402
     14 H                     0.145049
     15 H                     0.193702
  ----------------------------------------
  Sum of atomic charges =     0.000000

                    Cartesian Multipole Moments
 -----------------------------------------------------------------
    Charge (ESU x 10^10)
                -0.0000
    Dipole Moment (Debye)
         X       0.2236      Y      -0.0880      Z       2.1551
       Tot       2.1685
    Quadrupole Moments (Debye-Ang)
        XX     -53.6614     XY       0.3712     YY     -42.1828
        XZ      -0.1194     YZ      -0.9841     ZZ     -48.9795

 Total job time:  15.57s(wall), 745.82s(cpu)
        *  Thank you very much for using Q-Chem.  Have a nice day.  *
