 Q-Chem 5.4, Q-Chem, Inc., Pleasanton, CA (2021)
 Q-Chem 5.4.0 for Intel X86 EM64T Linux

User input:
--------------------------------------------------------------
$molecule
0 1
C	-0.332595	-0.486609	0.000852
C	0.087005	0.246391	1.113852
C	0.778505	1.453391	0.821452
H	-0.105895	-0.090409	2.143752
C	0.902005	1.668591	-0.562748
S	0.149505	0.355791	-1.463848
C	1.307705	2.377091	1.883252
H	1.084905	1.988491	2.895852
H	0.859405	3.389991	1.808952
H	2.408105	2.502691	1.809052
C	-0.332595	-1.936709	0.000852
H	-1.396195	-1.937209	0.188452
H	-0.495295	-2.471809	-0.923048
H	-0.187595	-2.623909	0.821352
H	1.378105	2.499891	-1.096248
$end

$rem
JOBTYPE		SP
EXCHANGE	HF
CORRELATION	pRIMP2
BASIS		cc-pvtz
METHOD		rimp2
AUX_BASIS	rimp2-cc-pvtz
SOLVENT_METHOD	PCM
PURECART	11111
SYMMETRY	false
MEM_TOTAL	110000
SCF_CONVERGENCE = 6
THRESH=10
GUI = 2
$end

$solvent
dielectric 4.90
$end
--------------------------------------------------------------

             Standard Nuclear Orientation (Angstroms)
    I     Atom           X                Y                Z
 ----------------------------------------------------------------
    1      C      -0.3325950000    -0.4866090000     0.0008520000
    2      C       0.0870050000     0.2463910000     1.1138520000
    3      C       0.7785050000     1.4533910000     0.8214520000
    4      H      -0.1058950000    -0.0904090000     2.1437520000
    5      C       0.9020050000     1.6685910000    -0.5627480000
    6      S       0.1495050000     0.3557910000    -1.4638480000
    7      C       1.3077050000     2.3770910000     1.8832520000
    8      H       1.0849050000     1.9884910000     2.8958520000
    9      H       0.8594050000     3.3899910000     1.8089520000
   10      H       2.4081050000     2.5026910000     1.8090520000
   11      C      -0.3325950000    -1.9367090000     0.0008520000
   12      H      -1.3961950000    -1.9372090000     0.1884520000
   13      H      -0.4952950000    -2.4718090000    -0.9230480000
   14      H      -0.1875950000    -2.6239090000     0.8213520000
   15      H       1.3781050000     2.4998910000    -1.0962480000
 ----------------------------------------------------------------

   10    -629.4015327896      5.60e-07  Convergence criterion met
 Total energy in the final basis set =     -629.4015327896
        RIMP2         total energy =      -630.5828947817 a.u.

                    Orbital Energies (a.u.)
 --------------------------------------------------------------

 Alpha MOs
 -- Occupied --
-91.9767 -11.2750 -11.2562 -11.2475 -11.2295 -11.2269 -11.2164  -8.9767
 -6.6577  -6.6570  -6.6565  -1.1613  -1.0529  -0.9965  -0.9409  -0.8837
 -0.7442  -0.7206  -0.6459  -0.5848  -0.5741  -0.5658  -0.5557  -0.5437
 -0.5116  -0.4951  -0.4580  -0.4492  -0.3371  -0.2882

          Ground-State Mulliken Net Atomic Charges

     Atom                 Charge (a.u.)
  ----------------------------------------
      1 C                     0.019108
      2 C                    -0.278102
      3 C                     0.047444
      4 H                     0.175253
      5 C                    -0.261657
      6 S                     0.006353
      7 C                    -0.270337
      8 H                     0.101555
      9 H                     0.107100
     10 H                     0.106544
     11 C                    -0.379673
     12 H                     0.133490
     13 H                     0.139624
     14 H                     0.160436
     15 H                     0.192861
  ----------------------------------------
  Sum of atomic charges =     0.000000

                    Cartesian Multipole Moments
 -----------------------------------------------------------------
    Charge (ESU x 10^10)
                -0.0000
    Dipole Moment (Debye)
         X       0.0184      Y      -0.3889      Z       1.6258
       Tot       1.6718
    Quadrupole Moments (Debye-Ang)
        XX     -51.9580     XY       5.2921     YY     -44.4432
        XZ       0.1995     YZ      -0.0545     ZZ     -48.3498

 Total job time:  21.65s(wall), 783.28s(cpu)
        *  Thank you very much for using Q-Chem.  Have a nice day.  *
