 Q-Chem 5.4, Q-Chem, Inc., Pleasanton, CA (2021)
 Q-Chem 5.4.0 for Intel X86 EM64T Linux

User input:
--------------------------------------------------------------
$molecule
0 1
C	-0.586405	-0.238938	-0.003619
C	0.143495	0.186062	1.109381
C	1.345795	0.885562	0.816981
H	-0.191905	-0.009138	2.139281
C	1.560395	1.010262	-0.567219
S	0.252295	0.249562	-1.468319
C	2.265995	1.420962	1.878781
H	1.878695	1.195762	2.891381
H	2.384195	2.522262	1.804481
H	3.281795	0.979462	1.804581
C	-0.586405	-1.689038	-0.003619
H	-0.586405	-1.689538	1.076381
H	-1.524505	-2.224138	-0.003819
H	0.246795	-2.376238	-0.003919
H	2.388395	1.492062	-1.100719
$end

$rem
JOBTYPE		SP
EXCHANGE	HF
CORRELATION	pRIMP2
BASIS		cc-pvtz
METHOD		rimp2
AUX_BASIS	rimp2-cc-pvtz
SOLVENT_METHOD	PCM
PURECART	11111
SYMMETRY	false
MEM_TOTAL	110000
SCF_CONVERGENCE = 6
THRESH=10
GUI = 2
$end

$solvent
dielectric 4.90
$end
--------------------------------------------------------------

             Standard Nuclear Orientation (Angstroms)
    I     Atom           X                Y                Z
 ----------------------------------------------------------------
    1      C      -0.5864050000    -0.2389380000    -0.0036190000
    2      C       0.1434950000     0.1860620000     1.1093810000
    3      C       1.3457950000     0.8855620000     0.8169810000
    4      H      -0.1919050000    -0.0091380000     2.1392810000
    5      C       1.5603950000     1.0102620000    -0.5672190000
    6      S       0.2522950000     0.2495620000    -1.4683190000
    7      C       2.2659950000     1.4209620000     1.8787810000
    8      H       1.8786950000     1.1957620000     2.8913810000
    9      H       2.3841950000     2.5222620000     1.8044810000
   10      H       3.2817950000     0.9794620000     1.8045810000
   11      C      -0.5864050000    -1.6890380000    -0.0036190000
   12      H      -0.5864050000    -1.6895380000     1.0763810000
   13      H      -1.5245050000    -2.2241380000    -0.0038190000
   14      H       0.2467950000    -2.3762380000    -0.0039190000
   15      H       2.3883950000     1.4920620000    -1.1007190000
 ----------------------------------------------------------------

   11    -629.3482652633      4.33e-07  Convergence criterion met
 Total energy in the final basis set =     -629.3482652633
        RIMP2         total energy =      -630.5393959752 a.u.

                    Orbital Energies (a.u.)
 --------------------------------------------------------------

 Alpha MOs
 -- Occupied --
-91.9732 -11.2844 -11.2556 -11.2492 -11.2422 -11.2298 -11.2070  -8.9740
 -6.6548  -6.6539  -6.6537  -1.1748  -1.0555  -1.0021  -0.9326  -0.8840
 -0.7485  -0.7355  -0.6435  -0.5899  -0.5847  -0.5702  -0.5520  -0.5424
 -0.5209  -0.4716  -0.4546  -0.4251  -0.3299  -0.3087

          Ground-State Mulliken Net Atomic Charges

     Atom                 Charge (a.u.)
  ----------------------------------------
      1 C                    -0.112888
      2 C                    -0.109965
      3 C                    -0.024968
      4 H                     0.180686
      5 C                    -0.178809
      6 S                     0.011358
      7 C                    -0.267533
      8 H                     0.102013
      9 H                     0.106742
     10 H                     0.104720
     11 C                    -0.350524
     12 H                     0.103698
     13 H                     0.102435
     14 H                     0.134975
     15 H                     0.198059
  ----------------------------------------
  Sum of atomic charges =     0.000000

                    Cartesian Multipole Moments
 -----------------------------------------------------------------
    Charge (ESU x 10^10)
                -0.0000
    Dipole Moment (Debye)
         X       2.5438      Y       0.2840      Z       2.3836
       Tot       3.4976
    Quadrupole Moments (Debye-Ang)
        XX     -47.7838     XY       4.0580     YY     -50.1714
        XZ      -0.5977     YZ      -0.8743     ZZ     -48.1079

 Total job time:  20.77s(wall), 840.50s(cpu)
        *  Thank you very much for using Q-Chem.  Have a nice day.  *
