 Q-Chem 5.4, Q-Chem, Inc., Pleasanton, CA (2021)
 Q-Chem 5.4.0 for Intel X86 EM64T Linux

User input:
--------------------------------------------------------------
$molecule
0 1
C	-0.333489	-0.486609	0.004064
C	0.086111	0.246391	1.117064
C	0.777611	1.453391	0.824664
H	-0.106789	-0.090409	2.146964
C	0.901111	1.668591	-0.559536
S	0.148611	0.355791	-1.460636
C	1.306811	2.377091	1.886464
H	1.084011	1.988491	2.899064
H	0.858511	3.389991	1.812164
H	2.407211	2.502691	1.812264
C	-0.333489	-1.936709	0.004064
H	-1.268789	-1.937209	-0.535936
H	0.135811	-2.471809	-0.808236
H	-0.749789	-2.623909	0.725764
H	1.377211	2.499891	-1.093036
$end

$rem
JOBTYPE		SP
EXCHANGE	HF
CORRELATION	pRIMP2
BASIS		cc-pvtz
METHOD		rimp2
AUX_BASIS	rimp2-cc-pvtz
SOLVENT_METHOD	PCM
PURECART	11111
SYMMETRY	false
MEM_TOTAL	110000
SCF_CONVERGENCE = 6
THRESH=10
GUI = 2
$end

$solvent
dielectric 4.90
$end
--------------------------------------------------------------

             Standard Nuclear Orientation (Angstroms)
    I     Atom           X                Y                Z
 ----------------------------------------------------------------
    1      C      -0.3334890000    -0.4866090000     0.0040640000
    2      C       0.0861110000     0.2463910000     1.1170640000
    3      C       0.7776110000     1.4533910000     0.8246640000
    4      H      -0.1067890000    -0.0904090000     2.1469640000
    5      C       0.9011110000     1.6685910000    -0.5595360000
    6      S       0.1486110000     0.3557910000    -1.4606360000
    7      C       1.3068110000     2.3770910000     1.8864640000
    8      H       1.0840110000     1.9884910000     2.8990640000
    9      H       0.8585110000     3.3899910000     1.8121640000
   10      H       2.4072110000     2.5026910000     1.8122640000
   11      C      -0.3334890000    -1.9367090000     0.0040640000
   12      H      -1.2687890000    -1.9372090000    -0.5359360000
   13      H       0.1358110000    -2.4718090000    -0.8082360000
   14      H      -0.7497890000    -2.6239090000     0.7257640000
   15      H       1.3772110000     2.4998910000    -1.0930360000
 ----------------------------------------------------------------

   10    -629.4016291887      5.28e-07  Convergence criterion met
 Total energy in the final basis set =     -629.4016291887
        RIMP2         total energy =      -630.5824532686 a.u.

                    Orbital Energies (a.u.)
 --------------------------------------------------------------

 Alpha MOs
 -- Occupied --
-91.9786 -11.2730 -11.2588 -11.2473 -11.2294 -11.2269 -11.2155  -8.9786
 -6.6596  -6.6590  -6.6584  -1.1618  -1.0530  -0.9953  -0.9432  -0.8829
 -0.7463  -0.7197  -0.6450  -0.5877  -0.5736  -0.5682  -0.5524  -0.5448
 -0.5112  -0.4891  -0.4588  -0.4512  -0.3377  -0.2916

          Ground-State Mulliken Net Atomic Charges

     Atom                 Charge (a.u.)
  ----------------------------------------
      1 C                    -0.008361
      2 C                    -0.238577
      3 C                     0.034946
      4 H                     0.179715
      5 C                    -0.250706
      6 S                    -0.001567
      7 C                    -0.271536
      8 H                     0.101555
      9 H                     0.107033
     10 H                     0.106190
     11 C                    -0.377490
     12 H                     0.126005
     13 H                     0.142287
     14 H                     0.155143
     15 H                     0.195362
  ----------------------------------------
  Sum of atomic charges =     0.000000

                    Cartesian Multipole Moments
 -----------------------------------------------------------------
    Charge (ESU x 10^10)
                -0.0000
    Dipole Moment (Debye)
         X       0.2107      Y      -0.2123      Z       1.1972
       Tot       1.2340
    Quadrupole Moments (Debye-Ang)
        XX     -51.8841     XY       5.1430     YY     -44.4227
        XZ      -0.1598     YZ       0.7256     ZZ     -48.4416

 Total job time:  15.72s(wall), 741.74s(cpu)
        *  Thank you very much for using Q-Chem.  Have a nice day.  *
