 Q-Chem 5.4, Q-Chem, Inc., Pleasanton, CA (2021)
 Q-Chem 5.4.0 for Intel X86 EM64T Linux

User input:
--------------------------------------------------------------
$molecule
0 1
C	-0.342147	-0.486609	-0.000076
C	0.077453	0.246391	1.112924
C	0.768953	1.453391	0.820524
H	-0.115447	-0.090409	2.142824
C	0.892453	1.668591	-0.563676
S	0.139953	0.355791	-1.464776
C	1.298153	2.377091	1.882324
H	1.075353	1.988491	2.894924
H	0.849853	3.389991	1.808024
H	2.398553	2.502691	1.808124
C	-0.342147	-1.936709	-0.000076
H	0.721453	-1.937209	0.187424
H	-0.505247	-2.471809	0.923824
H	-0.197747	-2.623909	-0.820676
H	1.368553	2.499891	-1.097176
$end

$rem
JOBTYPE		SP
EXCHANGE	HF
CORRELATION	pRIMP2
BASIS		cc-pvtz
METHOD		rimp2
AUX_BASIS	rimp2-cc-pvtz
SOLVENT_METHOD	PCM
PURECART	11111
SYMMETRY	false
MEM_TOTAL	110000
SCF_CONVERGENCE = 6
THRESH=10
GUI = 2
$end

$solvent
dielectric 4.90
$end
--------------------------------------------------------------

             Standard Nuclear Orientation (Angstroms)
    I     Atom           X                Y                Z
 ----------------------------------------------------------------
    1      C      -0.3421470000    -0.4866090000    -0.0000760000
    2      C       0.0774530000     0.2463910000     1.1129240000
    3      C       0.7689530000     1.4533910000     0.8205240000
    4      H      -0.1154470000    -0.0904090000     2.1428240000
    5      C       0.8924530000     1.6685910000    -0.5636760000
    6      S       0.1399530000     0.3557910000    -1.4647760000
    7      C       1.2981530000     2.3770910000     1.8823240000
    8      H       1.0753530000     1.9884910000     2.8949240000
    9      H       0.8498530000     3.3899910000     1.8080240000
   10      H       2.3985530000     2.5026910000     1.8081240000
   11      C      -0.3421470000    -1.9367090000    -0.0000760000
   12      H       0.7214530000    -1.9372090000     0.1874240000
   13      H      -0.5052470000    -2.4718090000     0.9238240000
   14      H      -0.1977470000    -2.6239090000    -0.8206760000
   15      H       1.3685530000     2.4998910000    -1.0971760000
 ----------------------------------------------------------------

   10    -629.4094923712      6.18e-07  Convergence criterion met
 Total energy in the final basis set =     -629.4094923712
        RIMP2         total energy =      -630.5888250215 a.u.

                    Orbital Energies (a.u.)
 --------------------------------------------------------------

 Alpha MOs
 -- Occupied --
-91.9782 -11.2817 -11.2538 -11.2484 -11.2273 -11.2256 -11.2214  -8.9781
 -6.6590  -6.6585  -6.6579  -1.1638  -1.0551  -0.9973  -0.9388  -0.8833
 -0.7444  -0.7205  -0.6456  -0.5882  -0.5787  -0.5685  -0.5532  -0.5448
 -0.5081  -0.4915  -0.4630  -0.4567  -0.3380  -0.2885

          Ground-State Mulliken Net Atomic Charges

     Atom                 Charge (a.u.)
  ----------------------------------------
      1 C                     0.033752
      2 C                    -0.287932
      3 C                     0.049875
      4 H                     0.174073
      5 C                    -0.273708
      6 S                     0.003824
      7 C                    -0.269966
      8 H                     0.101766
      9 H                     0.107675
     10 H                     0.106424
     11 C                    -0.378138
     12 H                     0.150189
     13 H                     0.133478
     14 H                     0.155280
     15 H                     0.193409
  ----------------------------------------
  Sum of atomic charges =     0.000000

                    Cartesian Multipole Moments
 -----------------------------------------------------------------
    Charge (ESU x 10^10)
                -0.0000
    Dipole Moment (Debye)
         X       1.3257      Y      -0.6044      Z       1.5875
       Tot       2.1548
    Quadrupole Moments (Debye-Ang)
        XX     -52.8445     XY       2.5514     YY     -44.2619
        XZ       0.0958     YZ       0.1189     ZZ     -48.4680

 Total job time:  16.89s(wall), 757.79s(cpu)
        *  Thank you very much for using Q-Chem.  Have a nice day.  *
