 Q-Chem 5.4, Q-Chem, Inc., Pleasanton, CA (2021)
 Q-Chem 5.4.0 for Intel X86 EM64T Linux

User input:
--------------------------------------------------------------
$molecule
0 1
C	0.001092	-0.576386	0.005925
C	-0.002008	0.268214	1.118925
C	-0.006708	1.659214	0.826525
H	-0.000608	-0.119886	2.148825
C	-0.007308	1.907314	-0.557675
S	-0.002608	0.394214	-1.458775
C	-0.010308	2.723814	1.888325
H	-0.008808	2.275814	2.900925
H	-0.904808	3.376814	1.814025
H	0.879992	3.382714	1.814125
C	0.001092	-2.026486	0.005925
H	0.188592	-2.026986	-1.057675
H	0.924992	-2.561586	0.169025
H	-0.819508	-2.713686	-0.138475
H	-0.010608	2.865414	-1.091175
$end

$rem
JOBTYPE		SP
EXCHANGE	HF
CORRELATION	pRIMP2
BASIS		cc-pvtz
METHOD		rimp2
AUX_BASIS	rimp2-cc-pvtz
SOLVENT_METHOD	PCM
PURECART	11111
SYMMETRY	false
MEM_TOTAL	110000
SCF_CONVERGENCE = 6
THRESH=10
GUI = 2
$end

$solvent
dielectric 4.90
$end
--------------------------------------------------------------

             Standard Nuclear Orientation (Angstroms)
    I     Atom           X                Y                Z
 ----------------------------------------------------------------
    1      C       0.0010920000    -0.5763860000     0.0059250000
    2      C      -0.0020080000     0.2682140000     1.1189250000
    3      C      -0.0067080000     1.6592140000     0.8265250000
    4      H      -0.0006080000    -0.1198860000     2.1488250000
    5      C      -0.0073080000     1.9073140000    -0.5576750000
    6      S      -0.0026080000     0.3942140000    -1.4587750000
    7      C      -0.0103080000     2.7238140000     1.8883250000
    8      H      -0.0088080000     2.2758140000     2.9009250000
    9      H      -0.9048080000     3.3768140000     1.8140250000
   10      H       0.8799920000     3.3827140000     1.8141250000
   11      C       0.0010920000    -2.0264860000     0.0059250000
   12      H       0.1885920000    -2.0269860000    -1.0576750000
   13      H       0.9249920000    -2.5615860000     0.1690250000
   14      H      -0.8195080000    -2.7136860000    -0.1384750000
   15      H      -0.0106080000     2.8654140000    -1.0911750000
 ----------------------------------------------------------------

   10    -629.4220592149      5.37e-07  Convergence criterion met
 Total energy in the final basis set =     -629.4220592149
        RIMP2         total energy =      -630.5995335376 a.u.

                    Orbital Energies (a.u.)
 --------------------------------------------------------------

 Alpha MOs
 -- Occupied --
-91.9810 -11.2753 -11.2582 -11.2472 -11.2287 -11.2270 -11.2169  -8.9808
 -6.6617  -6.6612  -6.6606  -1.1606  -1.0534  -0.9953  -0.9456  -0.8829
 -0.7477  -0.7182  -0.6472  -0.5908  -0.5753  -0.5662  -0.5532  -0.5464
 -0.5086  -0.4868  -0.4650  -0.4449  -0.3381  -0.3045

          Ground-State Mulliken Net Atomic Charges

     Atom                 Charge (a.u.)
  ----------------------------------------
      1 C                     0.050865
      2 C                    -0.258827
      3 C                     0.037750
      4 H                     0.179420
      5 C                    -0.259302
      6 S                    -0.001861
      7 C                    -0.273270
      8 H                     0.102069
      9 H                     0.106935
     10 H                     0.106859
     11 C                    -0.368101
     12 H                     0.111929
     13 H                     0.130479
     14 H                     0.139203
     15 H                     0.195854
  ----------------------------------------
  Sum of atomic charges =     0.000000

                    Cartesian Multipole Moments
 -----------------------------------------------------------------
    Charge (ESU x 10^10)
                -0.0000
    Dipole Moment (Debye)
         X       0.1214      Y       0.0186      Z       0.8717
       Tot       0.8803
    Quadrupole Moments (Debye-Ang)
        XX     -53.7082     XY      -0.2120     YY     -42.1076
        XZ       0.1222     YZ       1.5933     ZZ     -48.8513

 Total job time:  15.57s(wall), 761.25s(cpu)
        *  Thank you very much for using Q-Chem.  Have a nice day.  *
