 Q-Chem 5.4, Q-Chem, Inc., Pleasanton, CA (2021)
 Q-Chem 5.4.0 for Intel X86 EM64T Linux

User input:
--------------------------------------------------------------
$molecule
0 1
C	-0.280799	-0.513776	-0.001525
C	0.073401	0.253024	1.111475
C	0.657001	1.515624	0.819075
H	-0.089499	-0.099276	2.141375
C	0.761201	1.740824	-0.565125
S	0.126101	0.367424	-1.466225
C	1.103601	2.482024	1.880875
H	0.915601	2.075424	2.893475
H	0.568801	3.451924	1.806575
H	2.189001	2.703024	1.806675
C	-0.280799	-1.963876	-0.001525
H	-1.108099	-1.964376	0.692675
H	-0.883699	-2.498976	-0.720325
H	0.255001	-2.651076	0.636575
H	1.163101	2.610424	-1.098625
$end

$rem
JOBTYPE		SP
EXCHANGE	HF
CORRELATION	pRIMP2
BASIS		cc-pvtz
METHOD		rimp2
AUX_BASIS	rimp2-cc-pvtz
SOLVENT_METHOD	PCM
PURECART	11111
SYMMETRY	false
MEM_TOTAL	110000
SCF_CONVERGENCE = 6
THRESH=10
GUI = 2
$end

$solvent
dielectric 4.90
$end
--------------------------------------------------------------

             Standard Nuclear Orientation (Angstroms)
    I     Atom           X                Y                Z
 ----------------------------------------------------------------
    1      C      -0.2807990000    -0.5137760000    -0.0015250000
    2      C       0.0734010000     0.2530240000     1.1114750000
    3      C       0.6570010000     1.5156240000     0.8190750000
    4      H      -0.0894990000    -0.0992760000     2.1413750000
    5      C       0.7612010000     1.7408240000    -0.5651250000
    6      S       0.1261010000     0.3674240000    -1.4662250000
    7      C       1.1036010000     2.4820240000     1.8808750000
    8      H       0.9156010000     2.0754240000     2.8934750000
    9      H       0.5688010000     3.4519240000     1.8065750000
   10      H       2.1890010000     2.7030240000     1.8066750000
   11      C      -0.2807990000    -1.9638760000    -0.0015250000
   12      H      -1.1080990000    -1.9643760000     0.6926750000
   13      H      -0.8836990000    -2.4989760000    -0.7203250000
   14      H       0.2550010000    -2.6510760000     0.6365750000
   15      H       1.1631010000     2.6104240000    -1.0986250000
 ----------------------------------------------------------------

   10    -629.4114737558      5.38e-07  Convergence criterion met
 Total energy in the final basis set =     -629.4114737558
        RIMP2         total energy =      -630.5918138483 a.u.

                    Orbital Energies (a.u.)
 --------------------------------------------------------------

 Alpha MOs
 -- Occupied --
-91.9757 -11.2748 -11.2579 -11.2478 -11.2324 -11.2274 -11.2167  -8.9758
 -6.6567  -6.6561  -6.6556  -1.1613  -1.0525  -0.9980  -0.9397  -0.8847
 -0.7433  -0.7221  -0.6471  -0.5863  -0.5761  -0.5646  -0.5590  -0.5425
 -0.5119  -0.4907  -0.4620  -0.4440  -0.3372  -0.2954

          Ground-State Mulliken Net Atomic Charges

     Atom                 Charge (a.u.)
  ----------------------------------------
      1 C                     0.026043
      2 C                    -0.276638
      3 C                     0.040347
      4 H                     0.176553
      5 C                    -0.251818
      6 S                     0.000476
      7 C                    -0.272115
      8 H                     0.101434
      9 H                     0.107031
     10 H                     0.106943
     11 C                    -0.373751
     12 H                     0.130087
     13 H                     0.135973
     14 H                     0.156601
     15 H                     0.192834
  ----------------------------------------
  Sum of atomic charges =     0.000000

                    Cartesian Multipole Moments
 -----------------------------------------------------------------
    Charge (ESU x 10^10)
                -0.0000
    Dipole Moment (Debye)
         X       0.1021      Y      -0.2117      Z       1.9644
       Tot       1.9784
    Quadrupole Moments (Debye-Ang)
        XX     -52.3588     XY       4.5172     YY     -43.8064
        XZ       0.3371     YZ      -0.6629     ZZ     -48.6025

 Total job time:  16.28s(wall), 748.53s(cpu)
        *  Thank you very much for using Q-Chem.  Have a nice day.  *
