 Q-Chem 5.4, Q-Chem, Inc., Pleasanton, CA (2021)
 Q-Chem 5.4.0 for Intel X86 EM64T Linux

User input:
--------------------------------------------------------------
$molecule
0 1
C	-0.053382	-0.574004	0.004709
C	0.017118	0.267696	1.117709
C	0.133718	1.653696	0.825309
H	-0.015282	-0.119104	2.147609
C	0.154718	1.900996	-0.558891
S	0.027518	0.393196	-1.459991
C	0.222918	2.714596	1.887109
H	0.185318	2.268196	2.899709
H	-0.611382	3.443096	1.812809
H	1.167218	3.293496	1.812909
C	-0.053382	-2.024104	0.004709
H	-0.880682	-2.024604	-0.689491
H	0.549818	-2.559204	-0.713791
H	-0.588682	-2.711304	0.643209
H	0.234918	2.855696	-1.092391
$end

$rem
JOBTYPE		SP
EXCHANGE	HF
CORRELATION	pRIMP2
BASIS		cc-pvtz
METHOD		rimp2
AUX_BASIS	rimp2-cc-pvtz
SOLVENT_METHOD	PCM
PURECART	11111
SYMMETRY	false
MEM_TOTAL	110000
SCF_CONVERGENCE = 6
THRESH=10
GUI = 2
$end

$solvent
dielectric 4.90
$end
--------------------------------------------------------------

             Standard Nuclear Orientation (Angstroms)
    I     Atom           X                Y                Z
 ----------------------------------------------------------------
    1      C      -0.0533820000    -0.5740040000     0.0047090000
    2      C       0.0171180000     0.2676960000     1.1177090000
    3      C       0.1337180000     1.6536960000     0.8253090000
    4      H      -0.0152820000    -0.1191040000     2.1476090000
    5      C       0.1547180000     1.9009960000    -0.5588910000
    6      S       0.0275180000     0.3931960000    -1.4599910000
    7      C       0.2229180000     2.7145960000     1.8871090000
    8      H       0.1853180000     2.2681960000     2.8997090000
    9      H      -0.6113820000     3.4430960000     1.8128090000
   10      H       1.1672180000     3.2934960000     1.8129090000
   11      C      -0.0533820000    -2.0241040000     0.0047090000
   12      H      -0.8806820000    -2.0246040000    -0.6894910000
   13      H       0.5498180000    -2.5592040000    -0.7137910000
   14      H      -0.5886820000    -2.7113040000     0.6432090000
   15      H       0.2349180000     2.8556960000    -1.0923910000
 ----------------------------------------------------------------

   10    -629.4231614868      6.19e-07  Convergence criterion met
 Total energy in the final basis set =     -629.4231614868
        RIMP2         total energy =      -630.5990119820 a.u.

                    Orbital Energies (a.u.)
 --------------------------------------------------------------

 Alpha MOs
 -- Occupied --
-91.9797 -11.2809 -11.2538 -11.2469 -11.2266 -11.2252 -11.2199  -8.9795
 -6.6605  -6.6600  -6.6594  -1.1602  -1.0540  -0.9958  -0.9443  -0.8830
 -0.7458  -0.7178  -0.6477  -0.5893  -0.5749  -0.5659  -0.5530  -0.5461
 -0.5081  -0.4911  -0.4653  -0.4527  -0.3388  -0.2950

          Ground-State Mulliken Net Atomic Charges

     Atom                 Charge (a.u.)
  ----------------------------------------
      1 C                     0.043222
      2 C                    -0.272370
      3 C                     0.036522
      4 H                     0.180064
      5 C                    -0.262059
      6 S                    -0.005164
      7 C                    -0.273673
      8 H                     0.101615
      9 H                     0.107078
     10 H                     0.107219
     11 C                    -0.374504
     12 H                     0.124288
     13 H                     0.133554
     14 H                     0.159168
     15 H                     0.195042
  ----------------------------------------
  Sum of atomic charges =     0.000000

                    Cartesian Multipole Moments
 -----------------------------------------------------------------
    Charge (ESU x 10^10)
                -0.0000
    Dipole Moment (Debye)
         X      -0.4172      Y      -0.3787      Z       1.0105
       Tot       1.1569
    Quadrupole Moments (Debye-Ang)
        XX     -54.0183     XY       1.9750     YY     -41.8649
        XZ      -0.2868     YZ       1.1555     ZZ     -48.7027

 Total job time:  15.72s(wall), 749.76s(cpu)
        *  Thank you very much for using Q-Chem.  Have a nice day.  *
