 Q-Chem 5.4, Q-Chem, Inc., Pleasanton, CA (2021)
 Q-Chem 5.4.0 for Intel X86 EM64T Linux

User input:
--------------------------------------------------------------
$molecule
0 1
C	-0.285288	-0.513776	0.006080
C	0.068912	0.253024	1.119080
C	0.652512	1.515624	0.826680
H	-0.093988	-0.099276	2.148980
C	0.756712	1.740824	-0.557520
S	0.121612	0.367424	-1.458620
C	1.099112	2.482024	1.888480
H	0.911112	2.075424	2.901080
H	0.564312	3.451924	1.814180
H	2.184512	2.703024	1.814280
C	-0.285288	-1.963876	0.006080
H	-0.285288	-1.964376	-1.073920
H	0.652812	-2.498976	0.006280
H	-1.118488	-2.651076	0.006380
H	1.158612	2.610424	-1.091020
$end

$rem
JOBTYPE		SP
EXCHANGE	HF
CORRELATION	pRIMP2
BASIS		cc-pvtz
METHOD		rimp2
AUX_BASIS	rimp2-cc-pvtz
SOLVENT_METHOD	PCM
PURECART	11111
SYMMETRY	false
MEM_TOTAL	110000
SCF_CONVERGENCE = 6
THRESH=10
GUI = 2
$end

$solvent
dielectric 4.90
$end
--------------------------------------------------------------

             Standard Nuclear Orientation (Angstroms)
    I     Atom           X                Y                Z
 ----------------------------------------------------------------
    1      C      -0.2852880000    -0.5137760000     0.0060800000
    2      C       0.0689120000     0.2530240000     1.1190800000
    3      C       0.6525120000     1.5156240000     0.8266800000
    4      H      -0.0939880000    -0.0992760000     2.1489800000
    5      C       0.7567120000     1.7408240000    -0.5575200000
    6      S       0.1216120000     0.3674240000    -1.4586200000
    7      C       1.0991120000     2.4820240000     1.8884800000
    8      H       0.9111120000     2.0754240000     2.9010800000
    9      H       0.5643120000     3.4519240000     1.8141800000
   10      H       2.1845120000     2.7030240000     1.8142800000
   11      C      -0.2852880000    -1.9638760000     0.0060800000
   12      H      -0.2852880000    -1.9643760000    -1.0739200000
   13      H       0.6528120000    -2.4989760000     0.0062800000
   14      H      -1.1184880000    -2.6510760000     0.0063800000
   15      H       1.1586120000     2.6104240000    -1.0910200000
 ----------------------------------------------------------------

   10    -629.4099225716      5.24e-07  Convergence criterion met
 Total energy in the final basis set =     -629.4099225716
        RIMP2         total energy =      -630.5901716641 a.u.

                    Orbital Energies (a.u.)
 --------------------------------------------------------------

 Alpha MOs
 -- Occupied --
-91.9800 -11.2701 -11.2621 -11.2473 -11.2320 -11.2273 -11.2150  -8.9800
 -6.6609  -6.6603  -6.6597  -1.1625  -1.0535  -0.9946  -0.9452  -0.8822
 -0.7488  -0.7195  -0.6458  -0.5908  -0.5759  -0.5661  -0.5529  -0.5464
 -0.5107  -0.4810  -0.4646  -0.4433  -0.3371  -0.3051

          Ground-State Mulliken Net Atomic Charges

     Atom                 Charge (a.u.)
  ----------------------------------------
      1 C                     0.019919
      2 C                    -0.253103
      3 C                     0.042851
      4 H                     0.177838
      5 C                    -0.251397
      6 S                    -0.001708
      7 C                    -0.271511
      8 H                     0.102163
      9 H                     0.106918
     10 H                     0.106278
     11 C                    -0.360971
     12 H                     0.112108
     13 H                     0.131225
     14 H                     0.143273
     15 H                     0.196119
  ----------------------------------------
  Sum of atomic charges =     0.000000

                    Cartesian Multipole Moments
 -----------------------------------------------------------------
    Charge (ESU x 10^10)
                -0.0000
    Dipole Moment (Debye)
         X       0.7435      Y       0.1227      Z       0.9297
       Tot       1.1967
    Quadrupole Moments (Debye-Ang)
        XX     -52.2684     XY       3.5148     YY     -43.9472
        XZ       0.2288     YZ       1.4385     ZZ     -48.7337

 Total job time:  16.39s(wall), 744.19s(cpu)
        *  Thank you very much for using Q-Chem.  Have a nice day.  *
