 Q-Chem 5.4, Q-Chem, Inc., Pleasanton, CA (2021)
 Q-Chem 5.4.0 for Intel X86 EM64T Linux

User input:
--------------------------------------------------------------
$molecule
0 1
C	-0.168582	-0.553870	0.001702
C	0.047018	0.262730	1.114702
C	0.402518	1.607530	0.822302
H	-0.052082	-0.112470	2.144602
C	0.466118	1.847430	-0.561898
S	0.079018	0.384630	-1.462998
C	0.674618	2.636830	1.884102
H	0.560018	2.203730	2.896702
H	-0.020482	3.499130	1.809802
H	1.705118	3.042930	1.809902
C	-0.168582	-2.003970	0.001702
H	-1.248582	-2.004470	0.001702
H	-0.168382	-2.539070	-0.936398
H	-0.168282	-2.691170	0.834902
H	0.710918	2.773630	-1.095398
$end

$rem
JOBTYPE		SP
EXCHANGE	HF
CORRELATION	pRIMP2
BASIS		cc-pvtz
METHOD		rimp2
AUX_BASIS	rimp2-cc-pvtz
SOLVENT_METHOD	PCM
PURECART	11111
SYMMETRY	false
MEM_TOTAL	110000
SCF_CONVERGENCE = 6
THRESH=10
GUI = 2
$end

$solvent
dielectric 4.90
$end
--------------------------------------------------------------

             Standard Nuclear Orientation (Angstroms)
    I     Atom           X                Y                Z
 ----------------------------------------------------------------
    1      C      -0.1685820000    -0.5538700000     0.0017020000
    2      C       0.0470180000     0.2627300000     1.1147020000
    3      C       0.4025180000     1.6075300000     0.8223020000
    4      H      -0.0520820000    -0.1124700000     2.1446020000
    5      C       0.4661180000     1.8474300000    -0.5618980000
    6      S       0.0790180000     0.3846300000    -1.4629980000
    7      C       0.6746180000     2.6368300000     1.8841020000
    8      H       0.5600180000     2.2037300000     2.8967020000
    9      H      -0.0204820000     3.4991300000     1.8098020000
   10      H       1.7051180000     3.0429300000     1.8099020000
   11      C      -0.1685820000    -2.0039700000     0.0017020000
   12      H      -1.2485820000    -2.0044700000     0.0017020000
   13      H      -0.1683820000    -2.5390700000    -0.9363980000
   14      H      -0.1682820000    -2.6911700000     0.8349020000
   15      H       0.7109180000     2.7736300000    -1.0953980000
 ----------------------------------------------------------------

   10    -629.4181558888      6.52e-07  Convergence criterion met
 Total energy in the final basis set =     -629.4181558888
        RIMP2         total energy =      -630.5949213979 a.u.

                    Orbital Energies (a.u.)
 --------------------------------------------------------------

 Alpha MOs
 -- Occupied --
-91.9789 -11.2828 -11.2508 -11.2471 -11.2265 -11.2238 -11.2208  -8.9786
 -6.6596  -6.6591  -6.6584  -1.1599  -1.0539  -0.9968  -0.9419  -0.8837
 -0.7439  -0.7185  -0.6476  -0.5861  -0.5729  -0.5676  -0.5543  -0.5452
 -0.5088  -0.4958  -0.4610  -0.4567  -0.3378  -0.2887

          Ground-State Mulliken Net Atomic Charges

     Atom                 Charge (a.u.)
  ----------------------------------------
      1 C                     0.045801
      2 C                    -0.295796
      3 C                     0.048633
      4 H                     0.175500
      5 C                    -0.277160
      6 S                     0.004278
      7 C                    -0.272640
      8 H                     0.101482
      9 H                     0.107203
     10 H                     0.107093
     11 C                    -0.380132
     12 H                     0.137827
     13 H                     0.141213
     14 H                     0.163111
     15 H                     0.193587
  ----------------------------------------
  Sum of atomic charges =     0.000000

                    Cartesian Multipole Moments
 -----------------------------------------------------------------
    Charge (ESU x 10^10)
                -0.0000
    Dipole Moment (Debye)
         X      -0.4405      Y      -0.6369      Z       1.4155
       Tot       1.6135
    Quadrupole Moments (Debye-Ang)
        XX     -53.6625     XY       3.7642     YY     -42.3945
        XZ       0.0668     YZ       0.2698     ZZ     -48.4926

 Total job time:  15.51s(wall), 759.16s(cpu)
        *  Thank you very much for using Q-Chem.  Have a nice day.  *
