 Q-Chem 5.4, Q-Chem, Inc., Pleasanton, CA (2021)
 Q-Chem 5.4.0 for Intel X86 EM64T Linux

User input:
--------------------------------------------------------------
$molecule
0 1
C	-0.336982	-0.486609	-0.003619
C	0.082618	0.246391	1.109381
C	0.774118	1.453391	0.816981
H	-0.110282	-0.090409	2.139281
C	0.897618	1.668591	-0.567219
S	0.145118	0.355791	-1.468319
C	1.303318	2.377091	1.878781
H	1.080518	1.988491	2.891381
H	0.855018	3.389991	1.804481
H	2.403718	2.502691	1.804581
C	-0.336982	-1.936709	-0.003619
H	-0.336982	-1.937209	1.076381
H	-1.275082	-2.471809	-0.003819
H	0.496218	-2.623909	-0.003919
H	1.373718	2.499891	-1.100719
$end

$rem
JOBTYPE		SP
EXCHANGE	HF
CORRELATION	pRIMP2
BASIS		cc-pvtz
METHOD		rimp2
AUX_BASIS	rimp2-cc-pvtz
SOLVENT_METHOD	PCM
PURECART	11111
SYMMETRY	false
MEM_TOTAL	110000
SCF_CONVERGENCE = 6
THRESH=10
GUI = 2
$end

$solvent
dielectric 4.90
$end
--------------------------------------------------------------

             Standard Nuclear Orientation (Angstroms)
    I     Atom           X                Y                Z
 ----------------------------------------------------------------
    1      C      -0.3369820000    -0.4866090000    -0.0036190000
    2      C       0.0826180000     0.2463910000     1.1093810000
    3      C       0.7741180000     1.4533910000     0.8169810000
    4      H      -0.1102820000    -0.0904090000     2.1392810000
    5      C       0.8976180000     1.6685910000    -0.5672190000
    6      S       0.1451180000     0.3557910000    -1.4683190000
    7      C       1.3033180000     2.3770910000     1.8787810000
    8      H       1.0805180000     1.9884910000     2.8913810000
    9      H       0.8550180000     3.3899910000     1.8044810000
   10      H       2.4037180000     2.5026910000     1.8045810000
   11      C      -0.3369820000    -1.9367090000    -0.0036190000
   12      H      -0.3369820000    -1.9372090000     1.0763810000
   13      H      -1.2750820000    -2.4718090000    -0.0038190000
   14      H       0.4962180000    -2.6239090000    -0.0039190000
   15      H       1.3737180000     2.4998910000    -1.1007190000
 ----------------------------------------------------------------

   10    -629.4069194268      5.08e-07  Convergence criterion met
 Total energy in the final basis set =     -629.4069194268
        RIMP2         total energy =      -630.5887527965 a.u.

                    Orbital Energies (a.u.)
 --------------------------------------------------------------

 Alpha MOs
 -- Occupied --
-91.9745 -11.2693 -11.2640 -11.2476 -11.2387 -11.2281 -11.2137  -8.9748
 -6.6557  -6.6551  -6.6546  -1.1635  -1.0523  -0.9996  -0.9372  -0.8852
 -0.7433  -0.7263  -0.6461  -0.5884  -0.5799  -0.5691  -0.5563  -0.5409
 -0.5140  -0.4767  -0.4671  -0.4355  -0.3365  -0.3058

          Ground-State Mulliken Net Atomic Charges

     Atom                 Charge (a.u.)
  ----------------------------------------
      1 C                     0.004723
      2 C                    -0.244802
      3 C                     0.032993
      4 H                     0.175777
      5 C                    -0.238025
      6 S                    -0.002574
      7 C                    -0.270098
      8 H                     0.101427
      9 H                     0.106967
     10 H                     0.106691
     11 C                    -0.354037
     12 H                     0.116307
     13 H                     0.121002
     14 H                     0.149470
     15 H                     0.194178
  ----------------------------------------
  Sum of atomic charges =     0.000000

                    Cartesian Multipole Moments
 -----------------------------------------------------------------
    Charge (ESU x 10^10)
                -0.0000
    Dipole Moment (Debye)
         X       0.9090      Y       0.1382      Z       2.2232
       Tot       2.4058
    Quadrupole Moments (Debye-Ang)
        XX     -51.6884     XY       3.7181     YY     -44.7372
        XZ      -0.1259     YZ      -1.0531     ZZ     -48.8080

 Total job time:  15.88s(wall), 763.73s(cpu)
        *  Thank you very much for using Q-Chem.  Have a nice day.  *
