 Q-Chem 5.4, Q-Chem, Inc., Pleasanton, CA (2021)
 Q-Chem 5.4.0 for Intel X86 EM64T Linux

User input:
--------------------------------------------------------------
$molecule
0 1
C	-0.288294	-0.513776	0.004642
C	0.065906	0.253024	1.117642
C	0.649506	1.515624	0.825242
H	-0.096994	-0.099276	2.147542
C	0.753706	1.740824	-0.558958
S	0.118606	0.367424	-1.460058
C	1.096106	2.482024	1.887042
H	0.908106	2.075424	2.899642
H	0.561306	3.451924	1.812742
H	2.181506	2.703024	1.812842
C	-0.288294	-1.963876	0.004642
H	0.405906	-1.964376	-0.822658
H	0.430206	-2.498976	0.607842
H	-0.926794	-2.651076	-0.530658
H	1.155606	2.610424	-1.092458
$end

$rem
JOBTYPE		SP
EXCHANGE	HF
CORRELATION	pRIMP2
BASIS		cc-pvtz
METHOD		rimp2
AUX_BASIS	rimp2-cc-pvtz
SOLVENT_METHOD	PCM
PURECART	11111
SYMMETRY	false
MEM_TOTAL	110000
SCF_CONVERGENCE = 6
THRESH=10
GUI = 2
$end

$solvent
dielectric 4.90
$end
--------------------------------------------------------------

             Standard Nuclear Orientation (Angstroms)
    I     Atom           X                Y                Z
 ----------------------------------------------------------------
    1      C      -0.2882940000    -0.5137760000     0.0046420000
    2      C       0.0659060000     0.2530240000     1.1176420000
    3      C       0.6495060000     1.5156240000     0.8252420000
    4      H      -0.0969940000    -0.0992760000     2.1475420000
    5      C       0.7537060000     1.7408240000    -0.5589580000
    6      S       0.1186060000     0.3674240000    -1.4600580000
    7      C       1.0961060000     2.4820240000     1.8870420000
    8      H       0.9081060000     2.0754240000     2.8996420000
    9      H       0.5613060000     3.4519240000     1.8127420000
   10      H       2.1815060000     2.7030240000     1.8128420000
   11      C      -0.2882940000    -1.9638760000     0.0046420000
   12      H       0.4059060000    -1.9643760000    -0.8226580000
   13      H       0.4302060000    -2.4989760000     0.6078420000
   14      H      -0.9267940000    -2.6510760000    -0.5306580000
   15      H       1.1556060000     2.6104240000    -1.0924580000
 ----------------------------------------------------------------

   10    -629.4120541738      6.01e-07  Convergence criterion met
 Total energy in the final basis set =     -629.4120541738
        RIMP2         total energy =      -630.5908445008 a.u.

                    Orbital Energies (a.u.)
 --------------------------------------------------------------

 Alpha MOs
 -- Occupied --
-91.9765 -11.2760 -11.2584 -11.2472 -11.2308 -11.2272 -11.2171  -8.9769
 -6.6578  -6.6573  -6.6566  -1.1628  -1.0544  -0.9949  -0.9437  -0.8820
 -0.7476  -0.7195  -0.6457  -0.5899  -0.5776  -0.5655  -0.5514  -0.5467
 -0.5093  -0.4888  -0.4633  -0.4483  -0.3387  -0.2973

          Ground-State Mulliken Net Atomic Charges

     Atom                 Charge (a.u.)
  ----------------------------------------
      1 C                     0.040741
      2 C                    -0.290230
      3 C                     0.052018
      4 H                     0.179083
      5 C                    -0.255884
      6 S                    -0.004549
      7 C                    -0.270771
      8 H                     0.101757
      9 H                     0.107610
     10 H                     0.106610
     11 C                    -0.374184
     12 H                     0.130228
     13 H                     0.139655
     14 H                     0.143681
     15 H                     0.194234
  ----------------------------------------
  Sum of atomic charges =     0.000000

                    Cartesian Multipole Moments
 -----------------------------------------------------------------
    Charge (ESU x 10^10)
                -0.0000
    Dipole Moment (Debye)
         X       1.0920      Y      -0.1962      Z       1.0439
       Tot       1.5234
    Quadrupole Moments (Debye-Ang)
        XX     -52.8095     XY       2.5260     YY     -43.8305
        XZ       0.5100     YZ       1.4100     ZZ     -48.6259

 Total job time:  15.82s(wall), 738.19s(cpu)
        *  Thank you very much for using Q-Chem.  Have a nice day.  *
