 Q-Chem 5.4, Q-Chem, Inc., Pleasanton, CA (2021)
 Q-Chem 5.4.0 for Intel X86 EM64T Linux

User input:
--------------------------------------------------------------
$molecule
0 1
C	0.006833	-0.576386	-0.000785
C	0.003733	0.268214	1.112215
C	-0.000967	1.659214	0.819815
H	0.005133	-0.119886	2.142115
C	-0.001567	1.907314	-0.564385
S	0.003133	0.394214	-1.465485
C	-0.004567	2.723814	1.881615
H	-0.003067	2.275814	2.894215
H	-0.899067	3.376814	1.807315
H	0.885733	3.382714	1.807415
C	0.006833	-2.026486	-0.000785
H	-0.928467	-2.026986	0.539215
H	-0.462067	-2.561586	-0.813385
H	0.423733	-2.713686	0.720615
H	-0.004867	2.865414	-1.097885
$end

$rem
JOBTYPE		SP
EXCHANGE	HF
CORRELATION	pRIMP2
BASIS		cc-pvtz
METHOD		rimp2
AUX_BASIS	rimp2-cc-pvtz
SOLVENT_METHOD	PCM
PURECART	11111
SYMMETRY	false
MEM_TOTAL	110000
SCF_CONVERGENCE = 6
THRESH=10
GUI = 2
$end

$solvent
dielectric 4.90
$end
--------------------------------------------------------------

             Standard Nuclear Orientation (Angstroms)
    I     Atom           X                Y                Z
 ----------------------------------------------------------------
    1      C       0.0068330000    -0.5763860000    -0.0007850000
    2      C       0.0037330000     0.2682140000     1.1122150000
    3      C      -0.0009670000     1.6592140000     0.8198150000
    4      H       0.0051330000    -0.1198860000     2.1421150000
    5      C      -0.0015670000     1.9073140000    -0.5643850000
    6      S       0.0031330000     0.3942140000    -1.4654850000
    7      C      -0.0045670000     2.7238140000     1.8816150000
    8      H      -0.0030670000     2.2758140000     2.8942150000
    9      H      -0.8990670000     3.3768140000     1.8073150000
   10      H       0.8857330000     3.3827140000     1.8074150000
   11      C       0.0068330000    -2.0264860000    -0.0007850000
   12      H      -0.9284670000    -2.0269860000     0.5392150000
   13      H      -0.4620670000    -2.5615860000    -0.8133850000
   14      H       0.4237330000    -2.7136860000     0.7206150000
   15      H      -0.0048670000     2.8654140000    -1.0978850000
 ----------------------------------------------------------------

   10    -629.4249784963      6.22e-07  Convergence criterion met
 Total energy in the final basis set =     -629.4249784963
        RIMP2         total energy =      -630.6010720141 a.u.

                    Orbital Energies (a.u.)
 --------------------------------------------------------------

 Alpha MOs
 -- Occupied --
-91.9790 -11.2840 -11.2505 -11.2474 -11.2268 -11.2244 -11.2211  -8.9786
 -6.6596  -6.6591  -6.6585  -1.1599  -1.0538  -0.9981  -0.9402  -0.8843
 -0.7427  -0.7196  -0.6486  -0.5880  -0.5732  -0.5666  -0.5583  -0.5437
 -0.5078  -0.4927  -0.4661  -0.4533  -0.3373  -0.2923

          Ground-State Mulliken Net Atomic Charges

     Atom                 Charge (a.u.)
  ----------------------------------------
      1 C                     0.064312
      2 C                    -0.293577
      3 C                     0.042906
      4 H                     0.174549
      5 C                    -0.273702
      6 S                     0.000663
      7 C                    -0.275070
      8 H                     0.101405
      9 H                     0.107253
     10 H                     0.107281
     11 C                    -0.383558
     12 H                     0.139954
     13 H                     0.138766
     14 H                     0.155771
     15 H                     0.193048
  ----------------------------------------
  Sum of atomic charges =     0.000000

                    Cartesian Multipole Moments
 -----------------------------------------------------------------
    Charge (ESU x 10^10)
                -0.0000
    Dipole Moment (Debye)
         X      -0.6380      Y      -0.5926      Z       1.7654
       Tot       1.9685
    Quadrupole Moments (Debye-Ang)
        XX     -54.2305     XY       1.3111     YY     -41.8853
        XZ       0.2472     YZ      -0.4242     ZZ     -48.6214

 Total job time:  16.20s(wall), 760.17s(cpu)
        *  Thank you very much for using Q-Chem.  Have a nice day.  *
