 Q-Chem 5.4, Q-Chem, Inc., Pleasanton, CA (2021)
 Q-Chem 5.4.0 for Intel X86 EM64T Linux

User input:
--------------------------------------------------------------
$molecule
0 1
C	-0.435866	-0.419059	-0.003488
C	0.104634	0.229941	1.109512
C	0.995134	1.298441	0.817112
H	-0.143766	-0.068259	2.139412
C	1.154234	1.489041	-0.567088
S	0.185234	0.326841	-1.468188
C	1.676734	2.116341	1.878912
H	1.389934	1.772241	2.891512
H	1.411234	3.191641	1.804612
H	2.782334	2.048841	1.804712
C	-0.435866	-1.869159	-0.003488
H	-0.066466	-1.869659	1.011412
H	-1.317466	-2.404259	0.317212
H	0.346934	-2.556359	-0.288788
H	1.767434	2.225041	-1.100588
$end

$rem
JOBTYPE		SP
EXCHANGE	HF
CORRELATION	pRIMP2
BASIS		cc-pvtz
METHOD		rimp2
AUX_BASIS	rimp2-cc-pvtz
SOLVENT_METHOD	PCM
PURECART	11111
SYMMETRY	false
MEM_TOTAL	110000
SCF_CONVERGENCE = 6
THRESH=10
GUI = 2
$end

$solvent
dielectric 4.90
$end
--------------------------------------------------------------

             Standard Nuclear Orientation (Angstroms)
    I     Atom           X                Y                Z
 ----------------------------------------------------------------
    1      C      -0.4358660000    -0.4190590000    -0.0034880000
    2      C       0.1046340000     0.2299410000     1.1095120000
    3      C       0.9951340000     1.2984410000     0.8171120000
    4      H      -0.1437660000    -0.0682590000     2.1394120000
    5      C       1.1542340000     1.4890410000    -0.5670880000
    6      S       0.1852340000     0.3268410000    -1.4681880000
    7      C       1.6767340000     2.1163410000     1.8789120000
    8      H       1.3899340000     1.7722410000     2.8915120000
    9      H       1.4112340000     3.1916410000     1.8046120000
   10      H       2.7823340000     2.0488410000     1.8047120000
   11      C      -0.4358660000    -1.8691590000    -0.0034880000
   12      H      -0.0664660000    -1.8696590000     1.0114120000
   13      H      -1.3174660000    -2.4042590000     0.3172120000
   14      H       0.3469340000    -2.5563590000    -0.2887880000
   15      H       1.7674340000     2.2250410000    -1.1005880000
 ----------------------------------------------------------------

   10    -629.3875959745      5.47e-07  Convergence criterion met
 Total energy in the final basis set =     -629.3875959745
        RIMP2         total energy =      -630.5731230692 a.u.

                    Orbital Energies (a.u.)
 --------------------------------------------------------------

 Alpha MOs
 -- Occupied --
-91.9759 -11.2664 -11.2649 -11.2480 -11.2396 -11.2283 -11.2107  -8.9761
 -6.6570  -6.6563  -6.6559  -1.1662  -1.0530  -0.9997  -0.9354  -0.8843
 -0.7441  -0.7277  -0.6444  -0.5882  -0.5797  -0.5712  -0.5548  -0.5416
 -0.5154  -0.4694  -0.4670  -0.4402  -0.3336  -0.3015

          Ground-State Mulliken Net Atomic Charges

     Atom                 Charge (a.u.)
  ----------------------------------------
      1 C                    -0.020441
      2 C                    -0.213636
      3 C                     0.017035
      4 H                     0.175816
      5 C                    -0.229526
      6 S                     0.004725
      7 C                    -0.269531
      8 H                     0.101419
      9 H                     0.107127
     10 H                     0.105751
     11 C                    -0.370328
     12 H                     0.127722
     13 H                     0.115975
     14 H                     0.153804
     15 H                     0.194086
  ----------------------------------------
  Sum of atomic charges =     0.000000

                    Cartesian Multipole Moments
 -----------------------------------------------------------------
    Charge (ESU x 10^10)
                -0.0000
    Dipole Moment (Debye)
         X       1.4972      Y       0.1121      Z       2.2029
       Tot       2.6659
    Quadrupole Moments (Debye-Ang)
        XX     -50.7220     XY       3.7616     YY     -46.5624
        XZ      -0.3854     YZ      -0.9453     ZZ     -48.5014

 Total job time:  15.89s(wall), 747.81s(cpu)
        *  Thank you very much for using Q-Chem.  Have a nice day.  *
