 Q-Chem 5.4, Q-Chem, Inc., Pleasanton, CA (2021)
 Q-Chem 5.4.0 for Intel X86 EM64T Linux

User input:
--------------------------------------------------------------
$molecule
0 1
C	-0.176264	-0.553870	0.005194
C	0.039336	0.262730	1.118194
C	0.394836	1.607530	0.825794
H	-0.059764	-0.112470	2.148094
C	0.458436	1.847430	-0.558406
S	0.071336	0.384630	-1.459506
C	0.666936	2.636830	1.887594
H	0.552336	2.203730	2.900194
H	-0.028164	3.499130	1.813294
H	1.697436	3.042930	1.813394
C	-0.176264	-2.003970	0.005194
H	0.363736	-2.004470	-0.930106
H	0.636036	-2.539070	0.474494
H	-0.897964	-2.691170	-0.411106
H	0.703236	2.773630	-1.091906
$end

$rem
JOBTYPE		SP
EXCHANGE	HF
CORRELATION	pRIMP2
BASIS		cc-pvtz
METHOD		rimp2
AUX_BASIS	rimp2-cc-pvtz
SOLVENT_METHOD	PCM
PURECART	11111
SYMMETRY	false
MEM_TOTAL	110000
SCF_CONVERGENCE = 6
THRESH=10
GUI = 2
$end

$solvent
dielectric 4.90
$end
--------------------------------------------------------------

             Standard Nuclear Orientation (Angstroms)
    I     Atom           X                Y                Z
 ----------------------------------------------------------------
    1      C      -0.1762640000    -0.5538700000     0.0051940000
    2      C       0.0393360000     0.2627300000     1.1181940000
    3      C       0.3948360000     1.6075300000     0.8257940000
    4      H      -0.0597640000    -0.1124700000     2.1480940000
    5      C       0.4584360000     1.8474300000    -0.5584060000
    6      S       0.0713360000     0.3846300000    -1.4595060000
    7      C       0.6669360000     2.6368300000     1.8875940000
    8      H       0.5523360000     2.2037300000     2.9001940000
    9      H      -0.0281640000     3.4991300000     1.8132940000
   10      H       1.6974360000     3.0429300000     1.8133940000
   11      C      -0.1762640000    -2.0039700000     0.0051940000
   12      H       0.3637360000    -2.0044700000    -0.9301060000
   13      H       0.6360360000    -2.5390700000     0.4744940000
   14      H      -0.8979640000    -2.6911700000    -0.4111060000
   15      H       0.7032360000     2.7736300000    -1.0919060000
 ----------------------------------------------------------------

   10    -629.4191535467      5.77e-07  Convergence criterion met
 Total energy in the final basis set =     -629.4191535467
        RIMP2         total energy =      -630.5967366182 a.u.

                    Orbital Energies (a.u.)
 --------------------------------------------------------------

 Alpha MOs
 -- Occupied --
-91.9787 -11.2767 -11.2574 -11.2471 -11.2292 -11.2270 -11.2174  -8.9787
 -6.6597  -6.6592  -6.6585  -1.1613  -1.0539  -0.9952  -0.9447  -0.8825
 -0.7474  -0.7186  -0.6465  -0.5906  -0.5763  -0.5658  -0.5522  -0.5465
 -0.5086  -0.4883  -0.4644  -0.4477  -0.3384  -0.3004

          Ground-State Mulliken Net Atomic Charges

     Atom                 Charge (a.u.)
  ----------------------------------------
      1 C                     0.047884
      2 C                    -0.280261
      3 C                     0.048136
      4 H                     0.179354
      5 C                    -0.259695
      6 S                    -0.003133
      7 C                    -0.272059
      8 H                     0.101795
      9 H                     0.107321
     10 H                     0.106845
     11 C                    -0.371967
     12 H                     0.120765
     13 H                     0.136193
     14 H                     0.143795
     15 H                     0.195030
  ----------------------------------------
  Sum of atomic charges =     0.000000

                    Cartesian Multipole Moments
 -----------------------------------------------------------------
    Charge (ESU x 10^10)
                -0.0000
    Dipole Moment (Debye)
         X       0.7265      Y      -0.1290      Z       0.9459
       Tot       1.1997
    Quadrupole Moments (Debye-Ang)
        XX     -53.4603     XY       1.5251     YY     -42.7208
        XZ       0.4290     YZ       1.5362     ZZ     -48.7376

 Total job time:  15.77s(wall), 750.07s(cpu)
        *  Thank you very much for using Q-Chem.  Have a nice day.  *
