 Q-Chem 5.4, Q-Chem, Inc., Pleasanton, CA (2021)
 Q-Chem 5.4.0 for Intel X86 EM64T Linux

User input:
--------------------------------------------------------------
$molecule
0 1
C	-0.225985	-0.536244	-0.001525
C	0.060015	0.258456	1.111475
C	0.531315	1.567156	0.819075
H	-0.071485	-0.106644	2.141375
C	0.615615	1.800556	-0.565125
S	0.102515	0.377056	-1.466225
C	0.892115	2.568756	1.880875
H	0.740215	2.147356	2.893475
H	0.274815	3.488456	1.806575
H	1.954015	2.883556	1.806675
C	-0.225985	-1.986344	-0.001525
H	-1.053285	-1.986844	0.692675
H	-0.828885	-2.521444	-0.720325
H	0.309815	-2.673544	0.636575
H	0.940115	2.701956	-1.098625
$end

$rem
JOBTYPE		SP
EXCHANGE	HF
CORRELATION	pRIMP2
BASIS		cc-pvtz
METHOD		rimp2
AUX_BASIS	rimp2-cc-pvtz
SOLVENT_METHOD	PCM
PURECART	11111
SYMMETRY	false
MEM_TOTAL	110000
SCF_CONVERGENCE = 6
THRESH=10
GUI = 2
$end

$solvent
dielectric 4.90
$end
--------------------------------------------------------------

             Standard Nuclear Orientation (Angstroms)
    I     Atom           X                Y                Z
 ----------------------------------------------------------------
    1      C      -0.2259850000    -0.5362440000    -0.0015250000
    2      C       0.0600150000     0.2584560000     1.1114750000
    3      C       0.5313150000     1.5671560000     0.8190750000
    4      H      -0.0714850000    -0.1066440000     2.1413750000
    5      C       0.6156150000     1.8005560000    -0.5651250000
    6      S       0.1025150000     0.3770560000    -1.4662250000
    7      C       0.8921150000     2.5687560000     1.8808750000
    8      H       0.7402150000     2.1473560000     2.8934750000
    9      H       0.2748150000     3.4884560000     1.8065750000
   10      H       1.9540150000     2.8835560000     1.8066750000
   11      C      -0.2259850000    -1.9863440000    -0.0015250000
   12      H      -1.0532850000    -1.9868440000     0.6926750000
   13      H      -0.8288850000    -2.5214440000    -0.7203250000
   14      H       0.3098150000    -2.6735440000     0.6365750000
   15      H       0.9401150000     2.7019560000    -1.0986250000
 ----------------------------------------------------------------

   10    -629.4163004066      5.46e-07  Convergence criterion met
 Total energy in the final basis set =     -629.4163004066
        RIMP2         total energy =      -630.5954098066 a.u.

                    Orbital Energies (a.u.)
 --------------------------------------------------------------

 Alpha MOs
 -- Occupied --
-91.9764 -11.2773 -11.2561 -11.2477 -11.2306 -11.2273 -11.2178  -8.9764
 -6.6573  -6.6567  -6.6562  -1.1608  -1.0527  -0.9982  -0.9399  -0.8848
 -0.7430  -0.7215  -0.6476  -0.5869  -0.5754  -0.5647  -0.5594  -0.5427
 -0.5109  -0.4912  -0.4629  -0.4460  -0.3373  -0.2953

          Ground-State Mulliken Net Atomic Charges

     Atom                 Charge (a.u.)
  ----------------------------------------
      1 C                     0.038227
      2 C                    -0.285272
      3 C                     0.042808
      4 H                     0.176318
      5 C                    -0.257476
      6 S                    -0.000086
      7 C                    -0.273016
      8 H                     0.101395
      9 H                     0.107014
     10 H                     0.107172
     11 C                    -0.373453
     12 H                     0.131210
     13 H                     0.137160
     14 H                     0.155194
     15 H                     0.192807
  ----------------------------------------
  Sum of atomic charges =     0.000000

                    Cartesian Multipole Moments
 -----------------------------------------------------------------
    Charge (ESU x 10^10)
                -0.0000
    Dipole Moment (Debye)
         X      -0.0594      Y      -0.2846      Z       1.9399
       Tot       1.9615
    Quadrupole Moments (Debye-Ang)
        XX     -52.9127     XY       3.9800     YY     -43.1596
        XZ       0.3438     YZ      -0.6507     ZZ     -48.6385

 Total job time:  18.43s(wall), 750.83s(cpu)
        *  Thank you very much for using Q-Chem.  Have a nice day.  *
