 Q-Chem 5.4, Q-Chem, Inc., Pleasanton, CA (2021)
 Q-Chem 5.4.0 for Intel X86 EM64T Linux

User input:
--------------------------------------------------------------
$molecule
0 1
C	-0.591311	-0.238938	0.003247
C	0.138589	0.186062	1.116247
C	1.340889	0.885562	0.823847
H	-0.196811	-0.009138	2.146147
C	1.555489	1.010262	-0.560353
S	0.247389	0.249562	-1.461453
C	2.261089	1.420962	1.885647
H	1.873789	1.195762	2.898247
H	2.379289	2.522262	1.811347
H	3.276889	0.979462	1.811447
C	-0.591311	-1.689038	0.003247
H	0.343989	-1.689538	-0.536753
H	-0.122411	-2.224138	0.815847
H	-1.008211	-2.376238	-0.718153
H	2.383489	1.492062	-1.093853
$end

$rem
JOBTYPE		SP
EXCHANGE	HF
CORRELATION	pRIMP2
BASIS		cc-pvtz
METHOD		rimp2
AUX_BASIS	rimp2-cc-pvtz
SOLVENT_METHOD	PCM
PURECART	11111
SYMMETRY	false
MEM_TOTAL	110000
SCF_CONVERGENCE = 6
THRESH=10
GUI = 2
$end

$solvent
dielectric 4.90
$end
--------------------------------------------------------------

             Standard Nuclear Orientation (Angstroms)
    I     Atom           X                Y                Z
 ----------------------------------------------------------------
    1      C      -0.5913110000    -0.2389380000     0.0032470000
    2      C       0.1385890000     0.1860620000     1.1162470000
    3      C       1.3408890000     0.8855620000     0.8238470000
    4      H      -0.1968110000    -0.0091380000     2.1461470000
    5      C       1.5554890000     1.0102620000    -0.5603530000
    6      S       0.2473890000     0.2495620000    -1.4614530000
    7      C       2.2610890000     1.4209620000     1.8856470000
    8      H       1.8737890000     1.1957620000     2.8982470000
    9      H       2.3792890000     2.5222620000     1.8113470000
   10      H       3.2768890000     0.9794620000     1.8114470000
   11      C      -0.5913110000    -1.6890380000     0.0032470000
   12      H       0.3439890000    -1.6895380000    -0.5367530000
   13      H      -0.1224110000    -2.2241380000     0.8158470000
   14      H      -1.0082110000    -2.3762380000    -0.7181530000
   15      H       2.3834890000     1.4920620000    -1.0938530000
 ----------------------------------------------------------------

   10    -629.3472210366      8.01e-07  Convergence criterion met
 Total energy in the final basis set =     -629.3472210366
        RIMP2         total energy =      -630.5380651363 a.u.

                    Orbital Energies (a.u.)
 --------------------------------------------------------------

 Alpha MOs
 -- Occupied --
-91.9698 -11.2805 -11.2552 -11.2509 -11.2495 -11.2297 -11.2115  -8.9717
 -6.6525  -6.6517  -6.6514  -1.1781  -1.0590  -0.9966  -0.9401  -0.8796
 -0.7547  -0.7295  -0.6436  -0.5897  -0.5867  -0.5657  -0.5533  -0.5454
 -0.5123  -0.4927  -0.4608  -0.4296  -0.3388  -0.2912

          Ground-State Mulliken Net Atomic Charges

     Atom                 Charge (a.u.)
  ----------------------------------------
      1 C                    -0.069805
      2 C                    -0.158199
      3 C                    -0.008124
      4 H                     0.185736
      5 C                    -0.196691
      6 S                    -0.003648
      7 C                    -0.267544
      8 H                     0.102483
      9 H                     0.107890
     10 H                     0.105787
     11 C                    -0.367361
     12 H                     0.121602
     13 H                     0.124799
     14 H                     0.125179
     15 H                     0.197896
  ----------------------------------------
  Sum of atomic charges =     0.000000

                    Cartesian Multipole Moments
 -----------------------------------------------------------------
    Charge (ESU x 10^10)
                -0.0000
    Dipole Moment (Debye)
         X       2.7732      Y      -0.1072      Z       1.5920
       Tot       3.1995
    Quadrupole Moments (Debye-Ang)
        XX     -48.6782     XY       3.6236     YY     -49.9981
        XZ       0.1748     YZ       0.8624     ZZ     -47.8868

 Total job time:  16.35s(wall), 767.59s(cpu)
        *  Thank you very much for using Q-Chem.  Have a nice day.  *
