 Q-Chem 5.4, Q-Chem, Inc., Pleasanton, CA (2021)
 Q-Chem 5.4.0 for Intel X86 EM64T Linux

User input:
--------------------------------------------------------------
$molecule
0 1
C	-0.519954	-0.335659	0.005925
C	0.125046	0.209641	1.118925
C	1.187646	1.107341	0.826525
H	-0.171354	-0.040859	2.148825
C	1.377246	1.267341	-0.557675
S	0.221246	0.291041	-1.458775
C	2.000846	1.794341	1.888325
H	1.658646	1.505341	2.900925
H	1.926046	2.899441	1.814025
H	3.077846	1.535941	1.814125
C	-0.519954	-1.785759	0.005925
H	-0.332454	-1.786259	-1.057675
H	0.403946	-2.320859	0.169025
H	-1.340554	-2.472959	-0.138475
H	2.109046	1.885641	-1.091175
$end

$rem
JOBTYPE		SP
EXCHANGE	HF
CORRELATION	pRIMP2
BASIS		cc-pvtz
METHOD		rimp2
AUX_BASIS	rimp2-cc-pvtz
SOLVENT_METHOD	PCM
PURECART	11111
SYMMETRY	false
MEM_TOTAL	110000
SCF_CONVERGENCE = 6
THRESH=10
GUI = 2
$end

$solvent
dielectric 4.90
$end
--------------------------------------------------------------

             Standard Nuclear Orientation (Angstroms)
    I     Atom           X                Y                Z
 ----------------------------------------------------------------
    1      C      -0.5199540000    -0.3356590000     0.0059250000
    2      C       0.1250460000     0.2096410000     1.1189250000
    3      C       1.1876460000     1.1073410000     0.8265250000
    4      H      -0.1713540000    -0.0408590000     2.1488250000
    5      C       1.3772460000     1.2673410000    -0.5576750000
    6      S       0.2212460000     0.2910410000    -1.4587750000
    7      C       2.0008460000     1.7943410000     1.8883250000
    8      H       1.6586460000     1.5053410000     2.9009250000
    9      H       1.9260460000     2.8994410000     1.8140250000
   10      H       3.0778460000     1.5359410000     1.8141250000
   11      C      -0.5199540000    -1.7857590000     0.0059250000
   12      H      -0.3324540000    -1.7862590000    -1.0576750000
   13      H       0.4039460000    -2.3208590000     0.1690250000
   14      H      -1.3405540000    -2.4729590000    -0.1384750000
   15      H       2.1090460000     1.8856410000    -1.0911750000
 ----------------------------------------------------------------

   10    -629.3689501546      8.52e-07  Convergence criterion met
 Total energy in the final basis set =     -629.3689501546
        RIMP2         total energy =      -630.5566038016 a.u.

                    Orbital Energies (a.u.)
 --------------------------------------------------------------

 Alpha MOs
 -- Occupied --
-91.9750 -11.2752 -11.2540 -11.2477 -11.2448 -11.2283 -11.2091  -8.9760
 -6.6568  -6.6561  -6.6557  -1.1699  -1.0555  -0.9941  -0.9438  -0.8796
 -0.7533  -0.7245  -0.6437  -0.5906  -0.5793  -0.5661  -0.5510  -0.5469
 -0.5155  -0.4675  -0.4641  -0.4392  -0.3322  -0.3051

          Ground-State Mulliken Net Atomic Charges

     Atom                 Charge (a.u.)
  ----------------------------------------
      1 C                    -0.061811
      2 C                    -0.170878
      3 C                     0.012027
      4 H                     0.179644
      5 C                    -0.211865
      6 S                     0.002088
      7 C                    -0.268923
      8 H                     0.102140
      9 H                     0.107024
     10 H                     0.104650
     11 C                    -0.366519
     12 H                     0.121851
     13 H                     0.126208
     14 H                     0.126516
     15 H                     0.197847
  ----------------------------------------
  Sum of atomic charges =     0.000000

                    Cartesian Multipole Moments
 -----------------------------------------------------------------
    Charge (ESU x 10^10)
                -0.0000
    Dipole Moment (Debye)
         X       1.9654      Y       0.2393      Z       1.1004
       Tot       2.2652
    Quadrupole Moments (Debye-Ang)
        XX     -49.2537     XY       4.4605     YY     -48.3679
        XZ       0.2512     YZ       1.2789     ZZ     -48.1839

 Total job time:  16.01s(wall), 758.68s(cpu)
        *  Thank you very much for using Q-Chem.  Have a nice day.  *
