 Q-Chem 5.4, Q-Chem, Inc., Pleasanton, CA (2021)
 Q-Chem 5.4.0 for Intel X86 EM64T Linux

User input:
--------------------------------------------------------------
$molecule
0 1
C	0.001927	-0.576386	0.006080
C	-0.001173	0.268214	1.119080
C	-0.005873	1.659214	0.826680
H	0.000227	-0.119886	2.148980
C	-0.006473	1.907314	-0.557520
S	-0.001773	0.394214	-1.458620
C	-0.009473	2.723814	1.888480
H	-0.007973	2.275814	2.901080
H	-0.903973	3.376814	1.814180
H	0.880827	3.382714	1.814280
C	0.001927	-2.026486	0.006080
H	0.001927	-2.026986	-1.073920
H	0.940027	-2.561586	0.006280
H	-0.831273	-2.713686	0.006380
H	-0.009773	2.865414	-1.091020
$end

$rem
JOBTYPE		SP
EXCHANGE	HF
CORRELATION	pRIMP2
BASIS		cc-pvtz
METHOD		rimp2
AUX_BASIS	rimp2-cc-pvtz
SOLVENT_METHOD	PCM
PURECART	11111
SYMMETRY	false
MEM_TOTAL	110000
SCF_CONVERGENCE = 6
THRESH=10
GUI = 2
$end

$solvent
dielectric 4.90
$end
--------------------------------------------------------------

             Standard Nuclear Orientation (Angstroms)
    I     Atom           X                Y                Z
 ----------------------------------------------------------------
    1      C       0.0019270000    -0.5763860000     0.0060800000
    2      C      -0.0011730000     0.2682140000     1.1190800000
    3      C      -0.0058730000     1.6592140000     0.8266800000
    4      H       0.0002270000    -0.1198860000     2.1489800000
    5      C      -0.0064730000     1.9073140000    -0.5575200000
    6      S      -0.0017730000     0.3942140000    -1.4586200000
    7      C      -0.0094730000     2.7238140000     1.8884800000
    8      H      -0.0079730000     2.2758140000     2.9010800000
    9      H      -0.9039730000     3.3768140000     1.8141800000
   10      H       0.8808270000     3.3827140000     1.8142800000
   11      C       0.0019270000    -2.0264860000     0.0060800000
   12      H       0.0019270000    -2.0269860000    -1.0739200000
   13      H       0.9400270000    -2.5615860000     0.0062800000
   14      H      -0.8312730000    -2.7136860000     0.0063800000
   15      H      -0.0097730000     2.8654140000    -1.0910200000
 ----------------------------------------------------------------

   10    -629.4218770162      5.36e-07  Convergence criterion met
 Total energy in the final basis set =     -629.4218770162
        RIMP2         total energy =      -630.5994096772 a.u.

                    Orbital Energies (a.u.)
 --------------------------------------------------------------

 Alpha MOs
 -- Occupied --
-91.9812 -11.2751 -11.2584 -11.2472 -11.2287 -11.2270 -11.2168  -8.9810
 -6.6619  -6.6614  -6.6608  -1.1606  -1.0534  -0.9952  -0.9457  -0.8828
 -0.7477  -0.7182  -0.6473  -0.5908  -0.5753  -0.5660  -0.5535  -0.5463
 -0.5086  -0.4866  -0.4650  -0.4444  -0.3380  -0.3050

          Ground-State Mulliken Net Atomic Charges

     Atom                 Charge (a.u.)
  ----------------------------------------
      1 C                     0.052103
      2 C                    -0.259080
      3 C                     0.038448
      4 H                     0.179380
      5 C                    -0.259740
      6 S                    -0.002169
      7 C                    -0.273309
      8 H                     0.102102
      9 H                     0.106891
     10 H                     0.106851
     11 C                    -0.368220
     12 H                     0.111830
     13 H                     0.127349
     14 H                     0.141538
     15 H                     0.196025
  ----------------------------------------
  Sum of atomic charges =     0.000000

                    Cartesian Multipole Moments
 -----------------------------------------------------------------
    Charge (ESU x 10^10)
                -0.0000
    Dipole Moment (Debye)
         X       0.0086      Y       0.0345      Z       0.8613
       Tot       0.8620
    Quadrupole Moments (Debye-Ang)
        XX     -53.6848     XY       0.0550     YY     -42.1153
        XZ       0.0102     YZ       1.5871     ZZ     -48.8640

 Total job time:  16.71s(wall), 756.32s(cpu)
        *  Thank you very much for using Q-Chem.  Have a nice day.  *
