 Q-Chem 5.4, Q-Chem, Inc., Pleasanton, CA (2021)
 Q-Chem 5.4.0 for Intel X86 EM64T Linux

User input:
--------------------------------------------------------------
$molecule
0 1
C	-0.115082	-0.566489	-0.003619
C	0.028518	0.265811	1.109381
C	0.265418	1.636511	0.816981
H	-0.037482	-0.116589	2.139281
C	0.307918	1.881011	-0.567219
S	0.049818	0.390011	-1.468319
C	0.446818	2.685511	1.878781
H	0.370418	2.244111	2.891381
H	-0.320782	3.484011	1.804481
H	1.437918	3.179911	1.804581
C	-0.115082	-2.016589	-0.003619
H	-0.115082	-2.017089	1.076381
H	-1.053182	-2.551689	-0.003819
H	0.718118	-2.703789	-0.003919
H	0.471018	2.825011	-1.100719
$end

$rem
JOBTYPE		SP
EXCHANGE	HF
CORRELATION	pRIMP2
BASIS		cc-pvtz
METHOD		rimp2
AUX_BASIS	rimp2-cc-pvtz
SOLVENT_METHOD	PCM
PURECART	11111
SYMMETRY	false
MEM_TOTAL	110000
SCF_CONVERGENCE = 6
THRESH=10
GUI = 2
$end

$solvent
dielectric 4.90
$end
--------------------------------------------------------------

             Standard Nuclear Orientation (Angstroms)
    I     Atom           X                Y                Z
 ----------------------------------------------------------------
    1      C      -0.1150820000    -0.5664890000    -0.0036190000
    2      C       0.0285180000     0.2658110000     1.1093810000
    3      C       0.2654180000     1.6365110000     0.8169810000
    4      H      -0.0374820000    -0.1165890000     2.1392810000
    5      C       0.3079180000     1.8810110000    -0.5672190000
    6      S       0.0498180000     0.3900110000    -1.4683190000
    7      C       0.4468180000     2.6855110000     1.8787810000
    8      H       0.3704180000     2.2441110000     2.8913810000
    9      H      -0.3207820000     3.4840110000     1.8044810000
   10      H       1.4379180000     3.1799110000     1.8045810000
   11      C      -0.1150820000    -2.0165890000    -0.0036190000
   12      H      -0.1150820000    -2.0170890000     1.0763810000
   13      H      -1.0531820000    -2.5516890000    -0.0038190000
   14      H       0.7181180000    -2.7037890000    -0.0039190000
   15      H       0.4710180000     2.8250110000    -1.1007190000
 ----------------------------------------------------------------

   10    -629.4241210614      4.84e-07  Convergence criterion met
 Total energy in the final basis set =     -629.4241210614
        RIMP2         total energy =      -630.6021534454 a.u.

                    Orbital Energies (a.u.)
 --------------------------------------------------------------

 Alpha MOs
 -- Occupied --
-91.9753 -11.2768 -11.2587 -11.2472 -11.2345 -11.2277 -11.2168  -8.9754
 -6.6563  -6.6558  -6.6553  -1.1611  -1.0524  -0.9997  -0.9388  -0.8855
 -0.7425  -0.7241  -0.6477  -0.5905  -0.5782  -0.5671  -0.5586  -0.5410
 -0.5107  -0.4844  -0.4678  -0.4381  -0.3377  -0.3054

          Ground-State Mulliken Net Atomic Charges

     Atom                 Charge (a.u.)
  ----------------------------------------
      1 C                     0.053048
      2 C                    -0.266616
      3 C                     0.032046
      4 H                     0.176335
      5 C                    -0.249236
      6 S                    -0.007091
      7 C                    -0.273131
      8 H                     0.101241
      9 H                     0.107142
     10 H                     0.107345
     11 C                    -0.364935
     12 H                     0.119342
     13 H                     0.129044
     14 H                     0.141556
     15 H                     0.193911
  ----------------------------------------
  Sum of atomic charges =     0.000000

                    Cartesian Multipole Moments
 -----------------------------------------------------------------
    Charge (ESU x 10^10)
                -0.0000
    Dipole Moment (Debye)
         X       0.2490      Y      -0.0318      Z       2.1702
       Tot       2.1847
    Quadrupole Moments (Debye-Ang)
        XX     -53.4476     XY       1.3931     YY     -42.4164
        XZ      -0.0197     YZ      -1.0283     ZZ     -48.9815

 Total job time:  21.54s(wall), 776.77s(cpu)
        *  Thank you very much for using Q-Chem.  Have a nice day.  *
