 Q-Chem 5.4, Q-Chem, Inc., Pleasanton, CA (2021)
 Q-Chem 5.4.0 for Intel X86 EM64T Linux

User input:
--------------------------------------------------------------
$molecule
0 1
C	-0.177867	-0.553870	0.003247
C	0.037733	0.262730	1.116247
C	0.393233	1.607530	0.823847
H	-0.061367	-0.112470	2.146147
C	0.456833	1.847430	-0.560353
S	0.069733	0.384630	-1.461453
C	0.665333	2.636830	1.885647
H	0.550733	2.203730	2.898247
H	-0.029767	3.499130	1.811347
H	1.695833	3.042930	1.811447
C	-0.177867	-2.003970	0.003247
H	0.757433	-2.004470	-0.536753
H	0.291033	-2.539070	0.815847
H	-0.594767	-2.691170	-0.718153
H	0.701633	2.773630	-1.093853
$end

$rem
JOBTYPE		SP
EXCHANGE	HF
CORRELATION	pRIMP2
BASIS		cc-pvtz
METHOD		rimp2
AUX_BASIS	rimp2-cc-pvtz
SOLVENT_METHOD	PCM
PURECART	11111
SYMMETRY	false
MEM_TOTAL	110000
SCF_CONVERGENCE = 6
THRESH=10
GUI = 2
$end

$solvent
dielectric 4.90
$end
--------------------------------------------------------------

             Standard Nuclear Orientation (Angstroms)
    I     Atom           X                Y                Z
 ----------------------------------------------------------------
    1      C      -0.1778670000    -0.5538700000     0.0032470000
    2      C       0.0377330000     0.2627300000     1.1162470000
    3      C       0.3932330000     1.6075300000     0.8238470000
    4      H      -0.0613670000    -0.1124700000     2.1461470000
    5      C       0.4568330000     1.8474300000    -0.5603530000
    6      S       0.0697330000     0.3846300000    -1.4614530000
    7      C       0.6653330000     2.6368300000     1.8856470000
    8      H       0.5507330000     2.2037300000     2.8982470000
    9      H      -0.0297670000     3.4991300000     1.8113470000
   10      H       1.6958330000     3.0429300000     1.8114470000
   11      C      -0.1778670000    -2.0039700000     0.0032470000
   12      H       0.7574330000    -2.0044700000    -0.5367530000
   13      H       0.2910330000    -2.5390700000     0.8158470000
   14      H      -0.5947670000    -2.6911700000    -0.7181530000
   15      H       0.7016330000     2.7736300000    -1.0938530000
 ----------------------------------------------------------------

   10    -629.4226833945      6.64e-07  Convergence criterion met
 Total energy in the final basis set =     -629.4226833945
        RIMP2         total energy =      -630.5985665227 a.u.

                    Orbital Energies (a.u.)
 --------------------------------------------------------------

 Alpha MOs
 -- Occupied --
-91.9772 -11.2827 -11.2531 -11.2471 -11.2269 -11.2261 -11.2215  -8.9773
 -6.6583  -6.6578  -6.6571  -1.1613  -1.0547  -0.9960  -0.9429  -0.8829
 -0.7457  -0.7185  -0.6466  -0.5898  -0.5773  -0.5666  -0.5505  -0.5467
 -0.5072  -0.4941  -0.4652  -0.4535  -0.3392  -0.2929

          Ground-State Mulliken Net Atomic Charges

     Atom                 Charge (a.u.)
  ----------------------------------------
      1 C                     0.057847
      2 C                    -0.313049
      3 C                     0.057062
      4 H                     0.178921
      5 C                    -0.270569
      6 S                    -0.004624
      7 C                    -0.271842
      8 H                     0.101515
      9 H                     0.107534
     10 H                     0.107213
     11 C                    -0.373023
     12 H                     0.136273
     13 H                     0.141040
     14 H                     0.152155
     15 H                     0.193547
  ----------------------------------------
  Sum of atomic charges =     0.000000

                    Cartesian Multipole Moments
 -----------------------------------------------------------------
    Charge (ESU x 10^10)
                -0.0000
    Dipole Moment (Debye)
         X       0.9363      Y      -0.5208      Z       1.1367
       Tot       1.5620
    Quadrupole Moments (Debye-Ang)
        XX     -53.9180     XY       0.9656     YY     -42.3993
        XZ       0.4081     YZ       1.1809     ZZ     -48.6545

 Total job time:  16.17s(wall), 771.11s(cpu)
        *  Thank you very much for using Q-Chem.  Have a nice day.  *
