 Q-Chem 5.4, Q-Chem, Inc., Pleasanton, CA (2021)
 Q-Chem 5.4.0 for Intel X86 EM64T Linux

User input:
--------------------------------------------------------------
$molecule
0 1
C	-0.226592	-0.536244	0.004709
C	0.059408	0.258456	1.117709
C	0.530708	1.567156	0.825309
H	-0.072092	-0.106644	2.147609
C	0.615008	1.800556	-0.558891
S	0.101908	0.377056	-1.459991
C	0.891508	2.568756	1.887109
H	0.739608	2.147356	2.899709
H	0.274208	3.488456	1.812809
H	1.953408	2.883556	1.812909
C	-0.226592	-1.986344	0.004709
H	-1.053892	-1.986844	-0.689491
H	0.376608	-2.521444	-0.713791
H	-0.761892	-2.673544	0.643209
H	0.939508	2.701956	-1.092391
$end

$rem
JOBTYPE		SP
EXCHANGE	HF
CORRELATION	pRIMP2
BASIS		cc-pvtz
METHOD		rimp2
AUX_BASIS	rimp2-cc-pvtz
SOLVENT_METHOD	PCM
PURECART	11111
SYMMETRY	false
MEM_TOTAL	110000
SCF_CONVERGENCE = 6
THRESH=10
GUI = 2
$end

$solvent
dielectric 4.90
$end
--------------------------------------------------------------

             Standard Nuclear Orientation (Angstroms)
    I     Atom           X                Y                Z
 ----------------------------------------------------------------
    1      C      -0.2265920000    -0.5362440000     0.0047090000
    2      C       0.0594080000     0.2584560000     1.1177090000
    3      C       0.5307080000     1.5671560000     0.8253090000
    4      H      -0.0720920000    -0.1066440000     2.1476090000
    5      C       0.6150080000     1.8005560000    -0.5588910000
    6      S       0.1019080000     0.3770560000    -1.4599910000
    7      C       0.8915080000     2.5687560000     1.8871090000
    8      H       0.7396080000     2.1473560000     2.8997090000
    9      H       0.2742080000     3.4884560000     1.8128090000
   10      H       1.9534080000     2.8835560000     1.8129090000
   11      C      -0.2265920000    -1.9863440000     0.0047090000
   12      H      -1.0538920000    -1.9868440000    -0.6894910000
   13      H       0.3766080000    -2.5214440000    -0.7137910000
   14      H      -0.7618920000    -2.6735440000     0.6432090000
   15      H       0.9395080000     2.7019560000    -1.0923910000
 ----------------------------------------------------------------

   10    -629.4139560343      5.54e-07  Convergence criterion met
 Total energy in the final basis set =     -629.4139560343
        RIMP2         total energy =      -630.5921116222 a.u.

                    Orbital Energies (a.u.)
 --------------------------------------------------------------

 Alpha MOs
 -- Occupied --
-91.9797 -11.2768 -11.2566 -11.2472 -11.2273 -11.2268 -11.2176  -8.9796
 -6.6605  -6.6600  -6.6594  -1.1609  -1.0534  -0.9955  -0.9441  -0.8830
 -0.7462  -0.7186  -0.6464  -0.5891  -0.5742  -0.5672  -0.5528  -0.5456
 -0.5097  -0.4886  -0.4627  -0.4517  -0.3383  -0.2948

          Ground-State Mulliken Net Atomic Charges

     Atom                 Charge (a.u.)
  ----------------------------------------
      1 C                     0.010480
      2 C                    -0.248340
      3 C                     0.032017
      4 H                     0.179605
      5 C                    -0.252975
      6 S                    -0.004413
      7 C                    -0.272795
      8 H                     0.101635
      9 H                     0.107019
     10 H                     0.106741
     11 C                    -0.372317
     12 H                     0.122924
     13 H                     0.137304
     14 H                     0.157893
     15 H                     0.195222
  ----------------------------------------
  Sum of atomic charges =     0.000000

                    Cartesian Multipole Moments
 -----------------------------------------------------------------
    Charge (ESU x 10^10)
                -0.0000
    Dipole Moment (Debye)
         X      -0.0186      Y      -0.2416      Z       1.0633
       Tot       1.0906
    Quadrupole Moments (Debye-Ang)
        XX     -52.9675     XY       4.0496     YY     -43.0255
        XZ      -0.1929     YZ       1.0127     ZZ     -48.6200

 Total job time:  18.08s(wall), 743.49s(cpu)
        *  Thank you very much for using Q-Chem.  Have a nice day.  *
