 Q-Chem 5.4, Q-Chem, Inc., Pleasanton, CA (2021)
 Q-Chem 5.4.0 for Intel X86 EM64T Linux

User input:
--------------------------------------------------------------
$molecule
0 1
C	0.007256	-0.576386	0.000852
C	0.004156	0.268214	1.113852
C	-0.000544	1.659214	0.821452
H	0.005556	-0.119886	2.143752
C	-0.001144	1.907314	-0.562748
S	0.003556	0.394214	-1.463848
C	-0.004144	2.723814	1.883252
H	-0.002644	2.275814	2.895852
H	-0.898644	3.376814	1.808952
H	0.886156	3.382714	1.809052
C	0.007256	-2.026486	0.000852
H	-1.056344	-2.026986	0.188452
H	-0.155444	-2.561586	-0.923048
H	0.152256	-2.713686	0.821352
H	-0.004444	2.865414	-1.096248
$end

$rem
JOBTYPE		SP
EXCHANGE	HF
CORRELATION	pRIMP2
BASIS		cc-pvtz
METHOD		rimp2
AUX_BASIS	rimp2-cc-pvtz
SOLVENT_METHOD	PCM
PURECART	11111
SYMMETRY	false
MEM_TOTAL	110000
SCF_CONVERGENCE = 6
THRESH=10
GUI = 2
$end

$solvent
dielectric 4.90
$end
--------------------------------------------------------------

             Standard Nuclear Orientation (Angstroms)
    I     Atom           X                Y                Z
 ----------------------------------------------------------------
    1      C       0.0072560000    -0.5763860000     0.0008520000
    2      C       0.0041560000     0.2682140000     1.1138520000
    3      C      -0.0005440000     1.6592140000     0.8214520000
    4      H       0.0055560000    -0.1198860000     2.1437520000
    5      C      -0.0011440000     1.9073140000    -0.5627480000
    6      S       0.0035560000     0.3942140000    -1.4638480000
    7      C      -0.0041440000     2.7238140000     1.8832520000
    8      H      -0.0026440000     2.2758140000     2.8958520000
    9      H      -0.8986440000     3.3768140000     1.8089520000
   10      H       0.8861560000     3.3827140000     1.8090520000
   11      C       0.0072560000    -2.0264860000     0.0008520000
   12      H      -1.0563440000    -2.0269860000     0.1884520000
   13      H      -0.1554440000    -2.5615860000    -0.9230480000
   14      H       0.1522560000    -2.7136860000     0.8213520000
   15      H      -0.0044440000     2.8654140000    -1.0962480000
 ----------------------------------------------------------------

   10    -629.4253477035      6.80e-07  Convergence criterion met
 Total energy in the final basis set =     -629.4253477035
        RIMP2         total energy =      -630.6004541591 a.u.

                    Orbital Energies (a.u.)
 --------------------------------------------------------------

 Alpha MOs
 -- Occupied --
-91.9796 -11.2858 -11.2489 -11.2471 -11.2265 -11.2228 -11.2219  -8.9792
 -6.6602  -6.6597  -6.6590  -1.1598  -1.0545  -0.9974  -0.9412  -0.8838
 -0.7433  -0.7184  -0.6486  -0.5870  -0.5734  -0.5672  -0.5555  -0.5451
 -0.5071  -0.4955  -0.4660  -0.4565  -0.3379  -0.2895

          Ground-State Mulliken Net Atomic Charges

     Atom                 Charge (a.u.)
  ----------------------------------------
      1 C                     0.061742
      2 C                    -0.306347
      3 C                     0.049241
      4 H                     0.173943
      5 C                    -0.280911
      6 S                     0.004507
      7 C                    -0.274599
      8 H                     0.101508
      9 H                     0.107393
     10 H                     0.107214
     11 C                    -0.384019
     12 H                     0.144167
     13 H                     0.139976
     14 H                     0.162883
     15 H                     0.193302
  ----------------------------------------
  Sum of atomic charges =     0.000000

                    Cartesian Multipole Moments
 -----------------------------------------------------------------
    Charge (ESU x 10^10)
                -0.0000
    Dipole Moment (Debye)
         X      -0.7383      Y      -0.7474      Z       1.5101
       Tot       1.8396
    Quadrupole Moments (Debye-Ang)
        XX     -54.4031     XY       1.5142     YY     -41.6979
        XZ       0.0686     YZ       0.0475     ZZ     -48.5612

 Total job time:  15.84s(wall), 764.52s(cpu)
        *  Thank you very much for using Q-Chem.  Have a nice day.  *
