 Q-Chem 5.4, Q-Chem, Inc., Pleasanton, CA (2021)
 Q-Chem 5.4.0 for Intel X86 EM64T Linux

User input:
--------------------------------------------------------------
$molecule
0 1
C	-0.582440	-0.238938	-0.000785
C	0.147460	0.186062	1.112215
C	1.349760	0.885562	0.819815
H	-0.187940	-0.009138	2.142115
C	1.564360	1.010262	-0.564385
S	0.256260	0.249562	-1.465485
C	2.269960	1.420962	1.881615
H	1.882660	1.195762	2.894215
H	2.388160	2.522262	1.807315
H	3.285760	0.979462	1.807415
C	-0.582440	-1.689038	-0.000785
H	-1.517740	-1.689538	0.539215
H	-1.051340	-2.224138	-0.813385
H	-0.165540	-2.376238	0.720615
H	2.392360	1.492062	-1.097885
$end

$rem
JOBTYPE		SP
EXCHANGE	HF
CORRELATION	pRIMP2
BASIS		cc-pvtz
METHOD		rimp2
AUX_BASIS	rimp2-cc-pvtz
SOLVENT_METHOD	PCM
PURECART	11111
SYMMETRY	false
MEM_TOTAL	110000
SCF_CONVERGENCE = 6
THRESH=10
GUI = 2
$end

$solvent
dielectric 4.90
$end
--------------------------------------------------------------

             Standard Nuclear Orientation (Angstroms)
    I     Atom           X                Y                Z
 ----------------------------------------------------------------
    1      C      -0.5824400000    -0.2389380000    -0.0007850000
    2      C       0.1474600000     0.1860620000     1.1122150000
    3      C       1.3497600000     0.8855620000     0.8198150000
    4      H      -0.1879400000    -0.0091380000     2.1421150000
    5      C       1.5643600000     1.0102620000    -0.5643850000
    6      S       0.2562600000     0.2495620000    -1.4654850000
    7      C       2.2699600000     1.4209620000     1.8816150000
    8      H       1.8826600000     1.1957620000     2.8942150000
    9      H       2.3881600000     2.5222620000     1.8073150000
   10      H       3.2857600000     0.9794620000     1.8074150000
   11      C      -0.5824400000    -1.6890380000    -0.0007850000
   12      H      -1.5177400000    -1.6895380000     0.5392150000
   13      H      -1.0513400000    -2.2241380000    -0.8133850000
   14      H      -0.1655400000    -2.3762380000     0.7206150000
   15      H       2.3923600000     1.4920620000    -1.0978850000
 ----------------------------------------------------------------

   11    -629.3457070918      5.42e-07  Convergence criterion met
 Total energy in the final basis set =     -629.3457070918
        RIMP2         total energy =      -630.5373451195 a.u.

                    Orbital Energies (a.u.)
 --------------------------------------------------------------

 Alpha MOs
 -- Occupied --
-91.9708 -11.2818 -11.2540 -11.2495 -11.2419 -11.2292 -11.2071  -8.9719
 -6.6527  -6.6517  -6.6516  -1.1716  -1.0537  -0.9984  -0.9369  -0.8836
 -0.7491  -0.7308  -0.6434  -0.5862  -0.5806  -0.5650  -0.5532  -0.5419
 -0.5193  -0.4893  -0.4592  -0.4164  -0.3355  -0.2916

          Ground-State Mulliken Net Atomic Charges

     Atom                 Charge (a.u.)
  ----------------------------------------
      1 C                    -0.108864
      2 C                    -0.126133
      3 C                    -0.020034
      4 H                     0.184206
      5 C                    -0.179294
      6 S                     0.012445
      7 C                    -0.268271
      8 H                     0.101957
      9 H                     0.106783
     10 H                     0.105000
     11 C                    -0.395108
     12 H                     0.121427
     13 H                     0.126340
     14 H                     0.143472
     15 H                     0.196073
  ----------------------------------------
  Sum of atomic charges =     0.000000

                    Cartesian Multipole Moments
 -----------------------------------------------------------------
    Charge (ESU x 10^10)
                -0.0000
    Dipole Moment (Debye)
         X       1.9025      Y       0.1265      Z       2.1020
       Tot       2.8380
    Quadrupole Moments (Debye-Ang)
        XX     -47.6590     XY       5.2235     YY     -50.0237
        XZ      -0.0407     YZ      -0.4013     ZZ     -47.7499

 Total job time:  17.44s(wall), 828.66s(cpu)
        *  Thank you very much for using Q-Chem.  Have a nice day.  *
