 Q-Chem 5.4, Q-Chem, Inc., Pleasanton, CA (2021)
 Q-Chem 5.4.0 for Intel X86 EM64T Linux

User input:
--------------------------------------------------------------
$molecule
0 1
C	-0.288834	-0.513776	0.003987
C	0.065366	0.253024	1.116987
C	0.648966	1.515624	0.824587
H	-0.097534	-0.099276	2.146887
C	0.753166	1.740824	-0.559613
S	0.118066	0.367424	-1.460713
C	1.095566	2.482024	1.886387
H	0.907566	2.075424	2.898987
H	0.560766	3.451924	1.812087
H	2.180966	2.703024	1.812187
C	-0.288834	-1.963876	0.003987
H	0.538466	-1.964376	-0.690213
H	0.314066	-2.498976	0.722787
H	-0.824634	-2.651076	-0.634113
H	1.155066	2.610424	-1.093113
$end

$rem
JOBTYPE		SP
EXCHANGE	HF
CORRELATION	pRIMP2
BASIS		cc-pvtz
METHOD		rimp2
AUX_BASIS	rimp2-cc-pvtz
SOLVENT_METHOD	PCM
PURECART	11111
SYMMETRY	false
MEM_TOTAL	110000
SCF_CONVERGENCE = 6
THRESH=10
GUI = 2
$end

$solvent
dielectric 4.90
$end
--------------------------------------------------------------

             Standard Nuclear Orientation (Angstroms)
    I     Atom           X                Y                Z
 ----------------------------------------------------------------
    1      C      -0.2888340000    -0.5137760000     0.0039870000
    2      C       0.0653660000     0.2530240000     1.1169870000
    3      C       0.6489660000     1.5156240000     0.8245870000
    4      H      -0.0975340000    -0.0992760000     2.1468870000
    5      C       0.7531660000     1.7408240000    -0.5596130000
    6      S       0.1180660000     0.3674240000    -1.4607130000
    7      C       1.0955660000     2.4820240000     1.8863870000
    8      H       0.9075660000     2.0754240000     2.8989870000
    9      H       0.5607660000     3.4519240000     1.8120870000
   10      H       2.1809660000     2.7030240000     1.8121870000
   11      C      -0.2888340000    -1.9638760000     0.0039870000
   12      H       0.5384660000    -1.9643760000    -0.6902130000
   13      H       0.3140660000    -2.4989760000     0.7227870000
   14      H      -0.8246340000    -2.6510760000    -0.6341130000
   15      H       1.1550660000     2.6104240000    -1.0931130000
 ----------------------------------------------------------------

   10    -629.4135694549      6.33e-07  Convergence criterion met
 Total energy in the final basis set =     -629.4135694549
        RIMP2         total energy =      -630.5917596449 a.u.

                    Orbital Energies (a.u.)
 --------------------------------------------------------------

 Alpha MOs
 -- Occupied --
-91.9760 -11.2782 -11.2570 -11.2473 -11.2297 -11.2272 -11.2187  -8.9764
 -6.6574  -6.6568  -6.6562  -1.1628  -1.0547  -0.9952  -0.9431  -0.8822
 -0.7470  -0.7195  -0.6457  -0.5896  -0.5782  -0.5656  -0.5509  -0.5467
 -0.5086  -0.4915  -0.4632  -0.4503  -0.3392  -0.2947

          Ground-State Mulliken Net Atomic Charges

     Atom                 Charge (a.u.)
  ----------------------------------------
      1 C                     0.046617
      2 C                    -0.303369
      3 C                     0.055269
      4 H                     0.178948
      5 C                    -0.259950
      6 S                    -0.004998
      7 C                    -0.270585
      8 H                     0.101684
      9 H                     0.107702
     10 H                     0.106779
     11 C                    -0.373385
     12 H                     0.134957
     13 H                     0.140389
     14 H                     0.146292
     15 H                     0.193651
  ----------------------------------------
  Sum of atomic charges =     0.000000

                    Cartesian Multipole Moments
 -----------------------------------------------------------------
    Charge (ESU x 10^10)
                -0.0000
    Dipole Moment (Debye)
         X       1.1457      Y      -0.3270      Z       1.1132
       Tot       1.6306
    Quadrupole Moments (Debye-Ang)
        XX     -52.9802     XY       2.3588     YY     -43.7094
        XZ       0.4989     YZ       1.2829     ZZ     -48.6132

 Total job time:  18.79s(wall), 727.80s(cpu)
        *  Thank you very much for using Q-Chem.  Have a nice day.  *
