 Q-Chem 5.4, Q-Chem, Inc., Pleasanton, CA (2021)
 Q-Chem 5.4.0 for Intel X86 EM64T Linux

User input:
--------------------------------------------------------------
$molecule
0 1
C	0.005154	-0.576386	0.005249
C	0.002054	0.268214	1.118249
C	-0.002646	1.659214	0.825849
H	0.003454	-0.119886	2.148149
C	-0.003246	1.907314	-0.558351
S	0.001454	0.394214	-1.459451
C	-0.006246	2.723814	1.887649
H	-0.004746	2.275814	2.900249
H	-0.900746	3.376814	1.813349
H	0.884054	3.382714	1.813449
C	0.005154	-2.026486	0.005249
H	-0.689046	-2.026986	-0.822051
H	0.723954	-2.561586	-0.597651
H	-0.632946	-2.713686	0.541049
H	-0.006546	2.865414	-1.091851
$end

$rem
JOBTYPE		SP
EXCHANGE	HF
CORRELATION	pRIMP2
BASIS		cc-pvtz
METHOD		rimp2
AUX_BASIS	rimp2-cc-pvtz
SOLVENT_METHOD	PCM
PURECART	11111
SYMMETRY	false
MEM_TOTAL	110000
SCF_CONVERGENCE = 6
THRESH=10
GUI = 2
$end

$solvent
dielectric 4.90
$end
--------------------------------------------------------------

             Standard Nuclear Orientation (Angstroms)
    I     Atom           X                Y                Z
 ----------------------------------------------------------------
    1      C       0.0051540000    -0.5763860000     0.0052490000
    2      C       0.0020540000     0.2682140000     1.1182490000
    3      C      -0.0026460000     1.6592140000     0.8258490000
    4      H       0.0034540000    -0.1198860000     2.1481490000
    5      C      -0.0032460000     1.9073140000    -0.5583510000
    6      S       0.0014540000     0.3942140000    -1.4594510000
    7      C      -0.0062460000     2.7238140000     1.8876490000
    8      H      -0.0047460000     2.2758140000     2.9002490000
    9      H      -0.9007460000     3.3768140000     1.8133490000
   10      H       0.8840540000     3.3827140000     1.8134490000
   11      C       0.0051540000    -2.0264860000     0.0052490000
   12      H      -0.6890460000    -2.0269860000    -0.8220510000
   13      H       0.7239540000    -2.5615860000    -0.5976510000
   14      H      -0.6329460000    -2.7136860000     0.5410490000
   15      H      -0.0065460000     2.8654140000    -1.0918510000
 ----------------------------------------------------------------

   10    -629.4233900553      6.03e-07  Convergence criterion met
 Total energy in the final basis set =     -629.4233900553
        RIMP2         total energy =      -630.5995211316 a.u.

                    Orbital Energies (a.u.)
 --------------------------------------------------------------

 Alpha MOs
 -- Occupied --
-91.9799 -11.2795 -11.2551 -11.2470 -11.2267 -11.2263 -11.2190  -8.9797
 -6.6607  -6.6602  -6.6595  -1.1603  -1.0539  -0.9956  -0.9448  -0.8829
 -0.7464  -0.7179  -0.6477  -0.5898  -0.5752  -0.5654  -0.5534  -0.5462
 -0.5081  -0.4899  -0.4653  -0.4507  -0.3388  -0.2977

          Ground-State Mulliken Net Atomic Charges

     Atom                 Charge (a.u.)
  ----------------------------------------
      1 C                     0.048873
      2 C                    -0.274620
      3 C                     0.039570
      4 H                     0.180138
      5 C                    -0.261420
      6 S                    -0.003581
      7 C                    -0.273434
      8 H                     0.101759
      9 H                     0.107084
     10 H                     0.107206
     11 C                    -0.373210
     12 H                     0.120519
     13 H                     0.130313
     14 H                     0.155691
     15 H                     0.195115
  ----------------------------------------
  Sum of atomic charges =     0.000000

                    Cartesian Multipole Moments
 -----------------------------------------------------------------
    Charge (ESU x 10^10)
                -0.0000
    Dipole Moment (Debye)
         X      -0.4350      Y      -0.2632      Z       0.9511
       Tot       1.0785
    Quadrupole Moments (Debye-Ang)
        XX     -54.0013     XY       1.0197     YY     -41.8849
        XZ      -0.3229     YZ       1.3170     ZZ     -48.7577

 Total job time:  19.57s(wall), 753.99s(cpu)
        *  Thank you very much for using Q-Chem.  Have a nice day.  *
