 Q-Chem 5.4, Q-Chem, Inc., Pleasanton, CA (2021)
 Q-Chem 5.4.0 for Intel X86 EM64T Linux

User input:
--------------------------------------------------------------
$molecule
0 1
C	-0.119571	-0.566489	0.003987
C	0.024029	0.265811	1.116987
C	0.260929	1.636511	0.824587
H	-0.041971	-0.116589	2.146887
C	0.303429	1.881011	-0.559613
S	0.045329	0.390011	-1.460713
C	0.442329	2.685511	1.886387
H	0.365929	2.244111	2.898987
H	-0.325271	3.484011	1.812087
H	1.433429	3.179911	1.812187
C	-0.119571	-2.016589	0.003987
H	0.707729	-2.017089	-0.690213
H	0.483329	-2.551689	0.722787
H	-0.655371	-2.703789	-0.634113
H	0.466529	2.825011	-1.093113
$end

$rem
JOBTYPE		SP
EXCHANGE	HF
CORRELATION	pRIMP2
BASIS		cc-pvtz
METHOD		rimp2
AUX_BASIS	rimp2-cc-pvtz
SOLVENT_METHOD	PCM
PURECART	11111
SYMMETRY	false
MEM_TOTAL	110000
SCF_CONVERGENCE = 6
THRESH=10
GUI = 2
$end

$solvent
dielectric 4.90
$end
--------------------------------------------------------------

             Standard Nuclear Orientation (Angstroms)
    I     Atom           X                Y                Z
 ----------------------------------------------------------------
    1      C      -0.1195710000    -0.5664890000     0.0039870000
    2      C       0.0240290000     0.2658110000     1.1169870000
    3      C       0.2609290000     1.6365110000     0.8245870000
    4      H      -0.0419710000    -0.1165890000     2.1468870000
    5      C       0.3034290000     1.8810110000    -0.5596130000
    6      S       0.0453290000     0.3900110000    -1.4607130000
    7      C       0.4423290000     2.6855110000     1.8863870000
    8      H       0.3659290000     2.2441110000     2.8989870000
    9      H      -0.3252710000     3.4840110000     1.8120870000
   10      H       1.4334290000     3.1799110000     1.8121870000
   11      C      -0.1195710000    -2.0165890000     0.0039870000
   12      H       0.7077290000    -2.0170890000    -0.6902130000
   13      H       0.4833290000    -2.5516890000     0.7227870000
   14      H      -0.6553710000    -2.7037890000    -0.6341130000
   15      H       0.4665290000     2.8250110000    -1.0931130000
 ----------------------------------------------------------------

   10    -629.4236709815      6.34e-07  Convergence criterion met
 Total energy in the final basis set =     -629.4236709815
        RIMP2         total energy =      -630.5996022120 a.u.

                    Orbital Energies (a.u.)
 --------------------------------------------------------------

 Alpha MOs
 -- Occupied --
-91.9780 -11.2814 -11.2540 -11.2470 -11.2268 -11.2266 -11.2203  -8.9780
 -6.6590  -6.6585  -6.6578  -1.1608  -1.0543  -0.9958  -0.9437  -0.8829
 -0.7461  -0.7183  -0.6467  -0.5903  -0.5764  -0.5666  -0.5510  -0.5466
 -0.5076  -0.4922  -0.4652  -0.4521  -0.3390  -0.2953

          Ground-State Mulliken Net Atomic Charges

     Atom                 Charge (a.u.)
  ----------------------------------------
      1 C                     0.055381
      2 C                    -0.296610
      3 C                     0.049952
      4 H                     0.180067
      5 C                    -0.266594
      6 S                    -0.004622
      7 C                    -0.272468
      8 H                     0.101556
      9 H                     0.107404
     10 H                     0.107178
     11 C                    -0.373026
     12 H                     0.128530
     13 H                     0.139599
     14 H                     0.149493
     15 H                     0.194160
  ----------------------------------------
  Sum of atomic charges =     0.000000

                    Cartesian Multipole Moments
 -----------------------------------------------------------------
    Charge (ESU x 10^10)
                -0.0000
    Dipole Moment (Debye)
         X       0.7608      Y      -0.4011      Z       1.0446
       Tot       1.3531
    Quadrupole Moments (Debye-Ang)
        XX     -54.0160     XY       0.3965     YY     -42.1233
        XZ       0.4127     YZ       1.3598     ZZ     -48.6947

 Total job time:  16.52s(wall), 745.02s(cpu)
        *  Thank you very much for using Q-Chem.  Have a nice day.  *
