 Q-Chem 5.4, Q-Chem, Inc., Pleasanton, CA (2021)
 Q-Chem 5.4.0 for Intel X86 EM64T Linux

User input:
--------------------------------------------------------------
$molecule
0 1
C	-0.590354	-0.238938	0.004642
C	0.139546	0.186062	1.117642
C	1.341846	0.885562	0.825242
H	-0.195854	-0.009138	2.147542
C	1.556446	1.010262	-0.558958
S	0.248346	0.249562	-1.460058
C	2.262046	1.420962	1.887042
H	1.874746	1.195762	2.899642
H	2.380246	2.522262	1.812742
H	3.277846	0.979462	1.812842
C	-0.590354	-1.689038	0.004642
H	0.103846	-1.689538	-0.822658
H	0.128146	-2.224138	0.607842
H	-1.228854	-2.376238	-0.530658
H	2.384446	1.492062	-1.092458
$end

$rem
JOBTYPE		SP
EXCHANGE	HF
CORRELATION	pRIMP2
BASIS		cc-pvtz
METHOD		rimp2
AUX_BASIS	rimp2-cc-pvtz
SOLVENT_METHOD	PCM
PURECART	11111
SYMMETRY	false
MEM_TOTAL	110000
SCF_CONVERGENCE = 6
THRESH=10
GUI = 2
$end

$solvent
dielectric 4.90
$end
--------------------------------------------------------------

             Standard Nuclear Orientation (Angstroms)
    I     Atom           X                Y                Z
 ----------------------------------------------------------------
    1      C      -0.5903540000    -0.2389380000     0.0046420000
    2      C       0.1395460000     0.1860620000     1.1176420000
    3      C       1.3418460000     0.8855620000     0.8252420000
    4      H      -0.1958540000    -0.0091380000     2.1475420000
    5      C       1.5564460000     1.0102620000    -0.5589580000
    6      S       0.2483460000     0.2495620000    -1.4600580000
    7      C       2.2620460000     1.4209620000     1.8870420000
    8      H       1.8747460000     1.1957620000     2.8996420000
    9      H       2.3802460000     2.5222620000     1.8127420000
   10      H       3.2778460000     0.9794620000     1.8128420000
   11      C      -0.5903540000    -1.6890380000     0.0046420000
   12      H       0.1038460000    -1.6895380000    -0.8226580000
   13      H       0.1281460000    -2.2241380000     0.6078420000
   14      H      -1.2288540000    -2.3762380000    -0.5306580000
   15      H       2.3844460000     1.4920620000    -1.0924580000
 ----------------------------------------------------------------

   10    -629.3402262369      8.30e-07  Convergence criterion met
 Total energy in the final basis set =     -629.3402262369
        RIMP2         total energy =      -630.5315607100 a.u.

                    Orbital Energies (a.u.)
 --------------------------------------------------------------

 Alpha MOs
 -- Occupied --
-91.9695 -11.2819 -11.2534 -11.2500 -11.2491 -11.2294 -11.2060  -8.9716
 -6.6523  -6.6514  -6.6512  -1.1774  -1.0585  -0.9956  -0.9420  -0.8782
 -0.7563  -0.7289  -0.6434  -0.5903  -0.5843  -0.5651  -0.5531  -0.5460
 -0.5153  -0.4827  -0.4617  -0.4294  -0.3340  -0.2945

          Ground-State Mulliken Net Atomic Charges

     Atom                 Charge (a.u.)
  ----------------------------------------
      1 C                    -0.086519
      2 C                    -0.131109
      3 C                    -0.019741
      4 H                     0.186196
      5 C                    -0.188015
      6 S                    -0.002150
      7 C                    -0.267592
      8 H                     0.102223
      9 H                     0.107828
     10 H                     0.105156
     11 C                    -0.382364
     12 H                     0.133813
     13 H                     0.124029
     14 H                     0.119698
     15 H                     0.198547
  ----------------------------------------
  Sum of atomic charges =     0.000000

                    Cartesian Multipole Moments
 -----------------------------------------------------------------
    Charge (ESU x 10^10)
                -0.0000
    Dipole Moment (Debye)
         X       2.7935      Y       0.0373      Z       1.3844
       Tot       3.1179
    Quadrupole Moments (Debye-Ang)
        XX     -48.4679     XY       3.5339     YY     -50.3048
        XZ       0.2389     YZ       1.2971     ZZ     -47.8079

 Total job time:  17.10s(wall), 767.82s(cpu)
        *  Thank you very much for using Q-Chem.  Have a nice day.  *
