 Q-Chem 5.4, Q-Chem, Inc., Pleasanton, CA (2021)
 Q-Chem 5.4.0 for Intel X86 EM64T Linux

User input:
--------------------------------------------------------------
$molecule
0 1
C	-0.289511	-0.513776	-0.000076
C	0.064689	0.253024	1.112924
C	0.648289	1.515624	0.820524
H	-0.098211	-0.099276	2.142824
C	0.752489	1.740824	-0.563676
S	0.117389	0.367424	-1.464776
C	1.094889	2.482024	1.882324
H	0.906889	2.075424	2.894924
H	0.560089	3.451924	1.808024
H	2.180289	2.703024	1.808124
C	-0.289511	-1.963876	-0.000076
H	0.774089	-1.964376	0.187424
H	-0.452611	-2.498976	0.923824
H	-0.145111	-2.651076	-0.820676
H	1.154389	2.610424	-1.097176
$end

$rem
JOBTYPE		SP
EXCHANGE	HF
CORRELATION	pRIMP2
BASIS		cc-pvtz
METHOD		rimp2
AUX_BASIS	rimp2-cc-pvtz
SOLVENT_METHOD	PCM
PURECART	11111
SYMMETRY	false
MEM_TOTAL	110000
SCF_CONVERGENCE = 6
THRESH=10
GUI = 2
$end

$solvent
dielectric 4.90
$end
--------------------------------------------------------------

             Standard Nuclear Orientation (Angstroms)
    I     Atom           X                Y                Z
 ----------------------------------------------------------------
    1      C      -0.2895110000    -0.5137760000    -0.0000760000
    2      C       0.0646890000     0.2530240000     1.1129240000
    3      C       0.6482890000     1.5156240000     0.8205240000
    4      H      -0.0982110000    -0.0992760000     2.1428240000
    5      C       0.7524890000     1.7408240000    -0.5636760000
    6      S       0.1173890000     0.3674240000    -1.4647760000
    7      C       1.0948890000     2.4820240000     1.8823240000
    8      H       0.9068890000     2.0754240000     2.8949240000
    9      H       0.5600890000     3.4519240000     1.8080240000
   10      H       2.1802890000     2.7030240000     1.8081240000
   11      C      -0.2895110000    -1.9638760000    -0.0000760000
   12      H       0.7740890000    -1.9643760000     0.1874240000
   13      H      -0.4526110000    -2.4989760000     0.9238240000
   14      H      -0.1451110000    -2.6510760000    -0.8206760000
   15      H       1.1543890000     2.6104240000    -1.0971760000
 ----------------------------------------------------------------

   10    -629.4151467370      6.47e-07  Convergence criterion met
 Total energy in the final basis set =     -629.4151467370
        RIMP2         total energy =      -630.5930407909 a.u.

                    Orbital Energies (a.u.)
 --------------------------------------------------------------

 Alpha MOs
 -- Occupied --
-91.9784 -11.2837 -11.2519 -11.2481 -11.2271 -11.2244 -11.2222  -8.9782
 -6.6592  -6.6586  -6.6581  -1.1627  -1.0550  -0.9974  -0.9393  -0.8835
 -0.7440  -0.7198  -0.6461  -0.5885  -0.5778  -0.5687  -0.5533  -0.5448
 -0.5077  -0.4920  -0.4648  -0.4566  -0.3380  -0.2887

          Ground-State Mulliken Net Atomic Charges

     Atom                 Charge (a.u.)
  ----------------------------------------
      1 C                     0.042819
      2 C                    -0.297093
      3 C                     0.052247
      4 H                     0.173966
      5 C                    -0.278047
      6 S                     0.003174
      7 C                    -0.270544
      8 H                     0.101675
      9 H                     0.107642
     10 H                     0.106661
     11 C                    -0.379259
     12 H                     0.150902
     13 H                     0.136109
     14 H                     0.156574
     15 H                     0.193173
  ----------------------------------------
  Sum of atomic charges =     0.000000

                    Cartesian Multipole Moments
 -----------------------------------------------------------------
    Charge (ESU x 10^10)
                -0.0000
    Dipole Moment (Debye)
         X       1.2017      Y      -0.6696      Z       1.5699
       Tot       2.0874
    Quadrupole Moments (Debye-Ang)
        XX     -53.3491     XY       2.0113     YY     -43.5120
        XZ       0.0846     YZ       0.1656     ZZ     -48.5189

 Total job time:  18.07s(wall), 767.24s(cpu)
        *  Thank you very much for using Q-Chem.  Have a nice day.  *
