 Q-Chem 5.4, Q-Chem, Inc., Pleasanton, CA (2021)
 Q-Chem 5.4.0 for Intel X86 EM64T Linux

User input:
--------------------------------------------------------------
$molecule
0 1
C	-0.280122	-0.513776	0.002537
C	0.074078	0.253024	1.115537
C	0.657678	1.515624	0.823137
H	-0.088822	-0.099276	2.145437
C	0.761878	1.740824	-0.561063
S	0.126778	0.367424	-1.462163
C	1.104278	2.482024	1.884937
H	0.916278	2.075424	2.897537
H	0.569478	3.451924	1.810637
H	2.189678	2.703024	1.810737
C	-0.280122	-1.963876	0.002537
H	-1.343722	-1.964376	-0.184963
H	-0.117022	-2.498976	-0.921363
H	-0.424522	-2.651076	0.823137
H	1.163778	2.610424	-1.094563
$end

$rem
JOBTYPE		SP
EXCHANGE	HF
CORRELATION	pRIMP2
BASIS		cc-pvtz
METHOD		rimp2
AUX_BASIS	rimp2-cc-pvtz
SOLVENT_METHOD	PCM
PURECART	11111
SYMMETRY	false
MEM_TOTAL	110000
SCF_CONVERGENCE = 6
THRESH=10
GUI = 2
$end

$solvent
dielectric 4.90
$end
--------------------------------------------------------------

             Standard Nuclear Orientation (Angstroms)
    I     Atom           X                Y                Z
 ----------------------------------------------------------------
    1      C      -0.2801220000    -0.5137760000     0.0025370000
    2      C       0.0740780000     0.2530240000     1.1155370000
    3      C       0.6576780000     1.5156240000     0.8231370000
    4      H      -0.0888220000    -0.0992760000     2.1454370000
    5      C       0.7618780000     1.7408240000    -0.5610630000
    6      S       0.1267780000     0.3674240000    -1.4621630000
    7      C       1.1042780000     2.4820240000     1.8849370000
    8      H       0.9162780000     2.0754240000     2.8975370000
    9      H       0.5694780000     3.4519240000     1.8106370000
   10      H       2.1896780000     2.7030240000     1.8107370000
   11      C      -0.2801220000    -1.9638760000     0.0025370000
   12      H      -1.3437220000    -1.9643760000    -0.1849630000
   13      H      -0.1170220000    -2.4989760000    -0.9213630000
   14      H      -0.4245220000    -2.6510760000     0.8231370000
   15      H       1.1637780000     2.6104240000    -1.0945630000
 ----------------------------------------------------------------

   10    -629.4075480203      5.81e-07  Convergence criterion met
 Total energy in the final basis set =     -629.4075480203
        RIMP2         total energy =      -630.5868435648 a.u.

                    Orbital Energies (a.u.)
 --------------------------------------------------------------

 Alpha MOs
 -- Occupied --
-91.9783 -11.2781 -11.2543 -11.2471 -11.2267 -11.2265 -11.2179  -8.9782
 -6.6591  -6.6586  -6.6580  -1.1608  -1.0534  -0.9961  -0.9423  -0.8834
 -0.7448  -0.7192  -0.6462  -0.5860  -0.5730  -0.5680  -0.5532  -0.5449
 -0.5103  -0.4943  -0.4571  -0.4556  -0.3376  -0.2885

          Ground-State Mulliken Net Atomic Charges

     Atom                 Charge (a.u.)
  ----------------------------------------
      1 C                     0.020034
      2 C                    -0.272194
      3 C                     0.045089
      4 H                     0.177872
      5 C                    -0.268377
      6 S                     0.002635
      7 C                    -0.271247
      8 H                     0.101536
      9 H                     0.107131
     10 H                     0.106555
     11 C                    -0.378647
     12 H                     0.132643
     13 H                     0.142656
     14 H                     0.159950
     15 H                     0.194366
  ----------------------------------------
  Sum of atomic charges =     0.000000

                    Cartesian Multipole Moments
 -----------------------------------------------------------------
    Charge (ESU x 10^10)
                -0.0000
    Dipole Moment (Debye)
         X      -0.1354      Y      -0.4629      Z       1.3463
       Tot       1.4301
    Quadrupole Moments (Debye-Ang)
        XX     -52.6215     XY       4.8802     YY     -43.6102
        XZ      -0.0018     YZ       0.4271     ZZ     -48.4075

 Total job time:  15.87s(wall), 740.69s(cpu)
        *  Thank you very much for using Q-Chem.  Have a nice day.  *
