 Q-Chem 5.4, Q-Chem, Inc., Pleasanton, CA (2021)
 Q-Chem 5.4.0 for Intel X86 EM64T Linux

User input:
--------------------------------------------------------------
$molecule
0 1
C	-0.514212	-0.335659	-0.000785
C	0.130788	0.209641	1.112215
C	1.193388	1.107341	0.819815
H	-0.165612	-0.040859	2.142115
C	1.382988	1.267341	-0.564385
S	0.226988	0.291041	-1.465485
C	2.006588	1.794341	1.881615
H	1.664388	1.505341	2.894215
H	1.931788	2.899441	1.807315
H	3.083588	1.535941	1.807415
C	-0.514212	-1.785759	-0.000785
H	-1.449512	-1.786259	0.539215
H	-0.983112	-2.320859	-0.813385
H	-0.097312	-2.472959	0.720615
H	2.114788	1.885641	-1.097885
$end

$rem
JOBTYPE		SP
EXCHANGE	HF
CORRELATION	pRIMP2
BASIS		cc-pvtz
METHOD		rimp2
AUX_BASIS	rimp2-cc-pvtz
SOLVENT_METHOD	PCM
PURECART	11111
SYMMETRY	false
MEM_TOTAL	110000
SCF_CONVERGENCE = 6
THRESH=10
GUI = 2
$end

$solvent
dielectric 4.90
$end
--------------------------------------------------------------

             Standard Nuclear Orientation (Angstroms)
    I     Atom           X                Y                Z
 ----------------------------------------------------------------
    1      C      -0.5142120000    -0.3356590000    -0.0007850000
    2      C       0.1307880000     0.2096410000     1.1122150000
    3      C       1.1933880000     1.1073410000     0.8198150000
    4      H      -0.1656120000    -0.0408590000     2.1421150000
    5      C       1.3829880000     1.2673410000    -0.5643850000
    6      S       0.2269880000     0.2910410000    -1.4654850000
    7      C       2.0065880000     1.7943410000     1.8816150000
    8      H       1.6643880000     1.5053410000     2.8942150000
    9      H       1.9317880000     2.8994410000     1.8073150000
   10      H       3.0835880000     1.5359410000     1.8074150000
   11      C      -0.5142120000    -1.7857590000    -0.0007850000
   12      H      -1.4495120000    -1.7862590000     0.5392150000
   13      H      -0.9831120000    -2.3208590000    -0.8133850000
   14      H      -0.0973120000    -2.4729590000     0.7206150000
   15      H       2.1147880000     1.8856410000    -1.0978850000
 ----------------------------------------------------------------

   11    -629.3691013322      4.04e-07  Convergence criterion met
 Total energy in the final basis set =     -629.3691013322
        RIMP2         total energy =      -630.5578591263 a.u.

                    Orbital Energies (a.u.)
 --------------------------------------------------------------

 Alpha MOs
 -- Occupied --
-91.9721 -11.2721 -11.2550 -11.2489 -11.2449 -11.2284 -11.2097  -8.9729
 -6.6538  -6.6529  -6.6526  -1.1669  -1.0526  -0.9974  -0.9381  -0.8840
 -0.7466  -0.7269  -0.6440  -0.5844  -0.5791  -0.5644  -0.5552  -0.5419
 -0.5170  -0.4902  -0.4589  -0.4277  -0.3363  -0.2917

          Ground-State Mulliken Net Atomic Charges

     Atom                 Charge (a.u.)
  ----------------------------------------
      1 C                    -0.057076
      2 C                    -0.185486
      3 C                     0.005980
      4 H                     0.179700
      5 C                    -0.207672
      6 S                     0.006886
      7 C                    -0.269136
      8 H                     0.101641
      9 H                     0.106936
     10 H                     0.105648
     11 C                    -0.388970
     12 H                     0.124833
     13 H                     0.130947
     14 H                     0.151647
     15 H                     0.194122
  ----------------------------------------
  Sum of atomic charges =     0.000000

                    Cartesian Multipole Moments
 -----------------------------------------------------------------
    Charge (ESU x 10^10)
                -0.0000
    Dipole Moment (Debye)
         X       1.1906      Y       0.0757      Z       2.0234
       Tot       2.3490
    Quadrupole Moments (Debye-Ang)
        XX     -48.9712     XY       5.6487     YY     -48.1796
        XZ       0.1426     YZ      -0.4871     ZZ     -48.0842

 Total job time:  24.02s(wall), 829.47s(cpu)
        *  Thank you very much for using Q-Chem.  Have a nice day.  *
