 Q-Chem 5.4, Q-Chem, Inc., Pleasanton, CA (2021)
 Q-Chem 5.4.0 for Intel X86 EM64T Linux

User input:
--------------------------------------------------------------
$molecule
0 1
C	-0.168996	-0.553870	-0.000785
C	0.046604	0.262730	1.112215
C	0.402104	1.607530	0.819815
H	-0.052496	-0.112470	2.142115
C	0.465704	1.847430	-0.564385
S	0.078604	0.384630	-1.465485
C	0.674204	2.636830	1.881615
H	0.559604	2.203730	2.894215
H	-0.020896	3.499130	1.807315
H	1.704704	3.042930	1.807415
C	-0.168996	-2.003970	-0.000785
H	-1.104296	-2.004470	0.539215
H	-0.637896	-2.539070	-0.813385
H	0.247904	-2.691170	0.720615
H	0.710504	2.773630	-1.097885
$end

$rem
JOBTYPE		SP
EXCHANGE	HF
CORRELATION	pRIMP2
BASIS		cc-pvtz
METHOD		rimp2
AUX_BASIS	rimp2-cc-pvtz
SOLVENT_METHOD	PCM
PURECART	11111
SYMMETRY	false
MEM_TOTAL	110000
SCF_CONVERGENCE = 6
THRESH=10
GUI = 2
$end

$solvent
dielectric 4.90
$end
--------------------------------------------------------------

             Standard Nuclear Orientation (Angstroms)
    I     Atom           X                Y                Z
 ----------------------------------------------------------------
    1      C      -0.1689960000    -0.5538700000    -0.0007850000
    2      C       0.0466040000     0.2627300000     1.1122150000
    3      C       0.4021040000     1.6075300000     0.8198150000
    4      H      -0.0524960000    -0.1124700000     2.1421150000
    5      C       0.4657040000     1.8474300000    -0.5643850000
    6      S       0.0786040000     0.3846300000    -1.4654850000
    7      C       0.6742040000     2.6368300000     1.8816150000
    8      H       0.5596040000     2.2037300000     2.8942150000
    9      H      -0.0208960000     3.4991300000     1.8073150000
   10      H       1.7047040000     3.0429300000     1.8074150000
   11      C      -0.1689960000    -2.0039700000    -0.0007850000
   12      H      -1.1042960000    -2.0044700000     0.5392150000
   13      H      -0.6378960000    -2.5390700000    -0.8133850000
   14      H       0.2479040000    -2.6911700000     0.7206150000
   15      H       0.7105040000     2.7736300000    -1.0978850000
 ----------------------------------------------------------------

   10    -629.4193852620      5.90e-07  Convergence criterion met
 Total energy in the final basis set =     -629.4193852620
        RIMP2         total energy =      -630.5971553282 a.u.

                    Orbital Energies (a.u.)
 --------------------------------------------------------------

 Alpha MOs
 -- Occupied --
-91.9776 -11.2807 -11.2529 -11.2475 -11.2272 -11.2270 -11.2194  -8.9774
 -6.6584  -6.6578  -6.6572  -1.1601  -1.0532  -0.9979  -0.9404  -0.8844
 -0.7429  -0.7202  -0.6480  -0.5868  -0.5740  -0.5652  -0.5588  -0.5434
 -0.5096  -0.4933  -0.4629  -0.4507  -0.3373  -0.2926

          Ground-State Mulliken Net Atomic Charges

     Atom                 Charge (a.u.)
  ----------------------------------------
      1 C                     0.051555
      2 C                    -0.299359
      3 C                     0.047998
      4 H                     0.174955
      5 C                    -0.266922
      6 S                     0.002017
      7 C                    -0.273875
      8 H                     0.101357
      9 H                     0.107143
     10 H                     0.107253
     11 C                    -0.376867
     12 H                     0.136062
     13 H                     0.138435
     14 H                     0.157672
     15 H                     0.192575
  ----------------------------------------
  Sum of atomic charges =     0.000000

                    Cartesian Multipole Moments
 -----------------------------------------------------------------
    Charge (ESU x 10^10)
                -0.0000
    Dipole Moment (Debye)
         X      -0.3052      Y      -0.4654      Z       1.8052
       Tot       1.8890
    Quadrupole Moments (Debye-Ang)
        XX     -53.4768     XY       3.5251     YY     -42.5769
        XZ       0.3155     YZ      -0.4419     ZZ     -48.5919

 Total job time:  16.59s(wall), 743.32s(cpu)
        *  Thank you very much for using Q-Chem.  Have a nice day.  *
