 Q-Chem 5.4, Q-Chem, Inc., Pleasanton, CA (2021)
 Q-Chem 5.4.0 for Intel X86 EM64T Linux

User input:
--------------------------------------------------------------
$molecule
0 1
C	-0.230474	-0.536244	0.006080
C	0.055526	0.258456	1.119080
C	0.526826	1.567156	0.826680
H	-0.075974	-0.106644	2.148980
C	0.611126	1.800556	-0.557520
S	0.098026	0.377056	-1.458620
C	0.887626	2.568756	1.888480
H	0.735726	2.147356	2.901080
H	0.270326	3.488456	1.814180
H	1.949526	2.883556	1.814280
C	-0.230474	-1.986344	0.006080
H	-0.230474	-1.986844	-1.073920
H	0.707626	-2.521444	0.006280
H	-1.063674	-2.673544	0.006380
H	0.935626	2.701956	-1.091020
$end

$rem
JOBTYPE		SP
EXCHANGE	HF
CORRELATION	pRIMP2
BASIS		cc-pvtz
METHOD		rimp2
AUX_BASIS	rimp2-cc-pvtz
SOLVENT_METHOD	PCM
PURECART	11111
SYMMETRY	false
MEM_TOTAL	110000
SCF_CONVERGENCE = 6
THRESH=10
GUI = 2
$end

$solvent
dielectric 4.90
$end
--------------------------------------------------------------

             Standard Nuclear Orientation (Angstroms)
    I     Atom           X                Y                Z
 ----------------------------------------------------------------
    1      C      -0.2304740000    -0.5362440000     0.0060800000
    2      C       0.0555260000     0.2584560000     1.1190800000
    3      C       0.5268260000     1.5671560000     0.8266800000
    4      H      -0.0759740000    -0.1066440000     2.1489800000
    5      C       0.6111260000     1.8005560000    -0.5575200000
    6      S       0.0980260000     0.3770560000    -1.4586200000
    7      C       0.8876260000     2.5687560000     1.8884800000
    8      H       0.7357260000     2.1473560000     2.9010800000
    9      H       0.2703260000     3.4884560000     1.8141800000
   10      H       1.9495260000     2.8835560000     1.8142800000
   11      C      -0.2304740000    -1.9863440000     0.0060800000
   12      H      -0.2304740000    -1.9868440000    -1.0739200000
   13      H       0.7076260000    -2.5214440000     0.0062800000
   14      H      -1.0636740000    -2.6735440000     0.0063800000
   15      H       0.9356260000     2.7019560000    -1.0910200000
 ----------------------------------------------------------------

   10    -629.4144110999      5.24e-07  Convergence criterion met
 Total energy in the final basis set =     -629.4144110999
        RIMP2         total energy =      -630.5936587833 a.u.

                    Orbital Energies (a.u.)
 --------------------------------------------------------------

 Alpha MOs
 -- Occupied --
-91.9805 -11.2720 -11.2607 -11.2473 -11.2307 -11.2272 -11.2157  -8.9804
 -6.6613  -6.6607  -6.6601  -1.1618  -1.0535  -0.9948  -0.9454  -0.8824
 -0.7484  -0.7190  -0.6463  -0.5909  -0.5757  -0.5659  -0.5532  -0.5464
 -0.5099  -0.4833  -0.4648  -0.4437  -0.3375  -0.3051

          Ground-State Mulliken Net Atomic Charges

     Atom                 Charge (a.u.)
  ----------------------------------------
      1 C                     0.030826
      2 C                    -0.258698
      3 C                     0.043081
      4 H                     0.178233
      5 C                    -0.255009
      6 S                    -0.001994
      7 C                    -0.272011
      8 H                     0.102128
      9 H                     0.106857
     10 H                     0.106566
     11 C                    -0.362519
     12 H                     0.111874
     13 H                     0.129668
     14 H                     0.144995
     15 H                     0.196003
  ----------------------------------------
  Sum of atomic charges =     0.000000

                    Cartesian Multipole Moments
 -----------------------------------------------------------------
    Charge (ESU x 10^10)
                -0.0000
    Dipole Moment (Debye)
         X       0.5777      Y       0.0891      Z       0.9048
       Tot       1.0772
    Quadrupole Moments (Debye-Ang)
        XX     -52.7562     XY       2.9514     YY     -43.3042
        XZ       0.2009     YZ       1.4888     ZZ     -48.7840

 Total job time:  15.76s(wall), 741.34s(cpu)
        *  Thank you very much for using Q-Chem.  Have a nice day.  *
