 Q-Chem 5.4, Q-Chem, Inc., Pleasanton, CA (2021)
 Q-Chem 5.4.0 for Intel X86 EM64T Linux

User input:
--------------------------------------------------------------
$molecule
0 1
C	0.002869	-0.576386	-0.003619
C	-0.000231	0.268214	1.109381
C	-0.004931	1.659214	0.816981
H	0.001169	-0.119886	2.139281
C	-0.005531	1.907314	-0.567219
S	-0.000831	0.394214	-1.468319
C	-0.008531	2.723814	1.878781
H	-0.007031	2.275814	2.891381
H	-0.903031	3.376814	1.804481
H	0.881769	3.382714	1.804581
C	0.002869	-2.026486	-0.003619
H	0.002869	-2.026986	1.076381
H	-0.935231	-2.561586	-0.003819
H	0.836069	-2.713686	-0.003919
H	-0.008831	2.865414	-1.100719
$end

$rem
JOBTYPE		SP
EXCHANGE	HF
CORRELATION	pRIMP2
BASIS		cc-pvtz
METHOD		rimp2
AUX_BASIS	rimp2-cc-pvtz
SOLVENT_METHOD	PCM
PURECART	11111
SYMMETRY	false
MEM_TOTAL	110000
SCF_CONVERGENCE = 6
THRESH=10
GUI = 2
$end

$solvent
dielectric 4.90
$end
--------------------------------------------------------------

             Standard Nuclear Orientation (Angstroms)
    I     Atom           X                Y                Z
 ----------------------------------------------------------------
    1      C       0.0028690000    -0.5763860000    -0.0036190000
    2      C      -0.0002310000     0.2682140000     1.1093810000
    3      C      -0.0049310000     1.6592140000     0.8169810000
    4      H       0.0011690000    -0.1198860000     2.1392810000
    5      C      -0.0055310000     1.9073140000    -0.5672190000
    6      S      -0.0008310000     0.3942140000    -1.4683190000
    7      C      -0.0085310000     2.7238140000     1.8787810000
    8      H      -0.0070310000     2.2758140000     2.8913810000
    9      H      -0.9030310000     3.3768140000     1.8044810000
   10      H       0.8817690000     3.3827140000     1.8045810000
   11      C       0.0028690000    -2.0264860000    -0.0036190000
   12      H       0.0028690000    -2.0269860000     1.0763810000
   13      H      -0.9352310000    -2.5615860000    -0.0038190000
   14      H       0.8360690000    -2.7136860000    -0.0039190000
   15      H      -0.0088310000     2.8654140000    -1.1007190000
 ----------------------------------------------------------------

   10    -629.4264616176      4.84e-07  Convergence criterion met
 Total energy in the final basis set =     -629.4264616176
        RIMP2         total energy =      -630.6039565329 a.u.

                    Orbital Energies (a.u.)
 --------------------------------------------------------------

 Alpha MOs
 -- Occupied --
-91.9754 -11.2779 -11.2580 -11.2472 -11.2340 -11.2276 -11.2173  -8.9755
 -6.6564  -6.6559  -6.6554  -1.1609  -1.0525  -0.9997  -0.9389  -0.8855
 -0.7424  -0.7238  -0.6478  -0.5911  -0.5779  -0.5664  -0.5592  -0.5410
 -0.5100  -0.4859  -0.4680  -0.4385  -0.3378  -0.3053

          Ground-State Mulliken Net Atomic Charges

     Atom                 Charge (a.u.)
  ----------------------------------------
      1 C                     0.062032
      2 C                    -0.267430
      3 C                     0.029403
      4 H                     0.176528
      5 C                    -0.249272
      6 S                    -0.008092
      7 C                    -0.273705
      8 H                     0.101275
      9 H                     0.107324
     10 H                     0.107263
     11 C                    -0.369682
     12 H                     0.119767
     13 H                     0.128131
     14 H                     0.142559
     15 H                     0.193901
  ----------------------------------------
  Sum of atomic charges =     0.000000

                    Cartesian Multipole Moments
 -----------------------------------------------------------------
    Charge (ESU x 10^10)
                -0.0000
    Dipole Moment (Debye)
         X      -0.0187      Y      -0.0642      Z       2.1631
       Tot       2.1641
    Quadrupole Moments (Debye-Ang)
        XX     -53.6861     XY      -0.1193     YY     -42.1039
        XZ       0.0034     YZ      -1.0218     ZZ     -49.0024

 Total job time:  19.11s(wall), 760.46s(cpu)
        *  Thank you very much for using Q-Chem.  Have a nice day.  *
