 Q-Chem 5.4, Q-Chem, Inc., Pleasanton, CA (2021)
 Q-Chem 5.4.0 for Intel X86 EM64T Linux

User input:
--------------------------------------------------------------
$molecule
0 1
C	-0.060812	-0.574004	0.003987
C	0.009688	0.267696	1.116987
C	0.126288	1.653696	0.824587
H	-0.022712	-0.119104	2.146887
C	0.147288	1.900996	-0.559613
S	0.020088	0.393196	-1.460713
C	0.215488	2.714596	1.886387
H	0.177888	2.268196	2.898987
H	-0.618812	3.443096	1.812087
H	1.159788	3.293496	1.812187
C	-0.060812	-2.024104	0.003987
H	0.766488	-2.024604	-0.690213
H	0.542088	-2.559204	0.722787
H	-0.596612	-2.711304	-0.634113
H	0.227488	2.855696	-1.093113
$end

$rem
JOBTYPE		SP
EXCHANGE	HF
CORRELATION	pRIMP2
BASIS		cc-pvtz
METHOD		rimp2
AUX_BASIS	rimp2-cc-pvtz
SOLVENT_METHOD	PCM
PURECART	11111
SYMMETRY	false
MEM_TOTAL	110000
SCF_CONVERGENCE = 6
THRESH=10
GUI = 2
$end

$solvent
dielectric 4.90
$end
--------------------------------------------------------------

             Standard Nuclear Orientation (Angstroms)
    I     Atom           X                Y                Z
 ----------------------------------------------------------------
    1      C      -0.0608120000    -0.5740040000     0.0039870000
    2      C       0.0096880000     0.2676960000     1.1169870000
    3      C       0.1262880000     1.6536960000     0.8245870000
    4      H      -0.0227120000    -0.1191040000     2.1468870000
    5      C       0.1472880000     1.9009960000    -0.5596130000
    6      S       0.0200880000     0.3931960000    -1.4607130000
    7      C       0.2154880000     2.7145960000     1.8863870000
    8      H       0.1778880000     2.2681960000     2.8989870000
    9      H      -0.6188120000     3.4430960000     1.8120870000
   10      H       1.1597880000     3.2934960000     1.8121870000
   11      C      -0.0608120000    -2.0241040000     0.0039870000
   12      H       0.7664880000    -2.0246040000    -0.6902130000
   13      H       0.5420880000    -2.5592040000     0.7227870000
   14      H      -0.5966120000    -2.7113040000    -0.6341130000
   15      H       0.2274880000     2.8556960000    -1.0931130000
 ----------------------------------------------------------------

   10    -629.4247065037      6.26e-07  Convergence criterion met
 Total energy in the final basis set =     -629.4247065037
        RIMP2         total energy =      -630.6004419700 a.u.

                    Orbital Energies (a.u.)
 --------------------------------------------------------------

 Alpha MOs
 -- Occupied --
-91.9784 -11.2816 -11.2537 -11.2470 -11.2268 -11.2262 -11.2203  -8.9784
 -6.6593  -6.6588  -6.6582  -1.1605  -1.0542  -0.9960  -0.9438  -0.8831
 -0.7459  -0.7181  -0.6468  -0.5904  -0.5760  -0.5670  -0.5510  -0.5465
 -0.5077  -0.4918  -0.4654  -0.4524  -0.3389  -0.2954

          Ground-State Mulliken Net Atomic Charges

     Atom                 Charge (a.u.)
  ----------------------------------------
      1 C                     0.053037
      2 C                    -0.286804
      3 C                     0.044069
      4 H                     0.180517
      5 C                    -0.265494
      6 S                    -0.005412
      7 C                    -0.273035
      8 H                     0.101578
      9 H                     0.107337
     10 H                     0.107169
     11 C                    -0.372441
     12 H                     0.126493
     13 H                     0.139593
     14 H                     0.149047
     15 H                     0.194345
  ----------------------------------------
  Sum of atomic charges =     0.000000

                    Cartesian Multipole Moments
 -----------------------------------------------------------------
    Charge (ESU x 10^10)
                -0.0000
    Dipole Moment (Debye)
         X       0.6468      Y      -0.4009      Z       1.0349
       Tot       1.2846
    Quadrupole Moments (Debye-Ang)
        XX     -54.1396     XY      -0.3655     YY     -41.8884
        XZ       0.3704     YZ       1.3623     ZZ     -48.6996

 Total job time:  15.75s(wall), 754.10s(cpu)
        *  Thank you very much for using Q-Chem.  Have a nice day.  *
