 Q-Chem 5.4, Q-Chem, Inc., Pleasanton, CA (2021)
 Q-Chem 5.4.0 for Intel X86 EM64T Linux

User input:
--------------------------------------------------------------
$molecule
0 1
C	-0.229532	-0.536244	-0.003619
C	0.056468	0.258456	1.109381
C	0.527768	1.567156	0.816981
H	-0.075032	-0.106644	2.139281
C	0.612068	1.800556	-0.567219
S	0.098968	0.377056	-1.468319
C	0.888568	2.568756	1.878781
H	0.736668	2.147356	2.891381
H	0.271268	3.488456	1.804481
H	1.950468	2.883556	1.804581
C	-0.229532	-1.986344	-0.003619
H	-0.229532	-1.986844	1.076381
H	-1.167632	-2.521444	-0.003819
H	0.603668	-2.673544	-0.003919
H	0.936568	2.701956	-1.100719
$end

$rem
JOBTYPE		SP
EXCHANGE	HF
CORRELATION	pRIMP2
BASIS		cc-pvtz
METHOD		rimp2
AUX_BASIS	rimp2-cc-pvtz
SOLVENT_METHOD	PCM
PURECART	11111
SYMMETRY	false
MEM_TOTAL	110000
SCF_CONVERGENCE = 6
THRESH=10
GUI = 2
$end

$solvent
dielectric 4.90
$end
--------------------------------------------------------------

             Standard Nuclear Orientation (Angstroms)
    I     Atom           X                Y                Z
 ----------------------------------------------------------------
    1      C      -0.2295320000    -0.5362440000    -0.0036190000
    2      C       0.0564680000     0.2584560000     1.1093810000
    3      C       0.5277680000     1.5671560000     0.8169810000
    4      H      -0.0750320000    -0.1066440000     2.1392810000
    5      C       0.6120680000     1.8005560000    -0.5672190000
    6      S       0.0989680000     0.3770560000    -1.4683190000
    7      C       0.8885680000     2.5687560000     1.8787810000
    8      H       0.7366680000     2.1473560000     2.8913810000
    9      H       0.2712680000     3.4884560000     1.8044810000
   10      H       1.9504680000     2.8835560000     1.8045810000
   11      C      -0.2295320000    -1.9863440000    -0.0036190000
   12      H      -0.2295320000    -1.9868440000     1.0763810000
   13      H      -1.1676320000    -2.5214440000    -0.0038190000
   14      H       0.6036680000    -2.6735440000    -0.0039190000
   15      H       0.9365680000     2.7019560000    -1.1007190000
 ----------------------------------------------------------------

   10    -629.4176305886      4.86e-07  Convergence criterion met
 Total energy in the final basis set =     -629.4176305886
        RIMP2         total energy =      -630.5971379863 a.u.

                    Orbital Energies (a.u.)
 --------------------------------------------------------------

 Alpha MOs
 -- Occupied --
-91.9750 -11.2740 -11.2607 -11.2474 -11.2361 -11.2278 -11.2156  -8.9752
 -6.6561  -6.6555  -6.6550  -1.1620  -1.0523  -0.9996  -0.9382  -0.8854
 -0.7428  -0.7249  -0.6471  -0.5895  -0.5789  -0.5681  -0.5576  -0.5410
 -0.5122  -0.4813  -0.4676  -0.4372  -0.3373  -0.3055

          Ground-State Mulliken Net Atomic Charges

     Atom                 Charge (a.u.)
  ----------------------------------------
      1 C                     0.031895
      2 C                    -0.261845
      3 C                     0.035327
      4 H                     0.176072
      5 C                    -0.246187
      6 S                    -0.004966
      7 C                    -0.271553
      8 H                     0.101346
      9 H                     0.107027
     10 H                     0.107133
     11 C                    -0.358182
     12 H                     0.118226
     13 H                     0.126476
     14 H                     0.145344
     15 H                     0.193889
  ----------------------------------------
  Sum of atomic charges =     0.000000

                    Cartesian Multipole Moments
 -----------------------------------------------------------------
    Charge (ESU x 10^10)
                -0.0000
    Dipole Moment (Debye)
         X       0.5493      Y       0.0398      Z       2.1896
       Tot       2.2578
    Quadrupole Moments (Debye-Ang)
        XX     -52.7489     XY       2.7235     YY     -43.3285
        XZ      -0.0583     YZ      -1.0426     ZZ     -48.9144

 Total job time:  19.01s(wall), 770.33s(cpu)
        *  Thank you very much for using Q-Chem.  Have a nice day.  *
