 Q-Chem 5.4, Q-Chem, Inc., Pleasanton, CA (2021)
 Q-Chem 5.4.0 for Intel X86 EM64T Linux

User input:
--------------------------------------------------------------
$molecule
0 1
C	-0.360055	-0.489009	0.000759
C	0.059545	0.243991	1.113759
C	0.751045	1.450991	0.821359
H	-0.133355	-0.092809	2.143659
C	0.874545	1.666191	-0.562841
S	0.122045	0.353391	-1.463941
C	1.280245	2.374691	1.883159
H	1.057445	1.986091	2.895759
H	0.831945	3.387591	1.808859
H	2.380645	2.500291	1.808959
C	-0.108255	-1.917109	0.000759
H	0.955445	-1.730009	0.000759
H	-0.015555	-2.444109	0.938859
H	0.010745	-2.593909	-0.832441
H	1.350645	2.497491	-1.096341
$end

$rem
JOBTYPE		SP
EXCHANGE	HF
CORRELATION	pRIMP2
BASIS		cc-pvtz
METHOD		rimp2
AUX_BASIS	rimp2-cc-pvtz
SOLVENT_METHOD	PCM
PURECART	11111
SYMMETRY	false
MEM_TOTAL	110000
SCF_CONVERGENCE = 6
THRESH=10
GUI = 2
$end

$solvent
dielectric 4.90
$end
--------------------------------------------------------------

             Standard Nuclear Orientation (Angstroms)
    I     Atom           X                Y                Z
 ----------------------------------------------------------------
    1      C      -0.3600550000    -0.4890090000     0.0007590000
    2      C       0.0595450000     0.2439910000     1.1137590000
    3      C       0.7510450000     1.4509910000     0.8213590000
    4      H      -0.1333550000    -0.0928090000     2.1436590000
    5      C       0.8745450000     1.6661910000    -0.5628410000
    6      S       0.1220450000     0.3533910000    -1.4639410000
    7      C       1.2802450000     2.3746910000     1.8831590000
    8      H       1.0574450000     1.9860910000     2.8957590000
    9      H       0.8319450000     3.3875910000     1.8088590000
   10      H       2.3806450000     2.5002910000     1.8089590000
   11      C      -0.1082550000    -1.9171090000     0.0007590000
   12      H       0.9554450000    -1.7300090000     0.0007590000
   13      H      -0.0155550000    -2.4441090000     0.9388590000
   14      H       0.0107450000    -2.5939090000    -0.8324410000
   15      H       1.3506450000     2.4974910000    -1.0963410000
 ----------------------------------------------------------------

   10    -629.3963253107      5.81e-07  Convergence criterion met
 Total energy in the final basis set =     -629.3963253107
        RIMP2         total energy =      -630.5787602572 a.u.

                    Orbital Energies (a.u.)
 --------------------------------------------------------------

 Alpha MOs
 -- Occupied --
-91.9765 -11.2766 -11.2598 -11.2492 -11.2299 -11.2278 -11.2202  -8.9768
 -6.6578  -6.6571  -6.6566  -1.1670  -1.0558  -0.9968  -0.9386  -0.8827
 -0.7464  -0.7224  -0.6447  -0.5875  -0.5820  -0.5673  -0.5521  -0.5453
 -0.5081  -0.4943  -0.4597  -0.4536  -0.3388  -0.2885

          Ground-State Mulliken Net Atomic Charges

     Atom                 Charge (a.u.)
  ----------------------------------------
      1 C                     0.015645
      2 C                    -0.269356
      3 C                     0.042909
      4 H                     0.175611
      5 C                    -0.258611
      6 S                     0.002185
      7 C                    -0.269034
      8 H                     0.102094
      9 H                     0.107806
     10 H                     0.106051
     11 C                    -0.370896
     12 H                     0.142552
     13 H                     0.129881
     14 H                     0.149017
     15 H                     0.194147
  ----------------------------------------
  Sum of atomic charges =     0.000000

                    Cartesian Multipole Moments
 -----------------------------------------------------------------
    Charge (ESU x 10^10)
                -0.0000
    Dipole Moment (Debye)
         X       1.7095      Y      -0.1556      Z       1.5516
       Tot       2.3139
    Quadrupole Moments (Debye-Ang)
        XX     -52.6489     XY       2.2043     YY     -44.9304
        XZ       0.1410     YZ       0.2782     ZZ     -48.3475

 Total job time:  38.27s(wall), 776.83s(cpu)
        *  Thank you very much for using Q-Chem.  Have a nice day.  *
