 Q-Chem 5.4, Q-Chem, Inc., Pleasanton, CA (2021)
 Q-Chem 5.4.0 for Intel X86 EM64T Linux

User input:
--------------------------------------------------------------
$molecule
0 1
C	-0.112797	-0.566489	0.005249
C	0.030803	0.265811	1.118249
C	0.267703	1.636511	0.825849
H	-0.035197	-0.116589	2.148149
C	0.310203	1.881011	-0.558351
S	0.052103	0.390011	-1.459451
C	0.449103	2.685511	1.887649
H	0.372703	2.244111	2.900249
H	-0.318497	3.484011	1.813349
H	1.440203	3.179911	1.813449
C	-0.112797	-2.016589	0.005249
H	-0.806997	-2.017089	-0.822051
H	0.606003	-2.551689	-0.597651
H	-0.750897	-2.703789	0.541049
H	0.473303	2.825011	-1.091851
$end

$rem
JOBTYPE		SP
EXCHANGE	HF
CORRELATION	pRIMP2
BASIS		cc-pvtz
METHOD		rimp2
AUX_BASIS	rimp2-cc-pvtz
SOLVENT_METHOD	PCM
PURECART	11111
SYMMETRY	false
MEM_TOTAL	110000
SCF_CONVERGENCE = 6
THRESH=10
GUI = 2
$end

$solvent
dielectric 4.90
$end
--------------------------------------------------------------

             Standard Nuclear Orientation (Angstroms)
    I     Atom           X                Y                Z
 ----------------------------------------------------------------
    1      C      -0.1127970000    -0.5664890000     0.0052490000
    2      C       0.0308030000     0.2658110000     1.1182490000
    3      C       0.2677030000     1.6365110000     0.8258490000
    4      H      -0.0351970000    -0.1165890000     2.1481490000
    5      C       0.3102030000     1.8810110000    -0.5583510000
    6      S       0.0521030000     0.3900110000    -1.4594510000
    7      C       0.4491030000     2.6855110000     1.8876490000
    8      H       0.3727030000     2.2441110000     2.9002490000
    9      H      -0.3184970000     3.4840110000     1.8133490000
   10      H       1.4402030000     3.1799110000     1.8134490000
   11      C      -0.1127970000    -2.0165890000     0.0052490000
   12      H      -0.8069970000    -2.0170890000    -0.8220510000
   13      H       0.6060030000    -2.5516890000    -0.5976510000
   14      H      -0.7508970000    -2.7037890000     0.5410490000
   15      H       0.4733030000     2.8250110000    -1.0918510000
 ----------------------------------------------------------------

   10    -629.4209263031      5.75e-07  Convergence criterion met
 Total energy in the final basis set =     -629.4209263031
        RIMP2         total energy =      -630.5977200422 a.u.

                    Orbital Energies (a.u.)
 --------------------------------------------------------------

 Alpha MOs
 -- Occupied --
-91.9802 -11.2783 -11.2559 -11.2471 -11.2268 -11.2267 -11.2184  -8.9800
 -6.6610  -6.6605  -6.6598  -1.1604  -1.0536  -0.9956  -0.9448  -0.8830
 -0.7464  -0.7181  -0.6472  -0.5900  -0.5747  -0.5660  -0.5533  -0.5460
 -0.5086  -0.4888  -0.4648  -0.4504  -0.3386  -0.2978

          Ground-State Mulliken Net Atomic Charges

     Atom                 Charge (a.u.)
  ----------------------------------------
      1 C                     0.032743
      2 C                    -0.259437
      3 C                     0.033407
      4 H                     0.179775
      5 C                    -0.256210
      6 S                    -0.004266
      7 C                    -0.273567
      8 H                     0.101704
      9 H                     0.106995
     10 H                     0.107082
     11 C                    -0.370469
     12 H                     0.118880
     13 H                     0.130428
     14 H                     0.157696
     15 H                     0.195238
  ----------------------------------------
  Sum of atomic charges =     0.000000

                    Cartesian Multipole Moments
 -----------------------------------------------------------------
    Charge (ESU x 10^10)
                -0.0000
    Dipole Moment (Debye)
         X      -0.1852      Y      -0.2160      Z       0.9685
       Tot       1.0094
    Quadrupole Moments (Debye-Ang)
        XX     -53.6654     XY       2.5454     YY     -42.1825
        XZ      -0.2389     YZ       1.2554     ZZ     -48.7434

 Total job time:  19.14s(wall), 762.53s(cpu)
        *  Thank you very much for using Q-Chem.  Have a nice day.  *
