 Q-Chem 5.4, Q-Chem, Inc., Pleasanton, CA (2021)
 Q-Chem 5.4.0 for Intel X86 EM64T Linux

User input:
--------------------------------------------------------------
$molecule
0 1
C	-0.430687	-0.419059	0.004064
C	0.109813	0.229941	1.117064
C	1.000313	1.298441	0.824664
H	-0.138587	-0.068259	2.146964
C	1.159413	1.489041	-0.559536
S	0.190413	0.326841	-1.460636
C	1.681913	2.116341	1.886464
H	1.395113	1.772241	2.899064
H	1.416413	3.191641	1.812164
H	2.787513	2.048841	1.812264
C	-0.430687	-1.869159	0.004064
H	-1.365987	-1.869659	-0.535936
H	0.038613	-2.404259	-0.808236
H	-0.846987	-2.556359	0.725764
H	1.772613	2.225041	-1.093036
$end

$rem
JOBTYPE		SP
EXCHANGE	HF
CORRELATION	pRIMP2
BASIS		cc-pvtz
METHOD		rimp2
AUX_BASIS	rimp2-cc-pvtz
SOLVENT_METHOD	PCM
PURECART	11111
SYMMETRY	false
MEM_TOTAL	110000
SCF_CONVERGENCE = 6
THRESH=10
GUI = 2
$end

$solvent
dielectric 4.90
$end
--------------------------------------------------------------

             Standard Nuclear Orientation (Angstroms)
    I     Atom           X                Y                Z
 ----------------------------------------------------------------
    1      C      -0.4306870000    -0.4190590000     0.0040640000
    2      C       0.1098130000     0.2299410000     1.1170640000
    3      C       1.0003130000     1.2984410000     0.8246640000
    4      H      -0.1385870000    -0.0682590000     2.1469640000
    5      C       1.1594130000     1.4890410000    -0.5595360000
    6      S       0.1904130000     0.3268410000    -1.4606360000
    7      C       1.6819130000     2.1163410000     1.8864640000
    8      H       1.3951130000     1.7722410000     2.8990640000
    9      H       1.4164130000     3.1916410000     1.8121640000
   10      H       2.7875130000     2.0488410000     1.8122640000
   11      C      -0.4306870000    -1.8691590000     0.0040640000
   12      H      -1.3659870000    -1.8696590000    -0.5359360000
   13      H       0.0386130000    -2.4042590000    -0.8082360000
   14      H      -0.8469870000    -2.5563590000     0.7257640000
   15      H       1.7726130000     2.2250410000    -1.0930360000
 ----------------------------------------------------------------

   10    -629.3853593924      6.05e-07  Convergence criterion met
 Total energy in the final basis set =     -629.3853593924
        RIMP2         total energy =      -630.5697764816 a.u.

                    Orbital Energies (a.u.)
 --------------------------------------------------------------

 Alpha MOs
 -- Occupied --
-91.9776 -11.2651 -11.2645 -11.2476 -11.2343 -11.2273 -11.2122  -8.9778
 -6.6587  -6.6581  -6.6575  -1.1638  -1.0527  -0.9950  -0.9427  -0.8825
 -0.7475  -0.7216  -0.6434  -0.5877  -0.5740  -0.5685  -0.5522  -0.5441
 -0.5132  -0.4871  -0.4573  -0.4455  -0.3370  -0.2909

          Ground-State Mulliken Net Atomic Charges

     Atom                 Charge (a.u.)
  ----------------------------------------
      1 C                    -0.037287
      2 C                    -0.209447
      3 C                     0.027418
      4 H                     0.180326
      5 C                    -0.235305
      6 S                     0.001540
      7 C                    -0.270548
      8 H                     0.101540
      9 H                     0.107032
     10 H                     0.105485
     11 C                    -0.381668
     12 H                     0.123316
     13 H                     0.141534
     14 H                     0.150148
     15 H                     0.195918
  ----------------------------------------
  Sum of atomic charges =     0.000000

                    Cartesian Multipole Moments
 -----------------------------------------------------------------
    Charge (ESU x 10^10)
                -0.0000
    Dipole Moment (Debye)
         X       0.6630      Y      -0.0459      Z       1.2867
       Tot       1.4482
    Quadrupole Moments (Debye-Ang)
        XX     -50.5002     XY       5.6436     YY     -46.2102
        XZ      -0.2198     YZ       0.5711     ZZ     -48.2619

 Total job time:  18.11s(wall), 746.81s(cpu)
        *  Thank you very much for using Q-Chem.  Have a nice day.  *
