 Q-Chem 5.4, Q-Chem, Inc., Pleasanton, CA (2021)
 Q-Chem 5.4.0 for Intel X86 EM64T Linux

User input:
--------------------------------------------------------------
$molecule
0 1
C	-0.118309	-0.566489	-0.002787
C	0.025291	0.265811	1.110213
C	0.262191	1.636511	0.817813
H	-0.040709	-0.116589	2.140113
C	0.304691	1.881011	-0.566387
S	0.046591	0.390011	-1.467487
C	0.443591	2.685511	1.879613
H	0.367191	2.244111	2.892213
H	-0.324009	3.484011	1.805313
H	1.434691	3.179911	1.805413
C	-0.118309	-2.016589	-0.002787
H	0.575891	-2.017089	0.824513
H	-0.837109	-2.551689	0.600113
H	0.519791	-2.703789	-0.538587
H	0.467791	2.825011	-1.099887
$end

$rem
JOBTYPE		SP
EXCHANGE	HF
CORRELATION	pRIMP2
BASIS		cc-pvtz
METHOD		rimp2
AUX_BASIS	rimp2-cc-pvtz
SOLVENT_METHOD	PCM
PURECART	11111
SYMMETRY	false
MEM_TOTAL	110000
SCF_CONVERGENCE = 6
THRESH=10
GUI = 2
$end

$solvent
dielectric 4.90
$end
--------------------------------------------------------------

             Standard Nuclear Orientation (Angstroms)
    I     Atom           X                Y                Z
 ----------------------------------------------------------------
    1      C      -0.1183090000    -0.5664890000    -0.0027870000
    2      C       0.0252910000     0.2658110000     1.1102130000
    3      C       0.2621910000     1.6365110000     0.8178130000
    4      H      -0.0407090000    -0.1165890000     2.1401130000
    5      C       0.3046910000     1.8810110000    -0.5663870000
    6      S       0.0465910000     0.3900110000    -1.4674870000
    7      C       0.4435910000     2.6855110000     1.8796130000
    8      H       0.3671910000     2.2441110000     2.8922130000
    9      H      -0.3240090000     3.4840110000     1.8053130000
   10      H       1.4346910000     3.1799110000     1.8054130000
   11      C      -0.1183090000    -2.0165890000    -0.0027870000
   12      H       0.5758910000    -2.0170890000     0.8245130000
   13      H      -0.8371090000    -2.5516890000     0.6001130000
   14      H       0.5197910000    -2.7037890000    -0.5385870000
   15      H       0.4677910000     2.8250110000    -1.0998870000
 ----------------------------------------------------------------

   10    -629.4224792518      5.52e-07  Convergence criterion met
 Total energy in the final basis set =     -629.4224792518
        RIMP2         total energy =      -630.6000050500 a.u.

                    Orbital Energies (a.u.)
 --------------------------------------------------------------

 Alpha MOs
 -- Occupied --
-91.9776 -11.2815 -11.2532 -11.2475 -11.2284 -11.2272 -11.2187  -8.9773
 -6.6583  -6.6577  -6.6572  -1.1607  -1.0533  -0.9990  -0.9387  -0.8848
 -0.7423  -0.7213  -0.6472  -0.5907  -0.5750  -0.5693  -0.5577  -0.5423
 -0.5095  -0.4861  -0.4676  -0.4478  -0.3366  -0.2968

          Ground-State Mulliken Net Atomic Charges

     Atom                 Charge (a.u.)
  ----------------------------------------
      1 C                     0.055149
      2 C                    -0.269029
      3 C                     0.032581
      4 H                     0.175355
      5 C                    -0.264373
      6 S                    -0.003557
      7 C                    -0.273594
      8 H                     0.101267
      9 H                     0.107318
     10 H                     0.107121
     11 C                    -0.386850
     12 H                     0.136008
     13 H                     0.134990
     14 H                     0.154745
     15 H                     0.192868
  ----------------------------------------
  Sum of atomic charges =     0.000000

                    Cartesian Multipole Moments
 -----------------------------------------------------------------
    Charge (ESU x 10^10)
                -0.0000
    Dipole Moment (Debye)
         X       0.6557      Y      -0.3910      Z       1.9928
       Tot       2.1340
    Quadrupole Moments (Debye-Ang)
        XX     -53.8413     XY       0.3868     YY     -42.3522
        XZ      -0.2842     YZ      -0.6382     ZZ     -48.7599

 Total job time:  19.58s(wall), 749.97s(cpu)
        *  Thank you very much for using Q-Chem.  Have a nice day.  *
