 Q-Chem 5.4, Q-Chem, Inc., Pleasanton, CA (2021)
 Q-Chem 5.4.0 for Intel X86 EM64T Linux

User input:
--------------------------------------------------------------
$molecule
0 1
C	-0.591733	-0.238938	0.001609
C	0.138167	0.186062	1.114609
C	1.340467	0.885562	0.822209
H	-0.197233	-0.009138	2.144509
C	1.555067	1.010262	-0.561991
S	0.246967	0.249562	-1.463091
C	2.260667	1.420962	1.884009
H	1.873367	1.195762	2.896609
H	2.378867	2.522262	1.809709
H	3.276467	0.979462	1.809809
C	-0.591733	-1.689038	0.001609
H	0.471867	-1.689538	-0.185991
H	-0.429033	-2.224138	0.925509
H	-0.736733	-2.376238	-0.818891
H	2.383067	1.492062	-1.095491
$end

$rem
JOBTYPE		SP
EXCHANGE	HF
CORRELATION	pRIMP2
BASIS		cc-pvtz
METHOD		rimp2
AUX_BASIS	rimp2-cc-pvtz
SOLVENT_METHOD	PCM
PURECART	11111
SYMMETRY	false
MEM_TOTAL	110000
SCF_CONVERGENCE = 6
THRESH=10
GUI = 2
$end

$solvent
dielectric 4.90
$end
--------------------------------------------------------------

             Standard Nuclear Orientation (Angstroms)
    I     Atom           X                Y                Z
 ----------------------------------------------------------------
    1      C      -0.5917330000    -0.2389380000     0.0016090000
    2      C       0.1381670000     0.1860620000     1.1146090000
    3      C       1.3404670000     0.8855620000     0.8222090000
    4      H      -0.1972330000    -0.0091380000     2.1445090000
    5      C       1.5550670000     1.0102620000    -0.5619910000
    6      S       0.2469670000     0.2495620000    -1.4630910000
    7      C       2.2606670000     1.4209620000     1.8840090000
    8      H       1.8733670000     1.1957620000     2.8966090000
    9      H       2.3788670000     2.5222620000     1.8097090000
   10      H       3.2764670000     0.9794620000     1.8098090000
   11      C      -0.5917330000    -1.6890380000     0.0016090000
   12      H       0.4718670000    -1.6895380000    -0.1859910000
   13      H      -0.4290330000    -2.2241380000     0.9255090000
   14      H      -0.7367330000    -2.3762380000    -0.8188910000
   15      H       2.3830670000     1.4920620000    -1.0954910000
 ----------------------------------------------------------------

   10    -629.3529165166      9.55e-07  Convergence criterion met
 Total energy in the final basis set =     -629.3529165166
        RIMP2         total energy =      -630.5439088975 a.u.

                    Orbital Energies (a.u.)
 --------------------------------------------------------------

 Alpha MOs
 -- Occupied --
-91.9732 -11.2796 -11.2581 -11.2518 -11.2457 -11.2297 -11.2156  -8.9745
 -6.6553  -6.6545  -6.6542  -1.1783  -1.0589  -0.9981  -0.9377  -0.8813
 -0.7530  -0.7298  -0.6442  -0.5902  -0.5867  -0.5670  -0.5529  -0.5453
 -0.5092  -0.4968  -0.4610  -0.4330  -0.3395  -0.2908

          Ground-State Mulliken Net Atomic Charges

     Atom                 Charge (a.u.)
  ----------------------------------------
      1 C                    -0.071410
      2 C                    -0.160901
      3 C                    -0.006705
      4 H                     0.183008
      5 C                    -0.203082
      6 S                     0.007331
      7 C                    -0.267615
      8 H                     0.102881
      9 H                     0.107716
     10 H                     0.105303
     11 C                    -0.357923
     12 H                     0.108487
     13 H                     0.121590
     14 H                     0.133664
     15 H                     0.197656
  ----------------------------------------
  Sum of atomic charges =     0.000000

                    Cartesian Multipole Moments
 -----------------------------------------------------------------
    Charge (ESU x 10^10)
                -0.0000
    Dipole Moment (Debye)
         X       2.6974      Y      -0.1586      Z       1.6831
       Tot       3.1834
    Quadrupole Moments (Debye-Ang)
        XX     -48.8602     XY       3.8315     YY     -49.7462
        XZ       0.0132     YZ       0.3301     ZZ     -47.8084

 Total job time:  16.59s(wall), 755.52s(cpu)
        *  Thank you very much for using Q-Chem.  Have a nice day.  *
