 Q-Chem 5.4, Q-Chem, Inc., Pleasanton, CA (2021)
 Q-Chem 5.4.0 for Intel X86 EM64T Linux

User input:
--------------------------------------------------------------
$molecule
0 1
C	-0.583464	-0.238938	0.004709
C	0.146436	0.186062	1.117709
C	1.348736	0.885562	0.825309
H	-0.188964	-0.009138	2.147609
C	1.563336	1.010262	-0.558891
S	0.255236	0.249562	-1.459991
C	2.268936	1.420962	1.887109
H	1.881636	1.195762	2.899709
H	2.387136	2.522262	1.812809
H	3.284736	0.979462	1.812909
C	-0.583464	-1.689038	0.004709
H	-1.410764	-1.689538	-0.689491
H	0.019736	-2.224138	-0.713791
H	-1.118764	-2.376238	0.643209
H	2.391336	1.492062	-1.092391
$end

$rem
JOBTYPE		SP
EXCHANGE	HF
CORRELATION	pRIMP2
BASIS		cc-pvtz
METHOD		rimp2
AUX_BASIS	rimp2-cc-pvtz
SOLVENT_METHOD	PCM
PURECART	11111
SYMMETRY	false
MEM_TOTAL	110000
SCF_CONVERGENCE = 6
THRESH=10
GUI = 2
$end

$solvent
dielectric 4.90
$end
--------------------------------------------------------------

             Standard Nuclear Orientation (Angstroms)
    I     Atom           X                Y                Z
 ----------------------------------------------------------------
    1      C      -0.5834640000    -0.2389380000     0.0047090000
    2      C       0.1464360000     0.1860620000     1.1177090000
    3      C       1.3487360000     0.8855620000     0.8253090000
    4      H      -0.1889640000    -0.0091380000     2.1476090000
    5      C       1.5633360000     1.0102620000    -0.5588910000
    6      S       0.2552360000     0.2495620000    -1.4599910000
    7      C       2.2689360000     1.4209620000     1.8871090000
    8      H       1.8816360000     1.1957620000     2.8997090000
    9      H       2.3871360000     2.5222620000     1.8128090000
   10      H       3.2847360000     0.9794620000     1.8129090000
   11      C      -0.5834640000    -1.6890380000     0.0047090000
   12      H      -1.4107640000    -1.6895380000    -0.6894910000
   13      H       0.0197360000    -2.2241380000    -0.7137910000
   14      H      -1.1187640000    -2.3762380000     0.6432090000
   15      H       2.3913360000     1.4920620000    -1.0923910000
 ----------------------------------------------------------------

   11    -629.3441612055      5.68e-07  Convergence criterion met
 Total energy in the final basis set =     -629.3441612055
        RIMP2         total energy =      -630.5344373115 a.u.

                    Orbital Energies (a.u.)
 --------------------------------------------------------------

 Alpha MOs
 -- Occupied --
-91.9758 -11.2836 -11.2514 -11.2487 -11.2403 -11.2287 -11.2065  -8.9766
 -6.6574  -6.6566  -6.6563  -1.1723  -1.0545  -0.9958  -0.9421  -0.8809
 -0.7534  -0.7285  -0.6412  -0.5921  -0.5776  -0.5685  -0.5513  -0.5437
 -0.5179  -0.4795  -0.4553  -0.4292  -0.3346  -0.2941

          Ground-State Mulliken Net Atomic Charges

     Atom                 Charge (a.u.)
  ----------------------------------------
      1 C                    -0.130312
      2 C                    -0.091870
      3 C                    -0.025622
      4 H                     0.185083
      5 C                    -0.176497
      6 S                     0.010032
      7 C                    -0.268602
      8 H                     0.102059
      9 H                     0.106513
     10 H                     0.103983
     11 C                    -0.390767
     12 H                     0.113871
     13 H                     0.126452
     14 H                     0.136187
     15 H                     0.199491
  ----------------------------------------
  Sum of atomic charges =     0.000000

                    Cartesian Multipole Moments
 -----------------------------------------------------------------
    Charge (ESU x 10^10)
                -0.0000
    Dipole Moment (Debye)
         X       2.1008      Y       0.2189      Z       1.4717
       Tot       2.5744
    Quadrupole Moments (Debye-Ang)
        XX     -47.6901     XY       5.2368     YY     -49.9998
        XZ      -0.5840     YZ       0.4656     ZZ     -47.7259

 Total job time:  18.13s(wall), 834.63s(cpu)
        *  Thank you very much for using Q-Chem.  Have a nice day.  *
