 Q-Chem 5.4, Q-Chem, Inc., Pleasanton, CA (2021)
 Q-Chem 5.4.0 for Intel X86 EM64T Linux

User input:
--------------------------------------------------------------
$molecule
0 1
C	-0.233415	-0.536244	-0.002247
C	0.052585	0.258456	1.110753
C	0.523885	1.567156	0.818353
H	-0.078915	-0.106644	2.140653
C	0.608185	1.800556	-0.565847
S	0.095085	0.377056	-1.466947
C	0.884685	2.568756	1.880153
H	0.732785	2.147356	2.892753
H	0.267385	3.488456	1.805853
H	1.946585	2.883556	1.805953
C	-0.233415	-1.986344	-0.002247
H	0.593885	-1.986844	0.691953
H	-0.836615	-2.521444	0.716253
H	0.301885	-2.673544	-0.640747
H	0.932685	2.701956	-1.099347
$end

$rem
JOBTYPE		SP
EXCHANGE	HF
CORRELATION	pRIMP2
BASIS		cc-pvtz
METHOD		rimp2
AUX_BASIS	rimp2-cc-pvtz
SOLVENT_METHOD	PCM
PURECART	11111
SYMMETRY	false
MEM_TOTAL	110000
SCF_CONVERGENCE = 6
THRESH=10
GUI = 2
$end

$solvent
dielectric 4.90
$end
--------------------------------------------------------------

             Standard Nuclear Orientation (Angstroms)
    I     Atom           X                Y                Z
 ----------------------------------------------------------------
    1      C      -0.2334150000    -0.5362440000    -0.0022470000
    2      C       0.0525850000     0.2584560000     1.1107530000
    3      C       0.5238850000     1.5671560000     0.8183530000
    4      H      -0.0789150000    -0.1066440000     2.1406530000
    5      C       0.6081850000     1.8005560000    -0.5658470000
    6      S       0.0950850000     0.3770560000    -1.4669470000
    7      C       0.8846850000     2.5687560000     1.8801530000
    8      H       0.7327850000     2.1473560000     2.8927530000
    9      H       0.2673850000     3.4884560000     1.8058530000
   10      H       1.9465850000     2.8835560000     1.8059530000
   11      C      -0.2334150000    -1.9863440000    -0.0022470000
   12      H       0.5938850000    -1.9868440000     0.6919530000
   13      H      -0.8366150000    -2.5214440000     0.7162530000
   14      H       0.3018850000    -2.6735440000    -0.6407470000
   15      H       0.9326850000     2.7019560000    -1.0993470000
 ----------------------------------------------------------------

   10    -629.4157441489      5.71e-07  Convergence criterion met
 Total energy in the final basis set =     -629.4157441489
        RIMP2         total energy =      -630.5943734266 a.u.

                    Orbital Energies (a.u.)
 --------------------------------------------------------------

 Alpha MOs
 -- Occupied --
-91.9786 -11.2814 -11.2529 -11.2479 -11.2272 -11.2270 -11.2187  -8.9783
 -6.6592  -6.6587  -6.6581  -1.1617  -1.0537  -0.9986  -0.9382  -0.8843
 -0.7426  -0.7211  -0.6465  -0.5899  -0.5742  -0.5713  -0.5564  -0.5429
 -0.5098  -0.4842  -0.4674  -0.4516  -0.3364  -0.2932

          Ground-State Mulliken Net Atomic Charges

     Atom                 Charge (a.u.)
  ----------------------------------------
      1 C                     0.040213
      2 C                    -0.269510
      3 C                     0.036454
      4 H                     0.174646
      5 C                    -0.268515
      6 S                     0.001659
      7 C                    -0.271693
      8 H                     0.101422
      9 H                     0.107363
     10 H                     0.106745
     11 C                    -0.389793
     12 H                     0.144681
     13 H                     0.135697
     14 H                     0.157808
     15 H                     0.192823
  ----------------------------------------
  Sum of atomic charges =     0.000000

                    Cartesian Multipole Moments
 -----------------------------------------------------------------
    Charge (ESU x 10^10)
                -0.0000
    Dipole Moment (Debye)
         X       0.9631      Y      -0.4704      Z       1.8995
       Tot       2.1810
    Quadrupole Moments (Debye-Ang)
        XX     -53.4226     XY       1.5856     YY     -43.2087
        XZ      -0.2228     YZ      -0.4842     ZZ     -48.6105

 Total job time:  15.88s(wall), 752.50s(cpu)
        *  Thank you very much for using Q-Chem.  Have a nice day.  *
