 Q-Chem 5.4, Q-Chem, Inc., Pleasanton, CA (2021)
 Q-Chem 5.4.0 for Intel X86 EM64T Linux

User input:
--------------------------------------------------------------
$molecule
0 1
C	-0.517341	-0.335659	-0.003463
C	0.127659	0.209641	1.109537
C	1.190259	1.107341	0.817137
H	-0.168741	-0.040859	2.139437
C	1.379859	1.267341	-0.567063
S	0.223859	0.291041	-1.468163
C	2.003459	1.794341	1.878937
H	1.661259	1.505341	2.891537
H	1.928659	2.899441	1.804637
H	3.080459	1.535941	1.804737
C	-0.517341	-1.785759	-0.003463
H	-0.704841	-1.786259	1.060137
H	-1.441241	-2.320859	-0.166563
H	0.303259	-2.472959	0.140937
H	2.111659	1.885641	-1.100563
$end

$rem
JOBTYPE		SP
EXCHANGE	HF
CORRELATION	pRIMP2
BASIS		cc-pvtz
METHOD		rimp2
AUX_BASIS	rimp2-cc-pvtz
SOLVENT_METHOD	PCM
PURECART	11111
SYMMETRY	false
MEM_TOTAL	110000
SCF_CONVERGENCE = 6
THRESH=10
GUI = 2
$end

$solvent
dielectric 4.90
$end
--------------------------------------------------------------

             Standard Nuclear Orientation (Angstroms)
    I     Atom           X                Y                Z
 ----------------------------------------------------------------
    1      C      -0.5173410000    -0.3356590000    -0.0034630000
    2      C       0.1276590000     0.2096410000     1.1095370000
    3      C       1.1902590000     1.1073410000     0.8171370000
    4      H      -0.1687410000    -0.0408590000     2.1394370000
    5      C       1.3798590000     1.2673410000    -0.5670630000
    6      S       0.2238590000     0.2910410000    -1.4681630000
    7      C       2.0034590000     1.7943410000     1.8789370000
    8      H       1.6612590000     1.5053410000     2.8915370000
    9      H       1.9286590000     2.8994410000     1.8046370000
   10      H       3.0804590000     1.5359410000     1.8047370000
   11      C      -0.5173410000    -1.7857590000    -0.0034630000
   12      H      -0.7048410000    -1.7862590000     1.0601370000
   13      H      -1.4412410000    -2.3208590000    -0.1665630000
   14      H       0.3032590000    -2.4729590000     0.1409370000
   15      H       2.1116590000     1.8856410000    -1.1005630000
 ----------------------------------------------------------------

   10    -629.3748773181      8.14e-07  Convergence criterion met
 Total energy in the final basis set =     -629.3748773181
        RIMP2         total energy =      -630.5625958173 a.u.

                    Orbital Energies (a.u.)
 --------------------------------------------------------------

 Alpha MOs
 -- Occupied --
-91.9727 -11.2764 -11.2532 -11.2493 -11.2482 -11.2291 -11.2097  -8.9735
 -6.6543  -6.6535  -6.6532  -1.1692  -1.0535  -1.0003  -0.9349  -0.8848
 -0.7460  -0.7310  -0.6443  -0.5867  -0.5837  -0.5697  -0.5537  -0.5415
 -0.5186  -0.4729  -0.4611  -0.4267  -0.3349  -0.3074

          Ground-State Mulliken Net Atomic Charges

     Atom                 Charge (a.u.)
  ----------------------------------------
      1 C                    -0.068578
      2 C                    -0.167194
      3 C                     0.002164
      4 H                     0.178176
      5 C                    -0.202916
      6 S                     0.004686
      7 C                    -0.267820
      8 H                     0.101733
      9 H                     0.106882
     10 H                     0.105639
     11 C                    -0.349800
     12 H                     0.105140
     13 H                     0.111203
     14 H                     0.144268
     15 H                     0.196415
  ----------------------------------------
  Sum of atomic charges =     0.000000

                    Cartesian Multipole Moments
 -----------------------------------------------------------------
    Charge (ESU x 10^10)
                -0.0000
    Dipole Moment (Debye)
         X       1.8118      Y       0.3257      Z       2.3155
       Tot       2.9581
    Quadrupole Moments (Debye-Ang)
        XX     -48.9241     XY       4.6656     YY     -48.2882
        XZ      -0.2680     YZ      -0.9946     ZZ     -48.4450

 Total job time:  20.35s(wall), 771.53s(cpu)
        *  Thank you very much for using Q-Chem.  Have a nice day.  *
