 Q-Chem 5.4, Q-Chem, Inc., Pleasanton, CA (2021)
 Q-Chem 5.4.0 for Intel X86 EM64T Linux

User input:
--------------------------------------------------------------
$molecule
0 1
C	-0.052099	-0.574004	0.002537
C	0.018401	0.267696	1.115537
C	0.135001	1.653696	0.823137
H	-0.013999	-0.119104	2.145437
C	0.156001	1.900996	-0.561063
S	0.028801	0.393196	-1.462163
C	0.224201	2.714596	1.884937
H	0.186601	2.268196	2.897537
H	-0.610099	3.443096	1.810637
H	1.168501	3.293496	1.810737
C	-0.052099	-2.024104	0.002537
H	-1.115699	-2.024604	-0.184963
H	0.111001	-2.559204	-0.921363
H	-0.196499	-2.711304	0.823137
H	0.236201	2.855696	-1.094563
$end

$rem
JOBTYPE		SP
EXCHANGE	HF
CORRELATION	pRIMP2
BASIS		cc-pvtz
METHOD		rimp2
AUX_BASIS	rimp2-cc-pvtz
SOLVENT_METHOD	PCM
PURECART	11111
SYMMETRY	false
MEM_TOTAL	110000
SCF_CONVERGENCE = 6
THRESH=10
GUI = 2
$end

$solvent
dielectric 4.90
$end
--------------------------------------------------------------

             Standard Nuclear Orientation (Angstroms)
    I     Atom           X                Y                Z
 ----------------------------------------------------------------
    1      C      -0.0520990000    -0.5740040000     0.0025370000
    2      C       0.0184010000     0.2676960000     1.1155370000
    3      C       0.1350010000     1.6536960000     0.8231370000
    4      H      -0.0139990000    -0.1191040000     2.1454370000
    5      C       0.1560010000     1.9009960000    -0.5610630000
    6      S       0.0288010000     0.3931960000    -1.4621630000
    7      C       0.2242010000     2.7145960000     1.8849370000
    8      H       0.1866010000     2.2681960000     2.8975370000
    9      H      -0.6100990000     3.4430960000     1.8106370000
   10      H       1.1685010000     3.2934960000     1.8107370000
   11      C      -0.0520990000    -2.0241040000     0.0025370000
   12      H      -1.1156990000    -2.0246040000    -0.1849630000
   13      H       0.1110010000    -2.5592040000    -0.9213630000
   14      H      -0.1964990000    -2.7113040000     0.8231370000
   15      H       0.2362010000     2.8556960000    -1.0945630000
 ----------------------------------------------------------------

   10    -629.4240942561      6.81e-07  Convergence criterion met
 Total energy in the final basis set =     -629.4240942561
        RIMP2         total energy =      -630.5991499837 a.u.

                    Orbital Energies (a.u.)
 --------------------------------------------------------------

 Alpha MOs
 -- Occupied --
-91.9794 -11.2850 -11.2498 -11.2469 -11.2264 -11.2225 -11.2223  -8.9791
 -6.6601  -6.6596  -6.6590  -1.1598  -1.0545  -0.9967  -0.9425  -0.8834
 -0.7441  -0.7179  -0.6482  -0.5870  -0.5741  -0.5669  -0.5531  -0.5461
 -0.5075  -0.4956  -0.4651  -0.4566  -0.3384  -0.2896

          Ground-State Mulliken Net Atomic Charges

     Atom                 Charge (a.u.)
  ----------------------------------------
      1 C                     0.053462
      2 C                    -0.295808
      3 C                     0.045267
      4 H                     0.176845
      5 C                    -0.277760
      6 S                     0.000171
      7 C                    -0.273888
      8 H                     0.101512
      9 H                     0.107276
     10 H                     0.107229
     11 C                    -0.382268
     12 H                     0.138874
     13 H                     0.140626
     14 H                     0.164269
     15 H                     0.194193
  ----------------------------------------
  Sum of atomic charges =     0.000000

                    Cartesian Multipole Moments
 -----------------------------------------------------------------
    Charge (ESU x 10^10)
                -0.0000
    Dipole Moment (Debye)
         X      -0.6330      Y      -0.6989      Z       1.2707
       Tot       1.5823
    Quadrupole Moments (Debye-Ang)
        XX     -54.2817     XY       2.3018     YY     -41.7080
        XZ      -0.1027     YZ       0.5519     ZZ     -48.5683

 Total job time:  16.14s(wall), 772.92s(cpu)
        *  Thank you very much for using Q-Chem.  Have a nice day.  *
