 Q-Chem 5.4, Q-Chem, Inc., Pleasanton, CA (2021)
 Q-Chem 5.4.0 for Intel X86 EM64T Linux

User input:
--------------------------------------------------------------
$molecule
0 1
C	-0.514630	-0.335659	-0.001525
C	0.130370	0.209641	1.111475
C	1.192970	1.107341	0.819075
H	-0.166030	-0.040859	2.141375
C	1.382570	1.267341	-0.565125
S	0.226570	0.291041	-1.466225
C	2.006170	1.794341	1.880875
H	1.663970	1.505341	2.893475
H	1.931370	2.899441	1.806575
H	3.083170	1.535941	1.806675
C	-0.514630	-1.785759	-0.001525
H	-1.341930	-1.786259	0.692675
H	-1.117530	-2.320859	-0.720325
H	0.021170	-2.472959	0.636575
H	2.114370	1.885641	-1.098625
$end

$rem
JOBTYPE		SP
EXCHANGE	HF
CORRELATION	pRIMP2
BASIS		cc-pvtz
METHOD		rimp2
AUX_BASIS	rimp2-cc-pvtz
SOLVENT_METHOD	PCM
PURECART	11111
SYMMETRY	false
MEM_TOTAL	110000
SCF_CONVERGENCE = 6
THRESH=10
GUI = 2
$end

$solvent
dielectric 4.90
$end
--------------------------------------------------------------

             Standard Nuclear Orientation (Angstroms)
    I     Atom           X                Y                Z
 ----------------------------------------------------------------
    1      C      -0.5146300000    -0.3356590000    -0.0015250000
    2      C       0.1303700000     0.2096410000     1.1114750000
    3      C       1.1929700000     1.1073410000     0.8190750000
    4      H      -0.1660300000    -0.0408590000     2.1413750000
    5      C       1.3825700000     1.2673410000    -0.5651250000
    6      S       0.2265700000     0.2910410000    -1.4662250000
    7      C       2.0061700000     1.7943410000     1.8808750000
    8      H       1.6639700000     1.5053410000     2.8934750000
    9      H       1.9313700000     2.8994410000     1.8065750000
   10      H       3.0831700000     1.5359410000     1.8066750000
   11      C      -0.5146300000    -1.7857590000    -0.0015250000
   12      H      -1.3419300000    -1.7862590000     0.6926750000
   13      H      -1.1175300000    -2.3208590000    -0.7203250000
   14      H       0.0211700000    -2.4729590000     0.6365750000
   15      H       2.1143700000     1.8856410000    -1.0986250000
 ----------------------------------------------------------------

   10    -629.3720405851      9.47e-07  Convergence criterion met
 Total energy in the final basis set =     -629.3720405851
        RIMP2         total energy =      -630.5603818287 a.u.

                    Orbital Energies (a.u.)
 --------------------------------------------------------------

 Alpha MOs
 -- Occupied --
-91.9719 -11.2736 -11.2543 -11.2492 -11.2462 -11.2287 -11.2102  -8.9727
 -6.6536  -6.6527  -6.6524  -1.1674  -1.0527  -0.9981  -0.9375  -0.8844
 -0.7464  -0.7278  -0.6443  -0.5845  -0.5807  -0.5655  -0.5550  -0.5419
 -0.5176  -0.4871  -0.4595  -0.4262  -0.3366  -0.2955

          Ground-State Mulliken Net Atomic Charges

     Atom                 Charge (a.u.)
  ----------------------------------------
      1 C                    -0.061939
      2 C                    -0.176399
      3 C                     0.000846
      4 H                     0.180697
      5 C                    -0.204599
      6 S                     0.006011
      7 C                    -0.268946
      8 H                     0.101680
      9 H                     0.106937
     10 H                     0.105756
     11 C                    -0.384352
     12 H                     0.120515
     13 H                     0.128452
     14 H                     0.150548
     15 H                     0.194795
  ----------------------------------------
  Sum of atomic charges =     0.000000

                    Cartesian Multipole Moments
 -----------------------------------------------------------------
    Charge (ESU x 10^10)
                -0.0000
    Dipole Moment (Debye)
         X       1.3151      Y       0.1543      Z       2.1196
       Tot       2.4992
    Quadrupole Moments (Debye-Ang)
        XX     -48.8941     XY       5.5343     YY     -48.1809
        XZ       0.1290     YZ      -0.6475     ZZ     -48.1895

 Total job time:  16.03s(wall), 745.48s(cpu)
        *  Thank you very much for using Q-Chem.  Have a nice day.  *
