 Q-Chem 5.4, Q-Chem, Inc., Pleasanton, CA (2021)
 Q-Chem 5.4.0 for Intel X86 EM64T Linux

User input:
--------------------------------------------------------------
$molecule
0 1
C	-0.061512	-0.574004	0.002446
C	0.008988	0.267696	1.115446
C	0.125588	1.653696	0.823046
H	-0.023412	-0.119104	2.145346
C	0.146588	1.900996	-0.561154
S	0.019388	0.393196	-1.462254
C	0.214788	2.714596	1.884846
H	0.177188	2.268196	2.897446
H	-0.619512	3.443096	1.810546
H	1.159088	3.293496	1.810646
C	-0.061512	-2.024104	0.002446
H	0.953388	-2.024604	-0.366954
H	0.259188	-2.559204	0.884046
H	-0.346812	-2.711304	-0.780354
H	0.226788	2.855696	-1.094654
$end

$rem
JOBTYPE		SP
EXCHANGE	HF
CORRELATION	pRIMP2
BASIS		cc-pvtz
METHOD		rimp2
AUX_BASIS	rimp2-cc-pvtz
SOLVENT_METHOD	PCM
PURECART	11111
SYMMETRY	false
MEM_TOTAL	110000
SCF_CONVERGENCE = 6
THRESH=10
GUI = 2
$end

$solvent
dielectric 4.90
$end
--------------------------------------------------------------

             Standard Nuclear Orientation (Angstroms)
    I     Atom           X                Y                Z
 ----------------------------------------------------------------
    1      C      -0.0615120000    -0.5740040000     0.0024460000
    2      C       0.0089880000     0.2676960000     1.1154460000
    3      C       0.1255880000     1.6536960000     0.8230460000
    4      H      -0.0234120000    -0.1191040000     2.1453460000
    5      C       0.1465880000     1.9009960000    -0.5611540000
    6      S       0.0193880000     0.3931960000    -1.4622540000
    7      C       0.2147880000     2.7145960000     1.8848460000
    8      H       0.1771880000     2.2681960000     2.8974460000
    9      H      -0.6195120000     3.4430960000     1.8105460000
   10      H       1.1590880000     3.2934960000     1.8106460000
   11      C      -0.0615120000    -2.0241040000     0.0024460000
   12      H       0.9533880000    -2.0246040000    -0.3669540000
   13      H       0.2591880000    -2.5592040000     0.8840460000
   14      H      -0.3468120000    -2.7113040000    -0.7803540000
   15      H       0.2267880000     2.8556960000    -1.0946540000
 ----------------------------------------------------------------

   10    -629.4262223032      6.73e-07  Convergence criterion met
 Total energy in the final basis set =     -629.4262223032
        RIMP2         total energy =      -630.6011058495 a.u.

                    Orbital Energies (a.u.)
 --------------------------------------------------------------

 Alpha MOs
 -- Occupied --
-91.9781 -11.2851 -11.2507 -11.2470 -11.2266 -11.2240 -11.2228  -8.9780
 -6.6590  -6.6585  -6.6578  -1.1603  -1.0547  -0.9967  -0.9425  -0.8834
 -0.7448  -0.7181  -0.6469  -0.5896  -0.5761  -0.5680  -0.5505  -0.5465
 -0.5071  -0.4947  -0.4663  -0.4552  -0.3388  -0.2912

          Ground-State Mulliken Net Atomic Charges

     Atom                 Charge (a.u.)
  ----------------------------------------
      1 C                     0.056822
      2 C                    -0.302025
      3 C                     0.048586
      4 H                     0.178809
      5 C                    -0.274267
      6 S                    -0.005361
      7 C                    -0.273501
      8 H                     0.101468
      9 H                     0.107345
     10 H                     0.107392
     11 C                    -0.376241
     12 H                     0.137979
     13 H                     0.142679
     14 H                     0.156588
     15 H                     0.193726
  ----------------------------------------
  Sum of atomic charges =     0.000000

                    Cartesian Multipole Moments
 -----------------------------------------------------------------
    Charge (ESU x 10^10)
                -0.0000
    Dipole Moment (Debye)
         X       0.7776      Y      -0.6557      Z       1.1955
       Tot       1.5697
    Quadrupole Moments (Debye-Ang)
        XX     -54.3709     XY      -0.6650     YY     -41.7072
        XZ       0.2604     YZ       1.0203     ZZ     -48.6335

 Total job time:  15.80s(wall), 742.64s(cpu)
        *  Thank you very much for using Q-Chem.  Have a nice day.  *
