 Q-Chem 5.4, Q-Chem, Inc., Pleasanton, CA (2021)
 Q-Chem 5.4.0 for Intel X86 EM64T Linux

User input:
--------------------------------------------------------------
$molecule
0 1
C	-0.177449	-0.553870	0.003987
C	0.038151	0.262730	1.116987
C	0.393651	1.607530	0.824587
H	-0.060949	-0.112470	2.146887
C	0.457251	1.847430	-0.559613
S	0.070151	0.384630	-1.460713
C	0.665751	2.636830	1.886387
H	0.551151	2.203730	2.898987
H	-0.029349	3.499130	1.812087
H	1.696251	3.042930	1.812187
C	-0.177449	-2.003970	0.003987
H	0.649851	-2.004470	-0.690213
H	0.425451	-2.539070	0.722787
H	-0.713249	-2.691170	-0.634113
H	0.702051	2.773630	-1.093113
$end

$rem
JOBTYPE		SP
EXCHANGE	HF
CORRELATION	pRIMP2
BASIS		cc-pvtz
METHOD		rimp2
AUX_BASIS	rimp2-cc-pvtz
SOLVENT_METHOD	PCM
PURECART	11111
SYMMETRY	false
MEM_TOTAL	110000
SCF_CONVERGENCE = 6
THRESH=10
GUI = 2
$end

$solvent
dielectric 4.90
$end
--------------------------------------------------------------

             Standard Nuclear Orientation (Angstroms)
    I     Atom           X                Y                Z
 ----------------------------------------------------------------
    1      C      -0.1774490000    -0.5538700000     0.0039870000
    2      C       0.0381510000     0.2627300000     1.1169870000
    3      C       0.3936510000     1.6075300000     0.8245870000
    4      H      -0.0609490000    -0.1124700000     2.1468870000
    5      C       0.4572510000     1.8474300000    -0.5596130000
    6      S       0.0701510000     0.3846300000    -1.4607130000
    7      C       0.6657510000     2.6368300000     1.8863870000
    8      H       0.5511510000     2.2037300000     2.8989870000
    9      H      -0.0293490000     3.4991300000     1.8120870000
   10      H       1.6962510000     3.0429300000     1.8121870000
   11      C      -0.1774490000    -2.0039700000     0.0039870000
   12      H       0.6498510000    -2.0044700000    -0.6902130000
   13      H       0.4254510000    -2.5390700000     0.7227870000
   14      H      -0.7132490000    -2.6911700000    -0.6341130000
   15      H       0.7020510000     2.7736300000    -1.0931130000
 ----------------------------------------------------------------

   10    -629.4214880651      6.38e-07  Convergence criterion met
 Total energy in the final basis set =     -629.4214880651
        RIMP2         total energy =      -630.5978961311 a.u.

                    Orbital Energies (a.u.)
 --------------------------------------------------------------

 Alpha MOs
 -- Occupied --
-91.9774 -11.2807 -11.2546 -11.2471 -11.2273 -11.2269 -11.2200  -8.9775
 -6.6585  -6.6580  -6.6574  -1.1613  -1.0544  -0.9957  -0.9435  -0.8827
 -0.7463  -0.7186  -0.6465  -0.5902  -0.5769  -0.5662  -0.5510  -0.5466
 -0.5077  -0.4922  -0.4647  -0.4518  -0.3391  -0.2951

          Ground-State Mulliken Net Atomic Charges

     Atom                 Charge (a.u.)
  ----------------------------------------
      1 C                     0.054926
      2 C                    -0.303561
      3 C                     0.054207
      4 H                     0.179598
      5 C                    -0.265960
      6 S                    -0.004278
      7 C                    -0.271794
      8 H                     0.101571
      9 H                     0.107514
     10 H                     0.107081
     11 C                    -0.373162
     12 H                     0.130798
     13 H                     0.139922
     14 H                     0.149200
     15 H                     0.193938
  ----------------------------------------
  Sum of atomic charges =     0.000000

                    Cartesian Multipole Moments
 -----------------------------------------------------------------
    Charge (ESU x 10^10)
                -0.0000
    Dipole Moment (Debye)
         X       0.8796      Y      -0.3883      Z       1.0603
       Tot       1.4313
    Quadrupole Moments (Debye-Ang)
        XX     -53.7743     XY       1.1177     YY     -42.5133
        XZ       0.4496     YZ       1.3435     ZZ     -48.6786

 Total job time:  15.59s(wall), 752.90s(cpu)
        *  Thank you very much for using Q-Chem.  Have a nice day.  *
