 Q-Chem 5.4, Q-Chem, Inc., Pleasanton, CA (2021)
 Q-Chem 5.4.0 for Intel X86 EM64T Linux

User input:
--------------------------------------------------------------
$molecule
0 1
C	-0.438128	-0.419059	0.004642
C	0.102372	0.229941	1.117642
C	0.992872	1.298441	0.825242
H	-0.146028	-0.068259	2.147542
C	1.151972	1.489041	-0.558958
S	0.182972	0.326841	-1.460058
C	1.674472	2.116341	1.887042
H	1.387672	1.772241	2.899642
H	1.408972	3.191641	1.812742
H	2.780072	2.048841	1.812842
C	-0.438128	-1.869159	0.004642
H	0.256072	-1.869659	-0.822658
H	0.280372	-2.404259	0.607842
H	-1.076628	-2.556359	-0.530658
H	1.765172	2.225041	-1.092458
$end

$rem
JOBTYPE		SP
EXCHANGE	HF
CORRELATION	pRIMP2
BASIS		cc-pvtz
METHOD		rimp2
AUX_BASIS	rimp2-cc-pvtz
SOLVENT_METHOD	PCM
PURECART	11111
SYMMETRY	false
MEM_TOTAL	110000
SCF_CONVERGENCE = 6
THRESH=10
GUI = 2
$end

$solvent
dielectric 4.90
$end
--------------------------------------------------------------

             Standard Nuclear Orientation (Angstroms)
    I     Atom           X                Y                Z
 ----------------------------------------------------------------
    1      C      -0.4381280000    -0.4190590000     0.0046420000
    2      C       0.1023720000     0.2299410000     1.1176420000
    3      C       0.9928720000     1.2984410000     0.8252420000
    4      H      -0.1460280000    -0.0682590000     2.1475420000
    5      C       1.1519720000     1.4890410000    -0.5589580000
    6      S       0.1829720000     0.3268410000    -1.4600580000
    7      C       1.6744720000     2.1163410000     1.8870420000
    8      H       1.3876720000     1.7722410000     2.8996420000
    9      H       1.4089720000     3.1916410000     1.8127420000
   10      H       2.7800720000     2.0488410000     1.8128420000
   11      C      -0.4381280000    -1.8691590000     0.0046420000
   12      H       0.2560720000    -1.8696590000    -0.8226580000
   13      H       0.2803720000    -2.4042590000     0.6078420000
   14      H      -1.0766280000    -2.5563590000    -0.5306580000
   15      H       1.7651720000     2.2250410000    -1.0924580000
 ----------------------------------------------------------------

   10    -629.3902094435      5.89e-07  Convergence criterion met
 Total energy in the final basis set =     -629.3902094435
        RIMP2         total energy =      -630.5735355309 a.u.

                    Orbital Energies (a.u.)
 --------------------------------------------------------------

 Alpha MOs
 -- Occupied --
-91.9736 -11.2682 -11.2652 -11.2476 -11.2373 -11.2278 -11.2133  -8.9746
 -6.6555  -6.6548  -6.6543  -1.1667  -1.0551  -0.9943  -0.9429  -0.8808
 -0.7498  -0.7221  -0.6442  -0.5890  -0.5798  -0.5652  -0.5510  -0.5469
 -0.5118  -0.4855  -0.4615  -0.4433  -0.3379  -0.2964

          Ground-State Mulliken Net Atomic Charges

     Atom                 Charge (a.u.)
  ----------------------------------------
      1 C                     0.002567
      2 C                    -0.246508
      3 C                     0.032769
      4 H                     0.179700
      5 C                    -0.235250
      6 S                    -0.005337
      7 C                    -0.269369
      8 H                     0.101724
      9 H                     0.107775
     10 H                     0.105997
     11 C                    -0.376939
     12 H                     0.134922
     13 H                     0.137879
     14 H                     0.135316
     15 H                     0.194753
  ----------------------------------------
  Sum of atomic charges =     0.000000

                    Cartesian Multipole Moments
 -----------------------------------------------------------------
    Charge (ESU x 10^10)
                -0.0000
    Dipole Moment (Debye)
         X       1.6539      Y      -0.0611      Z       1.1586
       Tot       2.0203
    Quadrupole Moments (Debye-Ang)
        XX     -51.0578     XY       3.6299     YY     -46.3950
        XZ       0.4929     YZ       1.2984     ZZ     -48.4014

 Total job time:  18.20s(wall), 771.43s(cpu)
        *  Thank you very much for using Q-Chem.  Have a nice day.  *
