 Q-Chem 5.4, Q-Chem, Inc., Pleasanton, CA (2021)
 Q-Chem 5.4.0 for Intel X86 EM64T Linux

User input:
--------------------------------------------------------------
$molecule
0 1
C	0.002776	-0.576386	0.006088
C	-0.000324	0.268214	1.119088
C	-0.005024	1.659214	0.826688
H	0.001076	-0.119886	2.148988
C	-0.005624	1.907314	-0.557512
S	-0.000924	0.394214	-1.458612
C	-0.008624	2.723814	1.888488
H	-0.007124	2.275814	2.901088
H	-0.903124	3.376814	1.814188
H	0.881676	3.382714	1.814288
C	0.002776	-2.026486	0.006088
H	-0.184824	-2.026986	-1.057512
H	0.926676	-2.561586	-0.156612
H	-0.817724	-2.713686	0.151088
H	-0.008924	2.865414	-1.091012
$end

$rem
JOBTYPE		SP
EXCHANGE	HF
CORRELATION	pRIMP2
BASIS		cc-pvtz
METHOD		rimp2
AUX_BASIS	rimp2-cc-pvtz
SOLVENT_METHOD	PCM
PURECART	11111
SYMMETRY	false
MEM_TOTAL	110000
SCF_CONVERGENCE = 6
THRESH=10
GUI = 2
$end

$solvent
dielectric 4.90
$end
--------------------------------------------------------------

             Standard Nuclear Orientation (Angstroms)
    I     Atom           X                Y                Z
 ----------------------------------------------------------------
    1      C       0.0027760000    -0.5763860000     0.0060880000
    2      C      -0.0003240000     0.2682140000     1.1190880000
    3      C      -0.0050240000     1.6592140000     0.8266880000
    4      H       0.0010760000    -0.1198860000     2.1489880000
    5      C      -0.0056240000     1.9073140000    -0.5575120000
    6      S      -0.0009240000     0.3942140000    -1.4586120000
    7      C      -0.0086240000     2.7238140000     1.8884880000
    8      H      -0.0071240000     2.2758140000     2.9010880000
    9      H      -0.9031240000     3.3768140000     1.8141880000
   10      H       0.8816760000     3.3827140000     1.8142880000
   11      C       0.0027760000    -2.0264860000     0.0060880000
   12      H      -0.1848240000    -2.0269860000    -1.0575120000
   13      H       0.9266760000    -2.5615860000    -0.1566120000
   14      H      -0.8177240000    -2.7136860000     0.1510880000
   15      H      -0.0089240000     2.8654140000    -1.0910120000
 ----------------------------------------------------------------

   10    -629.4219466098      5.41e-07  Convergence criterion met
 Total energy in the final basis set =     -629.4219466098
        RIMP2         total energy =      -630.5993540566 a.u.

                    Orbital Energies (a.u.)
 --------------------------------------------------------------

 Alpha MOs
 -- Occupied --
-91.9811 -11.2754 -11.2582 -11.2472 -11.2285 -11.2270 -11.2169  -8.9809
 -6.6618  -6.6613  -6.6607  -1.1606  -1.0534  -0.9952  -0.9457  -0.8828
 -0.7476  -0.7182  -0.6474  -0.5907  -0.5752  -0.5657  -0.5537  -0.5463
 -0.5086  -0.4869  -0.4650  -0.4450  -0.3381  -0.3044

          Ground-State Mulliken Net Atomic Charges

     Atom                 Charge (a.u.)
  ----------------------------------------
      1 C                     0.051332
      2 C                    -0.260476
      3 C                     0.038717
      4 H                     0.179506
      5 C                    -0.259590
      6 S                    -0.002300
      7 C                    -0.273355
      8 H                     0.102076
      9 H                     0.106904
     10 H                     0.106894
     11 C                    -0.368642
     12 H                     0.112516
     13 H                     0.125359
     14 H                     0.145106
     15 H                     0.195951
  ----------------------------------------
  Sum of atomic charges =     0.000000

                    Cartesian Multipole Moments
 -----------------------------------------------------------------
    Charge (ESU x 10^10)
                -0.0000
    Dipole Moment (Debye)
         X      -0.1052      Y       0.0128      Z       0.8644
       Tot       0.8708
    Quadrupole Moments (Debye-Ang)
        XX     -53.7077     XY       0.3199     YY     -42.0951
        XZ      -0.1027     YZ       1.5571     ZZ     -48.8585

 Total job time:  20.06s(wall), 764.53s(cpu)
        *  Thank you very much for using Q-Chem.  Have a nice day.  *
