 Q-Chem 5.4, Q-Chem, Inc., Pleasanton, CA (2021)
 Q-Chem 5.4.0 for Intel X86 EM64T Linux

User input:
--------------------------------------------------------------
$molecule
0 1
C	-0.587347	-0.238938	0.006080
C	0.142553	0.186062	1.119080
C	1.344853	0.885562	0.826680
H	-0.192847	-0.009138	2.148980
C	1.559453	1.010262	-0.557520
S	0.251353	0.249562	-1.458620
C	2.265053	1.420962	1.888480
H	1.877753	1.195762	2.901080
H	2.383253	2.522262	1.814180
H	3.280853	0.979462	1.814280
C	-0.587347	-1.689038	0.006080
H	-0.587347	-1.689538	-1.073920
H	0.350753	-2.224138	0.006280
H	-1.420547	-2.376238	0.006380
H	2.387453	1.492062	-1.091020
$end

$rem
JOBTYPE		SP
EXCHANGE	HF
CORRELATION	pRIMP2
BASIS		cc-pvtz
METHOD		rimp2
AUX_BASIS	rimp2-cc-pvtz
SOLVENT_METHOD	PCM
PURECART	11111
SYMMETRY	false
MEM_TOTAL	110000
SCF_CONVERGENCE = 6
THRESH=10
GUI = 2
$end

$solvent
dielectric 4.90
$end
--------------------------------------------------------------

             Standard Nuclear Orientation (Angstroms)
    I     Atom           X                Y                Z
 ----------------------------------------------------------------
    1      C      -0.5873470000    -0.2389380000     0.0060800000
    2      C       0.1425530000     0.1860620000     1.1190800000
    3      C       1.3448530000     0.8855620000     0.8266800000
    4      H      -0.1928470000    -0.0091380000     2.1489800000
    5      C       1.5594530000     1.0102620000    -0.5575200000
    6      S       0.2513530000     0.2495620000    -1.4586200000
    7      C       2.2650530000     1.4209620000     1.8884800000
    8      H       1.8777530000     1.1957620000     2.9010800000
    9      H       2.3832530000     2.5222620000     1.8141800000
   10      H       3.2808530000     0.9794620000     1.8142800000
   11      C      -0.5873470000    -1.6890380000     0.0060800000
   12      H      -0.5873470000    -1.6895380000    -1.0739200000
   13      H       0.3507530000    -2.2241380000     0.0062800000
   14      H      -1.4205470000    -2.3762380000     0.0063800000
   15      H       2.3874530000     1.4920620000    -1.0910200000
 ----------------------------------------------------------------

   11    -629.3464582270      4.06e-07  Convergence criterion met
 Total energy in the final basis set =     -629.3464582270
        RIMP2         total energy =      -630.5368040790 a.u.

                    Orbital Energies (a.u.)
 --------------------------------------------------------------

 Alpha MOs
 -- Occupied --
-91.9744 -11.2845 -11.2531 -11.2477 -11.2425 -11.2288 -11.2078  -8.9757
 -6.6564  -6.6555  -6.6553  -1.1748  -1.0570  -0.9950  -0.9435  -0.8785
 -0.7565  -0.7280  -0.6437  -0.5930  -0.5808  -0.5664  -0.5512  -0.5463
 -0.5177  -0.4656  -0.4550  -0.4388  -0.3280  -0.3082

          Ground-State Mulliken Net Atomic Charges

     Atom                 Charge (a.u.)
  ----------------------------------------
      1 C                    -0.113232
      2 C                    -0.107064
      3 C                    -0.018902
      4 H                     0.182887
      5 C                    -0.183808
      6 S                     0.007839
      7 C                    -0.268482
      8 H                     0.102349
      9 H                     0.106723
     10 H                     0.103672
     11 C                    -0.362786
     12 H                     0.116243
     13 H                     0.112218
     14 H                     0.122821
     15 H                     0.199523
  ----------------------------------------
  Sum of atomic charges =     0.000000

                    Cartesian Multipole Moments
 -----------------------------------------------------------------
    Charge (ESU x 10^10)
                -0.0000
    Dipole Moment (Debye)
         X       2.4794      Y       0.2340      Z       1.1970
       Tot       2.7631
    Quadrupole Moments (Debye-Ang)
        XX     -47.8925     XY       4.4534     YY     -50.1218
        XZ      -0.0274     YZ       1.1359     ZZ     -47.8789

 Total job time:  17.25s(wall), 823.39s(cpu)
        *  Thank you very much for using Q-Chem.  Have a nice day.  *
