 Q-Chem 5.4, Q-Chem, Inc., Pleasanton, CA (2021)
 Q-Chem 5.4.0 for Intel X86 EM64T Linux

User input:
--------------------------------------------------------------
$molecule
0 1
C	-0.429801	-0.419059	0.001702
C	0.110699	0.229941	1.114702
C	1.001199	1.298441	0.822302
H	-0.137701	-0.068259	2.144602
C	1.160299	1.489041	-0.561898
S	0.191299	0.326841	-1.462998
C	1.682799	2.116341	1.884102
H	1.395999	1.772241	2.896702
H	1.417299	3.191641	1.809802
H	2.788399	2.048841	1.809902
C	-0.429801	-1.869159	0.001702
H	-1.509801	-1.869659	0.001702
H	-0.429601	-2.404259	-0.936398
H	-0.429501	-2.556359	0.834902
H	1.773499	2.225041	-1.095398
$end

$rem
JOBTYPE		SP
EXCHANGE	HF
CORRELATION	pRIMP2
BASIS		cc-pvtz
METHOD		rimp2
AUX_BASIS	rimp2-cc-pvtz
SOLVENT_METHOD	PCM
PURECART	11111
SYMMETRY	false
MEM_TOTAL	110000
SCF_CONVERGENCE = 6
THRESH=10
GUI = 2
$end

$solvent
dielectric 4.90
$end
--------------------------------------------------------------

             Standard Nuclear Orientation (Angstroms)
    I     Atom           X                Y                Z
 ----------------------------------------------------------------
    1      C      -0.4298010000    -0.4190590000     0.0017020000
    2      C       0.1106990000     0.2299410000     1.1147020000
    3      C       1.0011990000     1.2984410000     0.8223020000
    4      H      -0.1377010000    -0.0682590000     2.1446020000
    5      C       1.1602990000     1.4890410000    -0.5618980000
    6      S       0.1912990000     0.3268410000    -1.4629980000
    7      C       1.6827990000     2.1163410000     1.8841020000
    8      H       1.3959990000     1.7722410000     2.8967020000
    9      H       1.4172990000     3.1916410000     1.8098020000
   10      H       2.7883990000     2.0488410000     1.8099020000
   11      C      -0.4298010000    -1.8691590000     0.0017020000
   12      H      -1.5098010000    -1.8696590000     0.0017020000
   13      H      -0.4296010000    -2.4042590000    -0.9363980000
   14      H      -0.4295010000    -2.5563590000     0.8349020000
   15      H       1.7734990000     2.2250410000    -1.0953980000
 ----------------------------------------------------------------

   10    -629.3837740399      6.19e-07  Convergence criterion met
 Total energy in the final basis set =     -629.3837740399
        RIMP2         total energy =      -630.5688729871 a.u.

                    Orbital Energies (a.u.)
 --------------------------------------------------------------

 Alpha MOs
 -- Occupied --
-91.9756 -11.2673 -11.2617 -11.2476 -11.2339 -11.2272 -11.2126  -8.9759
 -6.6568  -6.6561  -6.6556  -1.1632  -1.0525  -0.9957  -0.9409  -0.8832
 -0.7458  -0.7221  -0.6441  -0.5847  -0.5744  -0.5662  -0.5540  -0.5432
 -0.5133  -0.4942  -0.4573  -0.4428  -0.3366  -0.2865

          Ground-State Mulliken Net Atomic Charges

     Atom                 Charge (a.u.)
  ----------------------------------------
      1 C                    -0.014042
      2 C                    -0.240364
      3 C                     0.036538
      4 H                     0.177949
      5 C                    -0.246733
      6 S                     0.006122
      7 C                    -0.269753
      8 H                     0.101520
      9 H                     0.107123
     10 H                     0.105754
     11 C                    -0.383224
     12 H                     0.128965
     13 H                     0.140055
     14 H                     0.156034
     15 H                     0.194055
  ----------------------------------------
  Sum of atomic charges =     0.000000

                    Cartesian Multipole Moments
 -----------------------------------------------------------------
    Charge (ESU x 10^10)
                -0.0000
    Dipole Moment (Debye)
         X       0.4404      Y      -0.2248      Z       1.5769
       Tot       1.6526
    Quadrupole Moments (Debye-Ang)
        XX     -50.5989     XY       5.7813     YY     -46.2148
        XZ       0.0517     YZ       0.0863     ZZ     -48.1483

 Total job time:  15.98s(wall), 746.87s(cpu)
        *  Thank you very much for using Q-Chem.  Have a nice day.  *
