 Q-Chem 5.4, Q-Chem, Inc., Pleasanton, CA (2021)
 Q-Chem 5.4.0 for Intel X86 EM64T Linux

User input:
--------------------------------------------------------------
$molecule
0 1
C	-0.522611	-0.335659	-0.001602
C	0.122389	0.209641	1.111398
C	1.184989	1.107341	0.818998
H	-0.174011	-0.040859	2.141298
C	1.374589	1.267341	-0.565202
S	0.218589	0.291041	-1.466302
C	1.998189	1.794341	1.880798
H	1.655989	1.505341	2.893398
H	1.923389	2.899441	1.806498
H	3.075189	1.535941	1.806598
C	-0.522611	-1.785759	-0.001602
H	0.412689	-1.786259	0.538398
H	-0.991911	-2.320859	0.810698
H	-0.106311	-2.472959	-0.723302
H	2.106389	1.885641	-1.098702
$end

$rem
JOBTYPE		SP
EXCHANGE	HF
CORRELATION	pRIMP2
BASIS		cc-pvtz
METHOD		rimp2
AUX_BASIS	rimp2-cc-pvtz
SOLVENT_METHOD	PCM
PURECART	11111
SYMMETRY	false
MEM_TOTAL	110000
SCF_CONVERGENCE = 6
THRESH=10
GUI = 2
$end

$solvent
dielectric 4.90
$end
--------------------------------------------------------------

             Standard Nuclear Orientation (Angstroms)
    I     Atom           X                Y                Z
 ----------------------------------------------------------------
    1      C      -0.5226110000    -0.3356590000    -0.0016020000
    2      C       0.1223890000     0.2096410000     1.1113980000
    3      C       1.1849890000     1.1073410000     0.8189980000
    4      H      -0.1740110000    -0.0408590000     2.1412980000
    5      C       1.3745890000     1.2673410000    -0.5652020000
    6      S       0.2185890000     0.2910410000    -1.4663020000
    7      C       1.9981890000     1.7943410000     1.8807980000
    8      H       1.6559890000     1.5053410000     2.8933980000
    9      H       1.9233890000     2.8994410000     1.8064980000
   10      H       3.0751890000     1.5359410000     1.8065980000
   11      C      -0.5226110000    -1.7857590000    -0.0016020000
   12      H       0.4126890000    -1.7862590000     0.5383980000
   13      H      -0.9919110000    -2.3208590000     0.8106980000
   14      H      -0.1063110000    -2.4729590000    -0.7233020000
   15      H       2.1063890000     1.8856410000    -1.0987020000
 ----------------------------------------------------------------

   10    -629.3673545834      8.08e-07  Convergence criterion met
 Total energy in the final basis set =     -629.3673545834
        RIMP2         total energy =      -630.5568843966 a.u.

                    Orbital Energies (a.u.)
 --------------------------------------------------------------

 Alpha MOs
 -- Occupied --
-91.9793 -11.2681 -11.2646 -11.2499 -11.2364 -11.2286 -11.2127  -8.9793
 -6.6602  -6.6595  -6.6591  -1.1710  -1.0555  -0.9992  -0.9348  -0.8831
 -0.7466  -0.7268  -0.6437  -0.5892  -0.5791  -0.5717  -0.5539  -0.5446
 -0.5132  -0.4813  -0.4560  -0.4526  -0.3348  -0.2882

          Ground-State Mulliken Net Atomic Charges

     Atom                 Charge (a.u.)
  ----------------------------------------
      1 C                    -0.052400
      2 C                    -0.178814
      3 C                     0.000898
      4 H                     0.179214
      5 C                    -0.233425
      6 S                     0.020237
      7 C                    -0.267890
      8 H                     0.102174
      9 H                     0.107384
     10 H                     0.104644
     11 C                    -0.382272
     12 H                     0.135346
     13 H                     0.116441
     14 H                     0.152313
     15 H                     0.196149
  ----------------------------------------
  Sum of atomic charges =     0.000000

                    Cartesian Multipole Moments
 -----------------------------------------------------------------
    Charge (ESU x 10^10)
                -0.0000
    Dipole Moment (Debye)
         X       2.0920      Y      -0.1513      Z       1.8332
       Tot       2.7857
    Quadrupole Moments (Debye-Ang)
        XX     -50.1768     XY       3.6322     YY     -48.1854
        XZ      -0.2975     YZ      -0.4360     ZZ     -47.9387

 Total job time:  16.41s(wall), 748.27s(cpu)
        *  Thank you very much for using Q-Chem.  Have a nice day.  *
