 Q-Chem 5.4, Q-Chem, Inc., Pleasanton, CA (2021)
 Q-Chem 5.4.0 for Intel X86 EM64T Linux

User input:
--------------------------------------------------------------
$molecule
0 1
C	-0.225154	-0.536244	0.001702
C	0.060846	0.258456	1.114702
C	0.532146	1.567156	0.822302
H	-0.070654	-0.106644	2.144602
C	0.616446	1.800556	-0.561898
S	0.103346	0.377056	-1.462998
C	0.892946	2.568756	1.884102
H	0.741046	2.147356	2.896702
H	0.275646	3.488456	1.809802
H	1.954846	2.883556	1.809902
C	-0.225154	-1.986344	0.001702
H	-1.305154	-1.986844	0.001702
H	-0.224954	-2.521444	-0.936398
H	-0.224854	-2.673544	0.834902
H	0.940946	2.701956	-1.095398
$end

$rem
JOBTYPE		SP
EXCHANGE	HF
CORRELATION	pRIMP2
BASIS		cc-pvtz
METHOD		rimp2
AUX_BASIS	rimp2-cc-pvtz
SOLVENT_METHOD	PCM
PURECART	11111
SYMMETRY	false
MEM_TOTAL	110000
SCF_CONVERGENCE = 6
THRESH=10
GUI = 2
$end

$solvent
dielectric 4.90
$end
--------------------------------------------------------------

             Standard Nuclear Orientation (Angstroms)
    I     Atom           X                Y                Z
 ----------------------------------------------------------------
    1      C      -0.2251540000    -0.5362440000     0.0017020000
    2      C       0.0608460000     0.2584560000     1.1147020000
    3      C       0.5321460000     1.5671560000     0.8223020000
    4      H      -0.0706540000    -0.1066440000     2.1446020000
    5      C       0.6164460000     1.8005560000    -0.5618980000
    6      S       0.1033460000     0.3770560000    -1.4629980000
    7      C       0.8929460000     2.5687560000     1.8841020000
    8      H       0.7410460000     2.1473560000     2.8967020000
    9      H       0.2756460000     3.4884560000     1.8098020000
   10      H       1.9548460000     2.8835560000     1.8099020000
   11      C      -0.2251540000    -1.9863440000     0.0017020000
   12      H      -1.3051540000    -1.9868440000     0.0017020000
   13      H      -0.2249540000    -2.5214440000    -0.9363980000
   14      H      -0.2248540000    -2.6735440000     0.8349020000
   15      H       0.9409460000     2.7019560000    -1.0953980000
 ----------------------------------------------------------------

   10    -629.4134934243      6.23e-07  Convergence criterion met
 Total energy in the final basis set =     -629.4134934243
        RIMP2         total energy =      -630.5914758503 a.u.

                    Orbital Energies (a.u.)
 --------------------------------------------------------------

 Alpha MOs
 -- Occupied --
-91.9784 -11.2809 -11.2522 -11.2472 -11.2266 -11.2251 -11.2196  -8.9783
 -6.6592  -6.6587  -6.6581  -1.1602  -1.0537  -0.9967  -0.9418  -0.8836
 -0.7440  -0.7189  -0.6471  -0.5858  -0.5729  -0.5676  -0.5543  -0.5449
 -0.5096  -0.4956  -0.4586  -0.4564  -0.3377  -0.2885

          Ground-State Mulliken Net Atomic Charges

     Atom                 Charge (a.u.)
  ----------------------------------------
      1 C                     0.037011
      2 C                    -0.290447
      3 C                     0.048935
      4 H                     0.175805
      5 C                    -0.274316
      6 S                     0.004985
      7 C                    -0.271702
      8 H                     0.101538
      9 H                     0.107127
     10 H                     0.106939
     11 C                    -0.379004
     12 H                     0.136023
     13 H                     0.141424
     14 H                     0.162143
     15 H                     0.193539
  ----------------------------------------
  Sum of atomic charges =     0.000000

                    Cartesian Multipole Moments
 -----------------------------------------------------------------
    Charge (ESU x 10^10)
                -0.0000
    Dipole Moment (Debye)
         X      -0.3126      Y      -0.5697      Z       1.4369
       Tot       1.5770
    Quadrupole Moments (Debye-Ang)
        XX     -53.1873     XY       4.3807     YY     -42.9460
        XZ       0.0896     YZ       0.2411     ZZ     -48.4476

 Total job time:  15.68s(wall), 739.88s(cpu)
        *  Thank you very much for using Q-Chem.  Have a nice day.  *
