 Q-Chem 5.4, Q-Chem, Inc., Pleasanton, CA (2021)
 Q-Chem 5.4.0 for Intel X86 EM64T Linux

User input:
--------------------------------------------------------------
$molecule
0 1
C	-0.584120	-0.238938	0.005249
C	0.145780	0.186062	1.118249
C	1.348080	0.885562	0.825849
H	-0.189620	-0.009138	2.148149
C	1.562680	1.010262	-0.558351
S	0.254580	0.249562	-1.459451
C	2.268280	1.420962	1.887649
H	1.880980	1.195762	2.900249
H	2.386480	2.522262	1.813349
H	3.284080	0.979462	1.813449
C	-0.584120	-1.689038	0.005249
H	-1.278320	-1.689538	-0.822051
H	0.134680	-2.224138	-0.597651
H	-1.222220	-2.376238	0.541049
H	2.390680	1.492062	-1.091851
$end

$rem
JOBTYPE		SP
EXCHANGE	HF
CORRELATION	pRIMP2
BASIS		cc-pvtz
METHOD		rimp2
AUX_BASIS	rimp2-cc-pvtz
SOLVENT_METHOD	PCM
PURECART	11111
SYMMETRY	false
MEM_TOTAL	110000
SCF_CONVERGENCE = 6
THRESH=10
GUI = 2
$end

$solvent
dielectric 4.90
$end
--------------------------------------------------------------

             Standard Nuclear Orientation (Angstroms)
    I     Atom           X                Y                Z
 ----------------------------------------------------------------
    1      C      -0.5841200000    -0.2389380000     0.0052490000
    2      C       0.1457800000     0.1860620000     1.1182490000
    3      C       1.3480800000     0.8855620000     0.8258490000
    4      H      -0.1896200000    -0.0091380000     2.1481490000
    5      C       1.5626800000     1.0102620000    -0.5583510000
    6      S       0.2545800000     0.2495620000    -1.4594510000
    7      C       2.2682800000     1.4209620000     1.8876490000
    8      H       1.8809800000     1.1957620000     2.9002490000
    9      H       2.3864800000     2.5222620000     1.8133490000
   10      H       3.2840800000     0.9794620000     1.8134490000
   11      C      -0.5841200000    -1.6890380000     0.0052490000
   12      H      -1.2783200000    -1.6895380000    -0.8220510000
   13      H       0.1346800000    -2.2241380000    -0.5976510000
   14      H      -1.2222200000    -2.3762380000     0.5410490000
   15      H       2.3906800000     1.4920620000    -1.0918510000
 ----------------------------------------------------------------

   11    -629.3474334213      5.26e-07  Convergence criterion met
 Total energy in the final basis set =     -629.3474334213
        RIMP2         total energy =      -630.5371745149 a.u.

                    Orbital Energies (a.u.)
 --------------------------------------------------------------

 Alpha MOs
 -- Occupied --
-91.9763 -11.2845 -11.2518 -11.2488 -11.2403 -11.2288 -11.2076  -8.9770
 -6.6579  -6.6571  -6.6567  -1.1728  -1.0550  -0.9958  -0.9427  -0.8806
 -0.7542  -0.7285  -0.6416  -0.5932  -0.5785  -0.5683  -0.5513  -0.5444
 -0.5181  -0.4755  -0.4536  -0.4321  -0.3342  -0.2987

          Ground-State Mulliken Net Atomic Charges

     Atom                 Charge (a.u.)
  ----------------------------------------
      1 C                    -0.127980
      2 C                    -0.090039
      3 C                    -0.027872
      4 H                     0.184556
      5 C                    -0.175953
      6 S                     0.011066
      7 C                    -0.268491
      8 H                     0.102206
      9 H                     0.106575
     10 H                     0.104002
     11 C                    -0.382809
     12 H                     0.108231
     13 H                     0.123035
     14 H                     0.133764
     15 H                     0.199708
  ----------------------------------------
  Sum of atomic charges =     0.000000

                    Cartesian Multipole Moments
 -----------------------------------------------------------------
    Charge (ESU x 10^10)
                -0.0000
    Dipole Moment (Debye)
         X       2.1936      Y       0.2641      Z       1.4165
       Tot       2.6245
    Quadrupole Moments (Debye-Ang)
        XX     -47.6362     XY       5.1869     YY     -49.9719
        XZ      -0.5316     YZ       0.5642     ZZ     -47.8247

 Total job time:  17.63s(wall), 840.85s(cpu)
        *  Thank you very much for using Q-Chem.  Have a nice day.  *
