 Q-Chem 5.4, Q-Chem, Inc., Pleasanton, CA (2021)
 Q-Chem 5.4.0 for Intel X86 EM64T Linux

User input:
--------------------------------------------------------------
$molecule
0 1
C	-0.111535	-0.566489	-0.001525
C	0.032065	0.265811	1.111475
C	0.268965	1.636511	0.819075
H	-0.033935	-0.116589	2.141375
C	0.311465	1.881011	-0.565125
S	0.053365	0.390011	-1.466225
C	0.450365	2.685511	1.880875
H	0.373965	2.244111	2.893475
H	-0.317235	3.484011	1.806575
H	1.441465	3.179911	1.806675
C	-0.111535	-2.016589	-0.001525
H	-0.938835	-2.017089	0.692675
H	-0.714435	-2.551689	-0.720325
H	0.424265	-2.703789	0.636575
H	0.474565	2.825011	-1.098625
$end

$rem
JOBTYPE		SP
EXCHANGE	HF
CORRELATION	pRIMP2
BASIS		cc-pvtz
METHOD		rimp2
AUX_BASIS	rimp2-cc-pvtz
SOLVENT_METHOD	PCM
PURECART	11111
SYMMETRY	false
MEM_TOTAL	110000
SCF_CONVERGENCE = 6
THRESH=10
GUI = 2
$end

$solvent
dielectric 4.90
$end
--------------------------------------------------------------

             Standard Nuclear Orientation (Angstroms)
    I     Atom           X                Y                Z
 ----------------------------------------------------------------
    1      C      -0.1115350000    -0.5664890000    -0.0015250000
    2      C       0.0320650000     0.2658110000     1.1114750000
    3      C       0.2689650000     1.6365110000     0.8190750000
    4      H      -0.0339350000    -0.1165890000     2.1413750000
    5      C       0.3114650000     1.8810110000    -0.5651250000
    6      S       0.0533650000     0.3900110000    -1.4662250000
    7      C       0.4503650000     2.6855110000     1.8808750000
    8      H       0.3739650000     2.2441110000     2.8934750000
    9      H      -0.3172350000     3.4840110000     1.8065750000
   10      H       1.4414650000     3.1799110000     1.8066750000
   11      C      -0.1115350000    -2.0165890000    -0.0015250000
   12      H      -0.9388350000    -2.0170890000     0.6926750000
   13      H      -0.7144350000    -2.5516890000    -0.7203250000
   14      H       0.4242650000    -2.7037890000     0.6365750000
   15      H       0.4745650000     2.8250110000    -1.0986250000
 ----------------------------------------------------------------

   10    -629.4227897350      5.69e-07  Convergence criterion met
 Total energy in the final basis set =     -629.4227897350
        RIMP2         total energy =      -630.6001256439 a.u.

                    Orbital Energies (a.u.)
 --------------------------------------------------------------

 Alpha MOs
 -- Occupied --
-91.9775 -11.2808 -11.2534 -11.2475 -11.2280 -11.2271 -11.2193  -8.9773
 -6.6582  -6.6577  -6.6571  -1.1601  -1.0531  -0.9984  -0.9400  -0.8847
 -0.7426  -0.7207  -0.6483  -0.5879  -0.5744  -0.5652  -0.5596  -0.5429
 -0.5093  -0.4916  -0.4648  -0.4488  -0.3372  -0.2951

          Ground-State Mulliken Net Atomic Charges

     Atom                 Charge (a.u.)
  ----------------------------------------
      1 C                     0.057048
      2 C                    -0.289691
      3 C                     0.042603
      4 H                     0.175896
      5 C                    -0.265458
      6 S                    -0.001688
      7 C                    -0.274682
      8 H                     0.101326
      9 H                     0.107108
     10 H                     0.107358
     11 C                    -0.376490
     12 H                     0.133068
     13 H                     0.138828
     14 H                     0.151757
     15 H                     0.193018
  ----------------------------------------
  Sum of atomic charges =     0.000000

                    Cartesian Multipole Moments
 -----------------------------------------------------------------
    Charge (ESU x 10^10)
                -0.0000
    Dipole Moment (Debye)
         X      -0.3306      Y      -0.4026      Z       1.9032
       Tot       1.9732
    Quadrupole Moments (Debye-Ang)
        XX     -53.7386     XY       2.6577     YY     -42.2638
        XZ       0.3314     YZ      -0.6273     ZZ     -48.6830

 Total job time:  17.13s(wall), 751.08s(cpu)
        *  Thank you very much for using Q-Chem.  Have a nice day.  *
