 Q-Chem 5.4, Q-Chem, Inc., Pleasanton, CA (2021)
 Q-Chem 5.4.0 for Intel X86 EM64T Linux

User input:
--------------------------------------------------------------
$molecule
0 1
C	-0.342171	-0.486609	0.002446
C	0.077429	0.246391	1.115446
C	0.768929	1.453391	0.823046
H	-0.115471	-0.090409	2.145346
C	0.892429	1.668591	-0.561154
S	0.139929	0.355791	-1.462254
C	1.298129	2.377091	1.884846
H	1.075329	1.988491	2.897446
H	0.849829	3.389991	1.810546
H	2.398529	2.502691	1.810646
C	-0.342171	-1.936709	0.002446
H	0.672729	-1.937209	-0.366954
H	-0.021471	-2.471809	0.884046
H	-0.627471	-2.623909	-0.780354
H	1.368529	2.499891	-1.094654
$end

$rem
JOBTYPE		SP
EXCHANGE	HF
CORRELATION	pRIMP2
BASIS		cc-pvtz
METHOD		rimp2
AUX_BASIS	rimp2-cc-pvtz
SOLVENT_METHOD	PCM
PURECART	11111
SYMMETRY	false
MEM_TOTAL	110000
SCF_CONVERGENCE = 6
THRESH=10
GUI = 2
$end

$solvent
dielectric 4.90
$end
--------------------------------------------------------------

             Standard Nuclear Orientation (Angstroms)
    I     Atom           X                Y                Z
 ----------------------------------------------------------------
    1      C      -0.3421710000    -0.4866090000     0.0024460000
    2      C       0.0774290000     0.2463910000     1.1154460000
    3      C       0.7689290000     1.4533910000     0.8230460000
    4      H      -0.1154710000    -0.0904090000     2.1453460000
    5      C       0.8924290000     1.6685910000    -0.5611540000
    6      S       0.1399290000     0.3557910000    -1.4622540000
    7      C       1.2981290000     2.3770910000     1.8848460000
    8      H       1.0753290000     1.9884910000     2.8974460000
    9      H       0.8498290000     3.3899910000     1.8105460000
   10      H       2.3985290000     2.5026910000     1.8106460000
   11      C      -0.3421710000    -1.9367090000     0.0024460000
   12      H       0.6727290000    -1.9372090000    -0.3669540000
   13      H      -0.0214710000    -2.4718090000     0.8840460000
   14      H      -0.6274710000    -2.6239090000    -0.7803540000
   15      H       1.3685290000     2.4998910000    -1.0946540000
 ----------------------------------------------------------------

   10    -629.4107646576      6.57e-07  Convergence criterion met
 Total energy in the final basis set =     -629.4107646576
        RIMP2         total energy =      -630.5894134513 a.u.

                    Orbital Energies (a.u.)
 --------------------------------------------------------------

 Alpha MOs
 -- Occupied --
-91.9756 -11.2801 -11.2561 -11.2479 -11.2284 -11.2273 -11.2210  -8.9759
 -6.6569  -6.6563  -6.6557  -1.1640  -1.0553  -0.9958  -0.9412  -0.8825
 -0.7462  -0.7203  -0.6454  -0.5885  -0.5801  -0.5661  -0.5507  -0.5463
 -0.5074  -0.4956  -0.4624  -0.4530  -0.3395  -0.2906

          Ground-State Mulliken Net Atomic Charges

     Atom                 Charge (a.u.)
  ----------------------------------------
      1 C                     0.047536
      2 C                    -0.312183
      3 C                     0.058125
      4 H                     0.177069
      5 C                    -0.265501
      6 S                    -0.005031
      7 C                    -0.270019
      8 H                     0.101722
      9 H                     0.107805
     10 H                     0.106849
     11 C                    -0.369632
     12 H                     0.143045
     13 H                     0.138356
     14 H                     0.148696
     15 H                     0.193163
  ----------------------------------------
  Sum of atomic charges =     0.000000

                    Cartesian Multipole Moments
 -----------------------------------------------------------------
    Charge (ESU x 10^10)
                -0.0000
    Dipole Moment (Debye)
         X       1.3454      Y      -0.5034      Z       1.3144
       Tot       1.9471
    Quadrupole Moments (Debye-Ang)
        XX     -52.7417     XY       2.6662     YY     -44.2393
        XZ       0.3973     YZ       0.8469     ZZ     -48.5492

 Total job time:  16.97s(wall), 763.67s(cpu)
        *  Thank you very much for using Q-Chem.  Have a nice day.  *
