 Q-Chem 5.4, Q-Chem, Inc., Pleasanton, CA (2021)
 Q-Chem 5.4.0 for Intel X86 EM64T Linux

User input:
--------------------------------------------------------------
$molecule
0 1
C	-0.288228	-0.513776	-0.002247
C	0.065972	0.253024	1.110753
C	0.649572	1.515624	0.818353
H	-0.096928	-0.099276	2.140653
C	0.753772	1.740824	-0.565847
S	0.118672	0.367424	-1.466947
C	1.096172	2.482024	1.880153
H	0.908172	2.075424	2.892753
H	0.561372	3.451924	1.805853
H	2.181572	2.703024	1.805953
C	-0.288228	-1.963876	-0.002247
H	0.539072	-1.964376	0.691953
H	-0.891428	-2.498976	0.716253
H	0.247072	-2.651076	-0.640747
H	1.155672	2.610424	-1.099347
$end

$rem
JOBTYPE		SP
EXCHANGE	HF
CORRELATION	pRIMP2
BASIS		cc-pvtz
METHOD		rimp2
AUX_BASIS	rimp2-cc-pvtz
SOLVENT_METHOD	PCM
PURECART	11111
SYMMETRY	false
MEM_TOTAL	110000
SCF_CONVERGENCE = 6
THRESH=10
GUI = 2
$end

$solvent
dielectric 4.90
$end
--------------------------------------------------------------

             Standard Nuclear Orientation (Angstroms)
    I     Atom           X                Y                Z
 ----------------------------------------------------------------
    1      C      -0.2882280000    -0.5137760000    -0.0022470000
    2      C       0.0659720000     0.2530240000     1.1107530000
    3      C       0.6495720000     1.5156240000     0.8183530000
    4      H      -0.0969280000    -0.0992760000     2.1406530000
    5      C       0.7537720000     1.7408240000    -0.5658470000
    6      S       0.1186720000     0.3674240000    -1.4669470000
    7      C       1.0961720000     2.4820240000     1.8801530000
    8      H       0.9081720000     2.0754240000     2.8927530000
    9      H       0.5613720000     3.4519240000     1.8058530000
   10      H       2.1815720000     2.7030240000     1.8059530000
   11      C      -0.2882280000    -1.9638760000    -0.0022470000
   12      H       0.5390720000    -1.9643760000     0.6919530000
   13      H      -0.8914280000    -2.4989760000     0.7162530000
   14      H       0.2470720000    -2.6510760000    -0.6407470000
   15      H       1.1556720000     2.6104240000    -1.0993470000
 ----------------------------------------------------------------

   10    -629.4104448403      5.55e-07  Convergence criterion met
 Total energy in the final basis set =     -629.4104448403
        RIMP2         total energy =      -630.5903149008 a.u.

                    Orbital Energies (a.u.)
 --------------------------------------------------------------

 Alpha MOs
 -- Occupied --
-91.9787 -11.2798 -11.2541 -11.2480 -11.2277 -11.2274 -11.2178  -8.9784
 -6.6593  -6.6588  -6.6582  -1.1625  -1.0537  -0.9985  -0.9377  -0.8841
 -0.7429  -0.7216  -0.6460  -0.5895  -0.5746  -0.5718  -0.5560  -0.5429
 -0.5103  -0.4824  -0.4669  -0.4518  -0.3361  -0.2928

          Ground-State Mulliken Net Atomic Charges

     Atom                 Charge (a.u.)
  ----------------------------------------
      1 C                     0.030206
      2 C                    -0.263285
      3 C                     0.035212
      4 H                     0.174666
      5 C                    -0.265866
      6 S                     0.003618
      7 C                    -0.270935
      8 H                     0.101499
      9 H                     0.107437
     10 H                     0.106422
     11 C                    -0.389971
     12 H                     0.146093
     13 H                     0.133477
     14 H                     0.158467
     15 H                     0.192959
  ----------------------------------------
  Sum of atomic charges =     0.000000

                    Cartesian Multipole Moments
 -----------------------------------------------------------------
    Charge (ESU x 10^10)
                -0.0000
    Dipole Moment (Debye)
         X       1.0902      Y      -0.4237      Z       1.9060
       Tot       2.2362
    Quadrupole Moments (Debye-Ang)
        XX     -52.9946     XY       2.1635     YY     -43.8741
        XZ      -0.2172     YZ      -0.5052     ZZ     -48.5522

 Total job time:  16.45s(wall), 773.05s(cpu)
        *  Thank you very much for using Q-Chem.  Have a nice day.  *
