 Q-Chem 5.4, Q-Chem, Inc., Pleasanton, CA (2021)
 Q-Chem 5.4.0 for Intel X86 EM64T Linux

User input:
--------------------------------------------------------------
$molecule
0 1
C	-0.227901	-0.536244	-0.003165
C	0.058099	0.258456	1.109835
C	0.529399	1.567156	0.817435
H	-0.073401	-0.106644	2.139735
C	0.613699	1.800556	-0.566765
S	0.100599	0.377056	-1.467865
C	0.890199	2.568756	1.879235
H	0.738299	2.147356	2.891835
H	0.272899	3.488456	1.804935
H	1.952099	2.883556	1.805035
C	-0.227901	-1.986344	-0.003165
H	-0.597301	-1.986844	1.011735
H	-1.109401	-2.521444	-0.324265
H	0.555099	-2.673544	0.281535
H	0.938199	2.701956	-1.100265
$end

$rem
JOBTYPE		SP
EXCHANGE	HF
CORRELATION	pRIMP2
BASIS		cc-pvtz
METHOD		rimp2
AUX_BASIS	rimp2-cc-pvtz
SOLVENT_METHOD	PCM
PURECART	11111
SYMMETRY	false
MEM_TOTAL	110000
SCF_CONVERGENCE = 6
THRESH=10
GUI = 2
$end

$solvent
dielectric 4.90
$end
--------------------------------------------------------------

             Standard Nuclear Orientation (Angstroms)
    I     Atom           X                Y                Z
 ----------------------------------------------------------------
    1      C      -0.2279010000    -0.5362440000    -0.0031650000
    2      C       0.0580990000     0.2584560000     1.1098350000
    3      C       0.5293990000     1.5671560000     0.8174350000
    4      H      -0.0734010000    -0.1066440000     2.1397350000
    5      C       0.6136990000     1.8005560000    -0.5667650000
    6      S       0.1005990000     0.3770560000    -1.4678650000
    7      C       0.8901990000     2.5687560000     1.8792350000
    8      H       0.7382990000     2.1473560000     2.8918350000
    9      H       0.2728990000     3.4884560000     1.8049350000
   10      H       1.9520990000     2.8835560000     1.8050350000
   11      C      -0.2279010000    -1.9863440000    -0.0031650000
   12      H      -0.5973010000    -1.9868440000     1.0117350000
   13      H      -1.1094010000    -2.5214440000    -0.3242650000
   14      H       0.5550990000    -2.6735440000     0.2815350000
   15      H       0.9381990000     2.7019560000    -1.1002650000
 ----------------------------------------------------------------

   10    -629.4183057348      4.97e-07  Convergence criterion met
 Total energy in the final basis set =     -629.4183057348
        RIMP2         total energy =      -630.5977199725 a.u.

                    Orbital Energies (a.u.)
 --------------------------------------------------------------

 Alpha MOs
 -- Occupied --
-91.9749 -11.2741 -11.2604 -11.2476 -11.2356 -11.2278 -11.2162  -8.9751
 -6.6560  -6.6554  -6.6549  -1.1617  -1.0522  -0.9993  -0.9388  -0.8854
 -0.7429  -0.7242  -0.6475  -0.5886  -0.5783  -0.5669  -0.5583  -0.5413
 -0.5120  -0.4846  -0.4660  -0.4380  -0.3377  -0.3039

          Ground-State Mulliken Net Atomic Charges

     Atom                 Charge (a.u.)
  ----------------------------------------
      1 C                     0.029197
      2 C                    -0.262917
      3 C                     0.035963
      4 H                     0.177334
      5 C                    -0.247938
      6 S                    -0.004743
      7 C                    -0.271623
      8 H                     0.101409
      9 H                     0.106958
     10 H                     0.107182
     11 C                    -0.359030
     12 H                     0.117492
     13 H                     0.132134
     14 H                     0.144590
     15 H                     0.193993
  ----------------------------------------
  Sum of atomic charges =     0.000000

                    Cartesian Multipole Moments
 -----------------------------------------------------------------
    Charge (ESU x 10^10)
                -0.0000
    Dipole Moment (Debye)
         X       0.3218      Y       0.0065      Z       2.1549
       Tot       2.1788
    Quadrupole Moments (Debye-Ang)
        XX     -52.7160     XY       3.2771     YY     -43.2710
        XZ       0.1693     YZ      -1.0103     ZZ     -48.8715

 Total job time:  15.89s(wall), 758.73s(cpu)
        *  Thank you very much for using Q-Chem.  Have a nice day.  *
