 Q-Chem 5.4, Q-Chem, Inc., Pleasanton, CA (2021)
 Q-Chem 5.4.0 for Intel X86 EM64T Linux

User input:
--------------------------------------------------------------
$molecule
0 1
C	-0.226525	-0.536244	-0.002181
C	0.059475	0.258456	1.110819
C	0.530775	1.567156	0.818419
H	-0.072025	-0.106644	2.140719
C	0.615075	1.800556	-0.565781
S	0.101975	0.377056	-1.466881
C	0.891575	2.568756	1.880219
H	0.739675	2.147356	2.892819
H	0.274275	3.488456	1.805919
H	1.953475	2.883556	1.806019
C	-0.226525	-1.986344	-0.002181
H	-0.920725	-1.986844	0.825119
H	-0.945025	-2.521444	-0.605381
H	0.411975	-2.673544	0.533119
H	0.939575	2.701956	-1.099281
$end

$rem
JOBTYPE		SP
EXCHANGE	HF
CORRELATION	pRIMP2
BASIS		cc-pvtz
METHOD		rimp2
AUX_BASIS	rimp2-cc-pvtz
SOLVENT_METHOD	PCM
PURECART	11111
SYMMETRY	false
MEM_TOTAL	110000
SCF_CONVERGENCE = 6
THRESH=10
GUI = 2
$end

$solvent
dielectric 4.90
$end
--------------------------------------------------------------

             Standard Nuclear Orientation (Angstroms)
    I     Atom           X                Y                Z
 ----------------------------------------------------------------
    1      C      -0.2265250000    -0.5362440000    -0.0021810000
    2      C       0.0594750000     0.2584560000     1.1108190000
    3      C       0.5307750000     1.5671560000     0.8184190000
    4      H      -0.0720250000    -0.1066440000     2.1407190000
    5      C       0.6150750000     1.8005560000    -0.5657810000
    6      S       0.1019750000     0.3770560000    -1.4668810000
    7      C       0.8915750000     2.5687560000     1.8802190000
    8      H       0.7396750000     2.1473560000     2.8928190000
    9      H       0.2742750000     3.4884560000     1.8059190000
   10      H       1.9534750000     2.8835560000     1.8060190000
   11      C      -0.2265250000    -1.9863440000    -0.0021810000
   12      H      -0.9207250000    -1.9868440000     0.8251190000
   13      H      -0.9450250000    -2.5214440000    -0.6053810000
   14      H       0.4119750000    -2.6735440000     0.5331190000
   15      H       0.9395750000     2.7019560000    -1.0992810000
 ----------------------------------------------------------------

   10    -629.4172337309      5.25e-07  Convergence criterion met
 Total energy in the final basis set =     -629.4172337309
        RIMP2         total energy =      -630.5965091918 a.u.

                    Orbital Energies (a.u.)
 --------------------------------------------------------------

 Alpha MOs
 -- Occupied --
-91.9757 -11.2760 -11.2578 -11.2477 -11.2326 -11.2275 -11.2172  -8.9758
 -6.6567  -6.6562  -6.6556  -1.1611  -1.0525  -0.9986  -0.9395  -0.8851
 -0.7429  -0.7224  -0.6476  -0.5875  -0.5764  -0.5652  -0.5592  -0.5422
 -0.5114  -0.4890  -0.4640  -0.4429  -0.3374  -0.2984

          Ground-State Mulliken Net Atomic Charges

     Atom                 Charge (a.u.)
  ----------------------------------------
      1 C                     0.034200
      2 C                    -0.275029
      3 C                     0.038859
      4 H                     0.177218
      5 C                    -0.253631
      6 S                    -0.002175
      7 C                    -0.272689
      8 H                     0.101403
      9 H                     0.106974
     10 H                     0.107179
     11 C                    -0.369213
     12 H                     0.126218
     13 H                     0.136406
     14 H                     0.150980
     15 H                     0.193300
  ----------------------------------------
  Sum of atomic charges =     0.000000

                    Cartesian Multipole Moments
 -----------------------------------------------------------------
    Charge (ESU x 10^10)
                -0.0000
    Dipole Moment (Debye)
         X       0.0652      Y      -0.1687      Z       2.0336
       Tot       2.0416
    Quadrupole Moments (Debye-Ang)
        XX     -52.8254     XY       3.7738     YY     -43.2042
        XZ       0.3214     YZ      -0.8103     ZZ     -48.7243

 Total job time:  16.28s(wall), 760.73s(cpu)
        *  Thank you very much for using Q-Chem.  Have a nice day.  *
