 Q-Chem 5.4, Q-Chem, Inc., Pleasanton, CA (2021)
 Q-Chem 5.4.0 for Intel X86 EM64T Linux

User input:
--------------------------------------------------------------
$molecule
0 1
C	-0.286123	-0.513776	0.005925
C	0.068077	0.253024	1.118925
C	0.651677	1.515624	0.826525
H	-0.094823	-0.099276	2.148825
C	0.755877	1.740824	-0.557675
S	0.120777	0.367424	-1.458775
C	1.098277	2.482024	1.888325
H	0.910277	2.075424	2.900925
H	0.563477	3.451924	1.814025
H	2.183677	2.703024	1.814125
C	-0.286123	-1.963876	0.005925
H	-0.098623	-1.964376	-1.057675
H	0.637777	-2.498976	0.169025
H	-1.106723	-2.651076	-0.138475
H	1.157777	2.610424	-1.091175
$end

$rem
JOBTYPE		SP
EXCHANGE	HF
CORRELATION	pRIMP2
BASIS		cc-pvtz
METHOD		rimp2
AUX_BASIS	rimp2-cc-pvtz
SOLVENT_METHOD	PCM
PURECART	11111
SYMMETRY	false
MEM_TOTAL	110000
SCF_CONVERGENCE = 6
THRESH=10
GUI = 2
$end

$solvent
dielectric 4.90
$end
--------------------------------------------------------------

             Standard Nuclear Orientation (Angstroms)
    I     Atom           X                Y                Z
 ----------------------------------------------------------------
    1      C      -0.2861230000    -0.5137760000     0.0059250000
    2      C       0.0680770000     0.2530240000     1.1189250000
    3      C       0.6516770000     1.5156240000     0.8265250000
    4      H      -0.0948230000    -0.0992760000     2.1488250000
    5      C       0.7558770000     1.7408240000    -0.5576750000
    6      S       0.1207770000     0.3674240000    -1.4587750000
    7      C       1.0982770000     2.4820240000     1.8883250000
    8      H       0.9102770000     2.0754240000     2.9009250000
    9      H       0.5634770000     3.4519240000     1.8140250000
   10      H       2.1836770000     2.7030240000     1.8141250000
   11      C      -0.2861230000    -1.9638760000     0.0059250000
   12      H      -0.0986230000    -1.9643760000    -1.0576750000
   13      H       0.6377770000    -2.4989760000     0.1690250000
   14      H      -1.1067230000    -2.6510760000    -0.1384750000
   15      H       1.1577770000     2.6104240000    -1.0911750000
 ----------------------------------------------------------------

   10    -629.4098527327      5.32e-07  Convergence criterion met
 Total energy in the final basis set =     -629.4098527327
        RIMP2         total energy =      -630.5899923923 a.u.

                    Orbital Energies (a.u.)
 --------------------------------------------------------------

 Alpha MOs
 -- Occupied --
-91.9793 -11.2708 -11.2617 -11.2473 -11.2321 -11.2273 -11.2150  -8.9794
 -6.6602  -6.6597  -6.6591  -1.1626  -1.0537  -0.9945  -0.9451  -0.8820
 -0.7487  -0.7195  -0.6458  -0.5906  -0.5763  -0.5658  -0.5526  -0.5465
 -0.5105  -0.4822  -0.4644  -0.4436  -0.3372  -0.3044

          Ground-State Mulliken Net Atomic Charges

     Atom                 Charge (a.u.)
  ----------------------------------------
      1 C                     0.024750
      2 C                    -0.258760
      3 C                     0.045554
      4 H                     0.177890
      5 C                    -0.252195
      6 S                    -0.002906
      7 C                    -0.271450
      8 H                     0.102114
      9 H                     0.107070
     10 H                     0.106299
     11 C                    -0.364716
     12 H                     0.115837
     13 H                     0.133464
     14 H                     0.141006
     15 H                     0.196043
  ----------------------------------------
  Sum of atomic charges =     0.000000

                    Cartesian Multipole Moments
 -----------------------------------------------------------------
    Charge (ESU x 10^10)
                -0.0000
    Dipole Moment (Debye)
         X       0.8465      Y       0.0878      Z       0.9313
       Tot       1.2616
    Quadrupole Moments (Debye-Ang)
        XX     -52.3567     XY       3.2440     YY     -43.9736
        XZ       0.3392     YZ       1.4910     ZZ     -48.7073

 Total job time:  16.25s(wall), 748.47s(cpu)
        *  Thank you very much for using Q-Chem.  Have a nice day.  *
