 Q-Chem 5.4, Q-Chem, Inc., Pleasanton, CA (2021)
 Q-Chem 5.4.0 for Intel X86 EM64T Linux

User input:
--------------------------------------------------------------
$molecule
0 1
C	-0.438668	-0.419059	0.003987
C	0.101832	0.229941	1.116987
C	0.992332	1.298441	0.824587
H	-0.146568	-0.068259	2.146887
C	1.151432	1.489041	-0.559613
S	0.182432	0.326841	-1.460713
C	1.673932	2.116341	1.886387
H	1.387132	1.772241	2.898987
H	1.408432	3.191641	1.812087
H	2.779532	2.048841	1.812187
C	-0.438668	-1.869159	0.003987
H	0.388632	-1.869659	-0.690213
H	0.164232	-2.404259	0.722787
H	-0.974468	-2.556359	-0.634113
H	1.764632	2.225041	-1.093113
$end

$rem
JOBTYPE		SP
EXCHANGE	HF
CORRELATION	pRIMP2
BASIS		cc-pvtz
METHOD		rimp2
AUX_BASIS	rimp2-cc-pvtz
SOLVENT_METHOD	PCM
PURECART	11111
SYMMETRY	false
MEM_TOTAL	110000
SCF_CONVERGENCE = 6
THRESH=10
GUI = 2
$end

$solvent
dielectric 4.90
$end
--------------------------------------------------------------

             Standard Nuclear Orientation (Angstroms)
    I     Atom           X                Y                Z
 ----------------------------------------------------------------
    1      C      -0.4386680000    -0.4190590000     0.0039870000
    2      C       0.1018320000     0.2299410000     1.1169870000
    3      C       0.9923320000     1.2984410000     0.8245870000
    4      H      -0.1465680000    -0.0682590000     2.1468870000
    5      C       1.1514320000     1.4890410000    -0.5596130000
    6      S       0.1824320000     0.3268410000    -1.4607130000
    7      C       1.6739320000     2.1163410000     1.8863870000
    8      H       1.3871320000     1.7722410000     2.8989870000
    9      H       1.4084320000     3.1916410000     1.8120870000
   10      H       2.7795320000     2.0488410000     1.8121870000
   11      C      -0.4386680000    -1.8691590000     0.0039870000
   12      H       0.3886320000    -1.8696590000    -0.6902130000
   13      H       0.1642320000    -2.4042590000     0.7227870000
   14      H      -0.9744680000    -2.5563590000    -0.6341130000
   15      H       1.7646320000     2.2250410000    -1.0931130000
 ----------------------------------------------------------------

   10    -629.3921524511      6.05e-07  Convergence criterion met
 Total energy in the final basis set =     -629.3921524511
        RIMP2         total energy =      -630.5749535704 a.u.

                    Orbital Energies (a.u.)
 --------------------------------------------------------------

 Alpha MOs
 -- Occupied --
-91.9732 -11.2707 -11.2639 -11.2479 -11.2360 -11.2279 -11.2151  -8.9741
 -6.6551  -6.6544  -6.6539  -1.1669  -1.0554  -0.9946  -0.9422  -0.8811
 -0.7491  -0.7222  -0.6442  -0.5887  -0.5807  -0.5652  -0.5509  -0.5466
 -0.5108  -0.4895  -0.4610  -0.4449  -0.3390  -0.2938

          Ground-State Mulliken Net Atomic Charges

     Atom                 Charge (a.u.)
  ----------------------------------------
      1 C                     0.011896
      2 C                    -0.260650
      3 C                     0.035498
      4 H                     0.179649
      5 C                    -0.239017
      6 S                    -0.006430
      7 C                    -0.269315
      8 H                     0.101701
      9 H                     0.107918
     10 H                     0.106264
     11 C                    -0.374502
     12 H                     0.137265
     13 H                     0.137602
     14 H                     0.137923
     15 H                     0.194199
  ----------------------------------------
  Sum of atomic charges =     0.000000

                    Cartesian Multipole Moments
 -----------------------------------------------------------------
    Charge (ESU x 10^10)
                -0.0000
    Dipole Moment (Debye)
         X       1.6819      Y      -0.1757      Z       1.2407
       Tot       2.0974
    Quadrupole Moments (Debye-Ang)
        XX     -51.2304     XY       3.5154     YY     -46.2639
        XZ       0.4778     YZ       1.1530     ZZ     -48.4142

 Total job time:  15.93s(wall), 762.16s(cpu)
        *  Thank you very much for using Q-Chem.  Have a nice day.  *
