 Q-Chem 5.4, Q-Chem, Inc., Pleasanton, CA (2021)
 Q-Chem 5.4.0 for Intel X86 EM64T Linux

User input:
--------------------------------------------------------------
$molecule
0 1
C	-0.340209	-0.486609	-0.002787
C	0.079391	0.246391	1.110213
C	0.770891	1.453391	0.817813
H	-0.113509	-0.090409	2.140113
C	0.894391	1.668591	-0.566387
S	0.141891	0.355791	-1.467487
C	1.300091	2.377091	1.879613
H	1.077291	1.988491	2.892213
H	0.851791	3.389991	1.805313
H	2.400491	2.502691	1.805413
C	-0.340209	-1.936709	-0.002787
H	0.353991	-1.937209	0.824513
H	-1.059009	-2.471809	0.600113
H	0.297891	-2.623909	-0.538587
H	1.370491	2.499891	-1.099887
$end

$rem
JOBTYPE		SP
EXCHANGE	HF
CORRELATION	pRIMP2
BASIS		cc-pvtz
METHOD		rimp2
AUX_BASIS	rimp2-cc-pvtz
SOLVENT_METHOD	PCM
PURECART	11111
SYMMETRY	false
MEM_TOTAL	110000
SCF_CONVERGENCE = 6
THRESH=10
GUI = 2
$end

$solvent
dielectric 4.90
$end
--------------------------------------------------------------

             Standard Nuclear Orientation (Angstroms)
    I     Atom           X                Y                Z
 ----------------------------------------------------------------
    1      C      -0.3402090000    -0.4866090000    -0.0027870000
    2      C       0.0793910000     0.2463910000     1.1102130000
    3      C       0.7708910000     1.4533910000     0.8178130000
    4      H      -0.1135090000    -0.0904090000     2.1401130000
    5      C       0.8943910000     1.6685910000    -0.5663870000
    6      S       0.1418910000     0.3557910000    -1.4674870000
    7      C       1.3000910000     2.3770910000     1.8796130000
    8      H       1.0772910000     1.9884910000     2.8922130000
    9      H       0.8517910000     3.3899910000     1.8053130000
   10      H       2.4004910000     2.5026910000     1.8054130000
   11      C      -0.3402090000    -1.9367090000    -0.0027870000
   12      H       0.3539910000    -1.9372090000     0.8245130000
   13      H      -1.0590090000    -2.4718090000     0.6001130000
   14      H       0.2978910000    -2.6239090000    -0.5385870000
   15      H       1.3704910000     2.4998910000    -1.0998870000
 ----------------------------------------------------------------

   10    -629.4030771439      5.30e-07  Convergence criterion met
 Total energy in the final basis set =     -629.4030771439
        RIMP2         total energy =      -630.5849485293 a.u.

                    Orbital Energies (a.u.)
 --------------------------------------------------------------

 Alpha MOs
 -- Occupied --
-91.9781 -11.2754 -11.2576 -11.2480 -11.2311 -11.2276 -11.2151  -8.9779
 -6.6588  -6.6582  -6.6577  -1.1635  -1.0533  -0.9989  -0.9368  -0.8842
 -0.7430  -0.7234  -0.6454  -0.5892  -0.5757  -0.5719  -0.5558  -0.5424
 -0.5119  -0.4777  -0.4670  -0.4486  -0.3352  -0.2952

          Ground-State Mulliken Net Atomic Charges

     Atom                 Charge (a.u.)
  ----------------------------------------
      1 C                     0.017181
      2 C                    -0.248967
      3 C                     0.028998
      4 H                     0.175124
      5 C                    -0.254945
      6 S                     0.003954
      7 C                    -0.270525
      8 H                     0.101471
      9 H                     0.107308
     10 H                     0.106214
     11 C                    -0.387890
     12 H                     0.142202
     13 H                     0.128604
     14 H                     0.158222
     15 H                     0.193050
  ----------------------------------------
  Sum of atomic charges =     0.000000

                    Cartesian Multipole Moments
 -----------------------------------------------------------------
    Charge (ESU x 10^10)
                -0.0000
    Dipole Moment (Debye)
         X       1.1906      Y      -0.2369      Z       2.0164
       Tot       2.3536
    Quadrupole Moments (Debye-Ang)
        XX     -52.3077     XY       2.7781     YY     -44.7404
        XZ      -0.2851     YZ      -0.6966     ZZ     -48.5358

 Total job time:  23.30s(wall), 758.80s(cpu)
        *  Thank you very much for using Q-Chem.  Have a nice day.  *
