 Q-Chem 5.4, Q-Chem, Inc., Pleasanton, CA (2021)
 Q-Chem 5.4.0 for Intel X86 EM64T Linux

User input:
--------------------------------------------------------------
$molecule
0 1
C	-0.541250	-0.338059	0.000759
C	0.103750	0.207241	1.113759
C	1.166350	1.104941	0.821359
H	-0.192650	-0.043259	2.143659
C	1.355950	1.264941	-0.562841
S	0.199950	0.288641	-1.463941
C	1.979550	1.791941	1.883159
H	1.637350	1.502941	2.895759
H	1.904750	2.897041	1.808859
H	3.056550	1.533541	1.808959
C	-0.289450	-1.766159	0.000759
H	0.774250	-1.579059	0.000759
H	-0.196750	-2.293159	0.938859
H	-0.170450	-2.442959	-0.832441
H	2.087750	1.883241	-1.096341
$end

$rem
JOBTYPE		SP
EXCHANGE	HF
CORRELATION	pRIMP2
BASIS		cc-pvtz
METHOD		rimp2
AUX_BASIS	rimp2-cc-pvtz
SOLVENT_METHOD	PCM
PURECART	11111
SYMMETRY	false
MEM_TOTAL	110000
SCF_CONVERGENCE = 6
THRESH=10
GUI = 2
$end

$solvent
dielectric 4.90
$end
--------------------------------------------------------------

             Standard Nuclear Orientation (Angstroms)
    I     Atom           X                Y                Z
 ----------------------------------------------------------------
    1      C      -0.5412500000    -0.3380590000     0.0007590000
    2      C       0.1037500000     0.2072410000     1.1137590000
    3      C       1.1663500000     1.1049410000     0.8213590000
    4      H      -0.1926500000    -0.0432590000     2.1436590000
    5      C       1.3559500000     1.2649410000    -0.5628410000
    6      S       0.1999500000     0.2886410000    -1.4639410000
    7      C       1.9795500000     1.7919410000     1.8831590000
    8      H       1.6373500000     1.5029410000     2.8957590000
    9      H       1.9047500000     2.8970410000     1.8088590000
   10      H       3.0565500000     1.5335410000     1.8089590000
   11      C      -0.2894500000    -1.7661590000     0.0007590000
   12      H       0.7742500000    -1.5790590000     0.0007590000
   13      H      -0.1967500000    -2.2931590000     0.9388590000
   14      H      -0.1704500000    -2.4429590000    -0.8324410000
   15      H       2.0877500000     1.8832410000    -1.0963410000
 ----------------------------------------------------------------

   11    -629.3525099708      4.74e-07  Convergence criterion met
 Total energy in the final basis set =     -629.3525099708
        RIMP2         total energy =      -630.5440985702 a.u.

                    Orbital Energies (a.u.)
 --------------------------------------------------------------

 Alpha MOs
 -- Occupied --
-91.9754 -11.2794 -11.2580 -11.2519 -11.2443 -11.2297 -11.2157  -8.9764
 -6.6572  -6.6565  -6.6561  -1.1782  -1.0586  -0.9989  -0.9364  -0.8820
 -0.7521  -0.7300  -0.6444  -0.5911  -0.5853  -0.5680  -0.5529  -0.5455
 -0.5096  -0.4946  -0.4610  -0.4355  -0.3386  -0.2902

          Ground-State Mulliken Net Atomic Charges

     Atom                 Charge (a.u.)
  ----------------------------------------
      1 C                    -0.078893
      2 C                    -0.151690
      3 C                    -0.011427
      4 H                     0.181822
      5 C                    -0.204981
      6 S                     0.015849
      7 C                    -0.267389
      8 H                     0.102927
      9 H                     0.107727
     10 H                     0.104881
     11 C                    -0.359331
     12 H                     0.106186
     13 H                     0.118144
     14 H                     0.138345
     15 H                     0.197830
  ----------------------------------------
  Sum of atomic charges =     0.000000

                    Cartesian Multipole Moments
 -----------------------------------------------------------------
    Charge (ESU x 10^10)
                -0.0000
    Dipole Moment (Debye)
         X       2.6674      Y       0.3223      Z       1.6960
       Tot       3.1773
    Quadrupole Moments (Debye-Ang)
        XX     -50.2717     XY       3.7658     YY     -48.3881
        XZ      -0.1188     YZ       0.0711     ZZ     -47.7112

 Total job time:  20.28s(wall), 859.05s(cpu)
        *  Thank you very much for using Q-Chem.  Have a nice day.  *
