 Q-Chem 5.4, Q-Chem, Inc., Pleasanton, CA (2021)
 Q-Chem 5.4.0 for Intel X86 EM64T Linux

User input:
--------------------------------------------------------------
$molecule
0 1
C	-0.335351	-0.486609	-0.003165
C	0.084249	0.246391	1.109835
C	0.775749	1.453391	0.817435
H	-0.108651	-0.090409	2.139735
C	0.899249	1.668591	-0.566765
S	0.146749	0.355791	-1.467865
C	1.304949	2.377091	1.879235
H	1.082149	1.988491	2.891835
H	0.856649	3.389991	1.804935
H	2.405349	2.502691	1.805035
C	-0.335351	-1.936709	-0.003165
H	-0.704751	-1.937209	1.011735
H	-1.216851	-2.471809	-0.324265
H	0.447649	-2.623909	0.281535
H	1.375349	2.499891	-1.100265
$end

$rem
JOBTYPE		SP
EXCHANGE	HF
CORRELATION	pRIMP2
BASIS		cc-pvtz
METHOD		rimp2
AUX_BASIS	rimp2-cc-pvtz
SOLVENT_METHOD	PCM
PURECART	11111
SYMMETRY	false
MEM_TOTAL	110000
SCF_CONVERGENCE = 6
THRESH=10
GUI = 2
$end

$solvent
dielectric 4.90
$end
--------------------------------------------------------------

             Standard Nuclear Orientation (Angstroms)
    I     Atom           X                Y                Z
 ----------------------------------------------------------------
    1      C      -0.3353510000    -0.4866090000    -0.0031650000
    2      C       0.0842490000     0.2463910000     1.1098350000
    3      C       0.7757490000     1.4533910000     0.8174350000
    4      H      -0.1086510000    -0.0904090000     2.1397350000
    5      C       0.8992490000     1.6685910000    -0.5667650000
    6      S       0.1467490000     0.3557910000    -1.4678650000
    7      C       1.3049490000     2.3770910000     1.8792350000
    8      H       1.0821490000     1.9884910000     2.8918350000
    9      H       0.8566490000     3.3899910000     1.8049350000
   10      H       2.4053490000     2.5026910000     1.8050350000
   11      C      -0.3353510000    -1.9367090000    -0.0031650000
   12      H      -0.7047510000    -1.9372090000     1.0117350000
   13      H      -1.2168510000    -2.4718090000    -0.3242650000
   14      H       0.4476490000    -2.6239090000     0.2815350000
   15      H       1.3753490000     2.4998910000    -1.1002650000
 ----------------------------------------------------------------

   10    -629.4083053066      5.20e-07  Convergence criterion met
 Total energy in the final basis set =     -629.4083053066
        RIMP2         total energy =      -630.5899836819 a.u.

                    Orbital Energies (a.u.)
 --------------------------------------------------------------

 Alpha MOs
 -- Occupied --
-91.9740 -11.2691 -11.2641 -11.2479 -11.2387 -11.2281 -11.2145  -8.9743
 -6.6552  -6.6546  -6.6541  -1.1631  -1.0522  -0.9992  -0.9380  -0.8853
 -0.7435  -0.7254  -0.6465  -0.5874  -0.5795  -0.5677  -0.5570  -0.5412
 -0.5139  -0.4817  -0.4647  -0.4350  -0.3374  -0.3043

          Ground-State Mulliken Net Atomic Charges

     Atom                 Charge (a.u.)
  ----------------------------------------
      1 C                     0.002760
      2 C                    -0.245547
      3 C                     0.031967
      4 H                     0.177377
      5 C                    -0.238190
      6 S                    -0.002731
      7 C                    -0.270064
      8 H                     0.101485
      9 H                     0.106890
     10 H                     0.106795
     11 C                    -0.355731
     12 H                     0.114508
     13 H                     0.126918
     14 H                     0.149189
     15 H                     0.194372
  ----------------------------------------
  Sum of atomic charges =     0.000000

                    Cartesian Multipole Moments
 -----------------------------------------------------------------
    Charge (ESU x 10^10)
                -0.0000
    Dipole Moment (Debye)
         X       0.6881      Y       0.1218      Z       2.1943
       Tot       2.3029
    Quadrupole Moments (Debye-Ang)
        XX     -51.5971     XY       4.2717     YY     -44.6548
        XZ       0.1067     YZ      -1.0221     ZZ     -48.7856

 Total job time:  15.85s(wall), 750.02s(cpu)
        *  Thank you very much for using Q-Chem.  Have a nice day.  *
