 Q-Chem 5.4, Q-Chem, Inc., Pleasanton, CA (2021)
 Q-Chem 5.4.0 for Intel X86 EM64T Linux

User input:
--------------------------------------------------------------
$molecule
0 1
C	-0.334041	-0.486609	0.004709
C	0.085559	0.246391	1.117709
C	0.777059	1.453391	0.825309
H	-0.107341	-0.090409	2.147609
C	0.900559	1.668591	-0.558891
S	0.148059	0.355791	-1.459991
C	1.306259	2.377091	1.887109
H	1.083459	1.988491	2.899709
H	0.857959	3.389991	1.812809
H	2.406659	2.502691	1.812909
C	-0.334041	-1.936709	0.004709
H	-1.161341	-1.937209	-0.689491
H	0.269159	-2.471809	-0.713791
H	-0.869341	-2.623909	0.643209
H	1.376659	2.499891	-1.092391
$end

$rem
JOBTYPE		SP
EXCHANGE	HF
CORRELATION	pRIMP2
BASIS		cc-pvtz
METHOD		rimp2
AUX_BASIS	rimp2-cc-pvtz
SOLVENT_METHOD	PCM
PURECART	11111
SYMMETRY	false
MEM_TOTAL	110000
SCF_CONVERGENCE = 6
THRESH=10
GUI = 2
$end

$solvent
dielectric 4.90
$end
--------------------------------------------------------------

             Standard Nuclear Orientation (Angstroms)
    I     Atom           X                Y                Z
 ----------------------------------------------------------------
    1      C      -0.3340410000    -0.4866090000     0.0047090000
    2      C       0.0855590000     0.2463910000     1.1177090000
    3      C       0.7770590000     1.4533910000     0.8253090000
    4      H      -0.1073410000    -0.0904090000     2.1476090000
    5      C       0.9005590000     1.6685910000    -0.5588910000
    6      S       0.1480590000     0.3557910000    -1.4599910000
    7      C       1.3062590000     2.3770910000     1.8871090000
    8      H       1.0834590000     1.9884910000     2.8997090000
    9      H       0.8579590000     3.3899910000     1.8128090000
   10      H       2.4066590000     2.5026910000     1.8129090000
   11      C      -0.3340410000    -1.9367090000     0.0047090000
   12      H      -1.1613410000    -1.9372090000    -0.6894910000
   13      H       0.2691590000    -2.4718090000    -0.7137910000
   14      H      -0.8693410000    -2.6239090000     0.6432090000
   15      H       1.3766590000     2.4998910000    -1.0923910000
 ----------------------------------------------------------------

   10    -629.4025423283      5.22e-07  Convergence criterion met
 Total energy in the final basis set =     -629.4025423283
        RIMP2         total energy =      -630.5833996114 a.u.

                    Orbital Energies (a.u.)
 --------------------------------------------------------------

 Alpha MOs
 -- Occupied --
-91.9791 -11.2715 -11.2604 -11.2473 -11.2303 -11.2270 -11.2151  -8.9791
 -6.6600  -6.6595  -6.6589  -1.1621  -1.0530  -0.9951  -0.9438  -0.8828
 -0.7469  -0.7198  -0.6449  -0.5888  -0.5741  -0.5679  -0.5525  -0.5451
 -0.5114  -0.4861  -0.4602  -0.4496  -0.3377  -0.2944

          Ground-State Mulliken Net Atomic Charges

     Atom                 Charge (a.u.)
  ----------------------------------------
      1 C                    -0.013219
      2 C                    -0.230343
      3 C                     0.031116
      4 H                     0.179415
      5 C                    -0.244729
      6 S                    -0.001643
      7 C                    -0.271610
      8 H                     0.101664
      9 H                     0.107002
     10 H                     0.106161
     11 C                    -0.374445
     12 H                     0.121503
     13 H                     0.140130
     14 H                     0.153627
     15 H                     0.195370
  ----------------------------------------
  Sum of atomic charges =     0.000000

                    Cartesian Multipole Moments
 -----------------------------------------------------------------
    Charge (ESU x 10^10)
                -0.0000
    Dipole Moment (Debye)
         X       0.3301      Y      -0.1021      Z       1.1314
       Tot       1.1830
    Quadrupole Moments (Debye-Ang)
        XX     -51.8012     XY       5.0218     YY     -44.4575
        XZ      -0.1826     YZ       0.8647     ZZ     -48.5127

 Total job time:  16.82s(wall), 790.37s(cpu)
        *  Thank you very much for using Q-Chem.  Have a nice day.  *
