 Q-Chem 5.4, Q-Chem, Inc., Pleasanton, CA (2021)
 Q-Chem 5.4.0 for Intel X86 EM64T Linux

User input:
--------------------------------------------------------------
$molecule
0 1
C	-0.176843	-0.553870	-0.002247
C	0.038757	0.262730	1.110753
C	0.394257	1.607530	0.818353
H	-0.060343	-0.112470	2.140653
C	0.457857	1.847430	-0.565847
S	0.070757	0.384630	-1.466947
C	0.666357	2.636830	1.880153
H	0.551757	2.203730	2.892753
H	-0.028743	3.499130	1.805853
H	1.696857	3.042930	1.805953
C	-0.176843	-2.003970	-0.002247
H	0.650457	-2.004470	0.691953
H	-0.780043	-2.539070	0.716253
H	0.358457	-2.691170	-0.640747
H	0.702657	2.773630	-1.099347
$end

$rem
JOBTYPE		SP
EXCHANGE	HF
CORRELATION	pRIMP2
BASIS		cc-pvtz
METHOD		rimp2
AUX_BASIS	rimp2-cc-pvtz
SOLVENT_METHOD	PCM
PURECART	11111
SYMMETRY	false
MEM_TOTAL	110000
SCF_CONVERGENCE = 6
THRESH=10
GUI = 2
$end

$solvent
dielectric 4.90
$end
--------------------------------------------------------------

             Standard Nuclear Orientation (Angstroms)
    I     Atom           X                Y                Z
 ----------------------------------------------------------------
    1      C      -0.1768430000    -0.5538700000    -0.0022470000
    2      C       0.0387570000     0.2627300000     1.1107530000
    3      C       0.3942570000     1.6075300000     0.8183530000
    4      H      -0.0603430000    -0.1124700000     2.1406530000
    5      C       0.4578570000     1.8474300000    -0.5658470000
    6      S       0.0707570000     0.3846300000    -1.4669470000
    7      C       0.6663570000     2.6368300000     1.8801530000
    8      H       0.5517570000     2.2037300000     2.8927530000
    9      H      -0.0287430000     3.4991300000     1.8058530000
   10      H       1.6968570000     3.0429300000     1.8059530000
   11      C      -0.1768430000    -2.0039700000    -0.0022470000
   12      H       0.6504570000    -2.0044700000     0.6919530000
   13      H      -0.7800430000    -2.5390700000     0.7162530000
   14      H       0.3584570000    -2.6911700000    -0.6407470000
   15      H       0.7026570000     2.7736300000    -1.0993470000
 ----------------------------------------------------------------

   10    -629.4198225380      5.84e-07  Convergence criterion met
 Total energy in the final basis set =     -629.4198225380
        RIMP2         total energy =      -630.5975163661 a.u.

                    Orbital Energies (a.u.)
 --------------------------------------------------------------

 Alpha MOs
 -- Occupied --
-91.9784 -11.2826 -11.2520 -11.2477 -11.2271 -11.2265 -11.2194  -8.9781
 -6.6590  -6.6585  -6.6580  -1.1610  -1.0537  -0.9986  -0.9386  -0.8844
 -0.7425  -0.7207  -0.6469  -0.5902  -0.5740  -0.5708  -0.5568  -0.5429
 -0.5093  -0.4860  -0.4675  -0.4513  -0.3366  -0.2936

          Ground-State Mulliken Net Atomic Charges

     Atom                 Charge (a.u.)
  ----------------------------------------
      1 C                     0.048985
      2 C                    -0.273375
      3 C                     0.036664
      4 H                     0.174756
      5 C                    -0.270036
      6 S                    -0.000255
      7 C                    -0.272637
      8 H                     0.101322
      9 H                     0.107375
     10 H                     0.106941
     11 C                    -0.389464
     12 H                     0.142706
     13 H                     0.137156
     14 H                     0.157083
     15 H                     0.192779
  ----------------------------------------
  Sum of atomic charges =     0.000000

                    Cartesian Multipole Moments
 -----------------------------------------------------------------
    Charge (ESU x 10^10)
                -0.0000
    Dipole Moment (Debye)
         X       0.8481      Y      -0.5042      Z       1.8958
       Tot       2.1372
    Quadrupole Moments (Debye-Ang)
        XX     -53.7578     XY       0.9284     YY     -42.6705
        XZ      -0.2374     YZ      -0.4654     ZZ     -48.6578

 Total job time:  15.98s(wall), 764.03s(cpu)
        *  Thank you very much for using Q-Chem.  Have a nice day.  *
