 Q-Chem 5.4, Q-Chem, Inc., Pleasanton, CA (2021)
 Q-Chem 5.4.0 for Intel X86 EM64T Linux

User input:
--------------------------------------------------------------
$molecule
0 1
C	-0.060272	-0.574004	0.004642
C	0.010228	0.267696	1.117642
C	0.126828	1.653696	0.825242
H	-0.022172	-0.119104	2.147542
C	0.147828	1.900996	-0.558958
S	0.020628	0.393196	-1.460058
C	0.216028	2.714596	1.887042
H	0.178428	2.268196	2.899642
H	-0.618272	3.443096	1.812742
H	1.160328	3.293496	1.812842
C	-0.060272	-2.024104	0.004642
H	0.633928	-2.024604	-0.822658
H	0.658228	-2.559204	0.607842
H	-0.698772	-2.711304	-0.530658
H	0.228028	2.855696	-1.092458
$end

$rem
JOBTYPE		SP
EXCHANGE	HF
CORRELATION	pRIMP2
BASIS		cc-pvtz
METHOD		rimp2
AUX_BASIS	rimp2-cc-pvtz
SOLVENT_METHOD	PCM
PURECART	11111
SYMMETRY	false
MEM_TOTAL	110000
SCF_CONVERGENCE = 6
THRESH=10
GUI = 2
$end

$solvent
dielectric 4.90
$end
--------------------------------------------------------------

             Standard Nuclear Orientation (Angstroms)
    I     Atom           X                Y                Z
 ----------------------------------------------------------------
    1      C      -0.0602720000    -0.5740040000     0.0046420000
    2      C       0.0102280000     0.2676960000     1.1176420000
    3      C       0.1268280000     1.6536960000     0.8252420000
    4      H      -0.0221720000    -0.1191040000     2.1475420000
    5      C       0.1478280000     1.9009960000    -0.5589580000
    6      S       0.0206280000     0.3931960000    -1.4600580000
    7      C       0.2160280000     2.7145960000     1.8870420000
    8      H       0.1784280000     2.2681960000     2.8996420000
    9      H      -0.6182720000     3.4430960000     1.8127420000
   10      H       1.1603280000     3.2934960000     1.8128420000
   11      C      -0.0602720000    -2.0241040000     0.0046420000
   12      H       0.6339280000    -2.0246040000    -0.8226580000
   13      H       0.6582280000    -2.5592040000     0.6078420000
   14      H      -0.6987720000    -2.7113040000    -0.5306580000
   15      H       0.2280280000     2.8556960000    -1.0924580000
 ----------------------------------------------------------------

   10    -629.4237554521      5.97e-07  Convergence criterion met
 Total energy in the final basis set =     -629.4237554521
        RIMP2         total energy =      -630.6000507266 a.u.

                    Orbital Energies (a.u.)
 --------------------------------------------------------------

 Alpha MOs
 -- Occupied --
-91.9789 -11.2796 -11.2552 -11.2470 -11.2273 -11.2269 -11.2191  -8.9789
 -6.6598  -6.6593  -6.6587  -1.1605  -1.0539  -0.9957  -0.9444  -0.8830
 -0.7465  -0.7182  -0.6468  -0.5906  -0.5758  -0.5667  -0.5516  -0.5464
 -0.5080  -0.4902  -0.4651  -0.4504  -0.3387  -0.2980

          Ground-State Mulliken Net Atomic Charges

     Atom                 Charge (a.u.)
  ----------------------------------------
      1 C                     0.051494
      2 C                    -0.278081
      3 C                     0.041992
      4 H                     0.180389
      5 C                    -0.262295
      6 S                    -0.003906
      7 C                    -0.272956
      8 H                     0.101695
      9 H                     0.107273
     10 H                     0.107067
     11 C                    -0.371561
     12 H                     0.121187
     13 H                     0.137833
     14 H                     0.145148
     15 H                     0.194719
  ----------------------------------------
  Sum of atomic charges =     0.000000

                    Cartesian Multipole Moments
 -----------------------------------------------------------------
    Charge (ESU x 10^10)
                -0.0000
    Dipole Moment (Debye)
         X       0.5608      Y      -0.2631      Z       0.9752
       Tot       1.1553
    Quadrupole Moments (Debye-Ang)
        XX     -53.9976     XY      -0.1675     YY     -41.9950
        XZ       0.3744     YZ       1.4731     ZZ     -48.7388

 Total job time:  15.75s(wall), 739.36s(cpu)
        *  Thank you very much for using Q-Chem.  Have a nice day.  *
