 Q-Chem 5.4, Q-Chem, Inc., Pleasanton, CA (2021)
 Q-Chem 5.4.0 for Intel X86 EM64T Linux

User input:
--------------------------------------------------------------
$molecule
0 1
C	-0.112141	-0.566489	0.004709
C	0.031459	0.265811	1.117709
C	0.268359	1.636511	0.825309
H	-0.034541	-0.116589	2.147609
C	0.310859	1.881011	-0.558891
S	0.052759	0.390011	-1.459991
C	0.449759	2.685511	1.887109
H	0.373359	2.244111	2.899709
H	-0.317841	3.484011	1.812809
H	1.440859	3.179911	1.812909
C	-0.112141	-2.016589	0.004709
H	-0.939441	-2.017089	-0.689491
H	0.491059	-2.551689	-0.713791
H	-0.647441	-2.703789	0.643209
H	0.473959	2.825011	-1.092391
$end

$rem
JOBTYPE		SP
EXCHANGE	HF
CORRELATION	pRIMP2
BASIS		cc-pvtz
METHOD		rimp2
AUX_BASIS	rimp2-cc-pvtz
SOLVENT_METHOD	PCM
PURECART	11111
SYMMETRY	false
MEM_TOTAL	110000
SCF_CONVERGENCE = 6
THRESH=10
GUI = 2
$end

$solvent
dielectric 4.90
$end
--------------------------------------------------------------

             Standard Nuclear Orientation (Angstroms)
    I     Atom           X                Y                Z
 ----------------------------------------------------------------
    1      C      -0.1121410000    -0.5664890000     0.0047090000
    2      C       0.0314590000     0.2658110000     1.1177090000
    3      C       0.2683590000     1.6365110000     0.8253090000
    4      H      -0.0345410000    -0.1165890000     2.1476090000
    5      C       0.3108590000     1.8810110000    -0.5588910000
    6      S       0.0527590000     0.3900110000    -1.4599910000
    7      C       0.4497590000     2.6855110000     1.8871090000
    8      H       0.3733590000     2.2441110000     2.8997090000
    9      H      -0.3178410000     3.4840110000     1.8128090000
   10      H       1.4408590000     3.1799110000     1.8129090000
   11      C      -0.1121410000    -2.0165890000     0.0047090000
   12      H      -0.9394410000    -2.0170890000    -0.6894910000
   13      H       0.4910590000    -2.5516890000    -0.7137910000
   14      H      -0.6474410000    -2.7037890000     0.6432090000
   15      H       0.4739590000     2.8250110000    -1.0923910000
 ----------------------------------------------------------------

   10    -629.4211644061      6.02e-07  Convergence criterion met
 Total energy in the final basis set =     -629.4211644061
        RIMP2         total energy =      -630.5975255764 a.u.

                    Orbital Energies (a.u.)
 --------------------------------------------------------------

 Alpha MOs
 -- Occupied --
-91.9798 -11.2800 -11.2544 -11.2470 -11.2267 -11.2256 -11.2193  -8.9796
 -6.6606  -6.6601  -6.6595  -1.1602  -1.0538  -0.9958  -0.9443  -0.8831
 -0.7458  -0.7180  -0.6474  -0.5893  -0.5746  -0.5663  -0.5530  -0.5460
 -0.5084  -0.4905  -0.4647  -0.4525  -0.3386  -0.2950

          Ground-State Mulliken Net Atomic Charges

     Atom                 Charge (a.u.)
  ----------------------------------------
      1 C                     0.033409
      2 C                    -0.263434
      3 C                     0.033591
      4 H                     0.179907
      5 C                    -0.259071
      6 S                    -0.005671
      7 C                    -0.273669
      8 H                     0.101575
      9 H                     0.107049
     10 H                     0.107137
     11 C                    -0.373308
     12 H                     0.123666
     13 H                     0.134124
     14 H                     0.159530
     15 H                     0.195166
  ----------------------------------------
  Sum of atomic charges =     0.000000

                    Cartesian Multipole Moments
 -----------------------------------------------------------------
    Charge (ESU x 10^10)
                -0.0000
    Dipole Moment (Debye)
         X      -0.2957      Y      -0.3445      Z       1.0220
       Tot       1.1183
    Quadrupole Moments (Debye-Ang)
        XX     -53.7798     XY       2.7238     YY     -42.1018
        XZ      -0.2488     YZ       1.1213     ZZ     -48.6866

 Total job time:  18.69s(wall), 740.76s(cpu)
        *  Thank you very much for using Q-Chem.  Have a nice day.  *
