 Q-Chem 5.4, Q-Chem, Inc., Pleasanton, CA (2021)
 Q-Chem 5.4.0 for Intel X86 EM64T Linux

User input:
--------------------------------------------------------------
$molecule
0 1
C	-0.336237	-0.486609	0.005949
C	0.083363	0.246391	1.118949
C	0.774863	1.453391	0.826549
H	-0.109537	-0.090409	2.148849
C	0.898363	1.668591	-0.557651
S	0.145863	0.355791	-1.458751
C	1.304063	2.377091	1.888349
H	1.081263	1.988491	2.900949
H	0.855763	3.389991	1.814049
H	2.404463	2.502691	1.814149
C	-0.336237	-1.936709	0.005949
H	-0.705637	-1.937209	-1.008951
H	0.545363	-2.471809	-0.314751
H	-1.119037	-2.623909	0.291249
H	1.374463	2.499891	-1.091151
$end

$rem
JOBTYPE		SP
EXCHANGE	HF
CORRELATION	pRIMP2
BASIS		cc-pvtz
METHOD		rimp2
AUX_BASIS	rimp2-cc-pvtz
SOLVENT_METHOD	PCM
PURECART	11111
SYMMETRY	false
MEM_TOTAL	110000
SCF_CONVERGENCE = 6
THRESH=10
GUI = 2
$end

$solvent
dielectric 4.90
$end
--------------------------------------------------------------

             Standard Nuclear Orientation (Angstroms)
    I     Atom           X                Y                Z
 ----------------------------------------------------------------
    1      C      -0.3362370000    -0.4866090000     0.0059490000
    2      C       0.0833630000     0.2463910000     1.1189490000
    3      C       0.7748630000     1.4533910000     0.8265490000
    4      H      -0.1095370000    -0.0904090000     2.1488490000
    5      C       0.8983630000     1.6685910000    -0.5576510000
    6      S       0.1458630000     0.3557910000    -1.4587510000
    7      C       1.3040630000     2.3770910000     1.8883490000
    8      H       1.0812630000     1.9884910000     2.9009490000
    9      H       0.8557630000     3.3899910000     1.8140490000
   10      H       2.4044630000     2.5026910000     1.8141490000
   11      C      -0.3362370000    -1.9367090000     0.0059490000
   12      H      -0.7056370000    -1.9372090000    -1.0089510000
   13      H       0.5453630000    -2.4718090000    -0.3147510000
   14      H      -1.1190370000    -2.6239090000     0.2912490000
   15      H       1.3744630000     2.4998910000    -1.0911510000
 ----------------------------------------------------------------

   10    -629.4046157838      5.28e-07  Convergence criterion met
 Total energy in the final basis set =     -629.4046157838
        RIMP2         total energy =      -630.5858777596 a.u.

                    Orbital Energies (a.u.)
 --------------------------------------------------------------

 Alpha MOs
 -- Occupied --
-91.9800 -11.2678 -11.2637 -11.2475 -11.2328 -11.2273 -11.2145  -8.9800
 -6.6609  -6.6603  -6.6598  -1.1629  -1.0532  -0.9946  -0.9449  -0.8823
 -0.7487  -0.7201  -0.6451  -0.5907  -0.5755  -0.5669  -0.5527  -0.5459
 -0.5118  -0.4788  -0.4637  -0.4444  -0.3372  -0.3031

          Ground-State Mulliken Net Atomic Charges

     Atom                 Charge (a.u.)
  ----------------------------------------
      1 C                    -0.004472
      2 C                    -0.232512
      3 C                     0.033038
      4 H                     0.178128
      5 C                    -0.242962
      6 S                     0.001221
      7 C                    -0.271093
      8 H                     0.102071
      9 H                     0.106799
     10 H                     0.106074
     11 C                    -0.360696
     12 H                     0.109487
     13 H                     0.131763
     14 H                     0.147346
     15 H                     0.195805
  ----------------------------------------
  Sum of atomic charges =     0.000000

                    Cartesian Multipole Moments
 -----------------------------------------------------------------
    Charge (ESU x 10^10)
                -0.0000
    Dipole Moment (Debye)
         X       0.7038      Y       0.1438      Z       1.0006
       Tot       1.2318
    Quadrupole Moments (Debye-Ang)
        XX     -51.6341     XY       4.4845     YY     -44.5968
        XZ       0.0056     YZ       1.2007     ZZ     -48.6756

 Total job time:  16.26s(wall), 778.45s(cpu)
        *  Thank you very much for using Q-Chem.  Have a nice day.  *
