 Q-Chem 5.4, Q-Chem, Inc., Pleasanton, CA (2021)
 Q-Chem 5.4.0 for Intel X86 EM64T Linux

User input:
--------------------------------------------------------------
$molecule
0 1
C	-0.281405	-0.513776	0.004709
C	0.072795	0.253024	1.117709
C	0.656395	1.515624	0.825309
H	-0.090105	-0.099276	2.147609
C	0.760595	1.740824	-0.558891
S	0.125495	0.367424	-1.459991
C	1.102995	2.482024	1.887109
H	0.914995	2.075424	2.899709
H	0.568195	3.451924	1.812809
H	2.188395	2.703024	1.812909
C	-0.281405	-1.963876	0.004709
H	-1.108705	-1.964376	-0.689491
H	0.321795	-2.498976	-0.713791
H	-0.816705	-2.651076	0.643209
H	1.162495	2.610424	-1.092391
$end

$rem
JOBTYPE		SP
EXCHANGE	HF
CORRELATION	pRIMP2
BASIS		cc-pvtz
METHOD		rimp2
AUX_BASIS	rimp2-cc-pvtz
SOLVENT_METHOD	PCM
PURECART	11111
SYMMETRY	false
MEM_TOTAL	110000
SCF_CONVERGENCE = 6
THRESH=10
GUI = 2
$end

$solvent
dielectric 4.90
$end
--------------------------------------------------------------

             Standard Nuclear Orientation (Angstroms)
    I     Atom           X                Y                Z
 ----------------------------------------------------------------
    1      C      -0.2814050000    -0.5137760000     0.0047090000
    2      C       0.0727950000     0.2530240000     1.1177090000
    3      C       0.6563950000     1.5156240000     0.8253090000
    4      H      -0.0901050000    -0.0992760000     2.1476090000
    5      C       0.7605950000     1.7408240000    -0.5588910000
    6      S       0.1254950000     0.3674240000    -1.4599910000
    7      C       1.1029950000     2.4820240000     1.8871090000
    8      H       0.9149950000     2.0754240000     2.8997090000
    9      H       0.5681950000     3.4519240000     1.8128090000
   10      H       2.1883950000     2.7030240000     1.8129090000
   11      C      -0.2814050000    -1.9638760000     0.0047090000
   12      H      -1.1087050000    -1.9643760000    -0.6894910000
   13      H       0.3217950000    -2.4989760000    -0.7137910000
   14      H      -0.8167050000    -2.6510760000     0.6432090000
   15      H       1.1624950000     2.6104240000    -1.0923910000
 ----------------------------------------------------------------

   10    -629.4087683423      5.31e-07  Convergence criterion met
 Total energy in the final basis set =     -629.4087683423
        RIMP2         total energy =      -630.5881755361 a.u.

                    Orbital Energies (a.u.)
 --------------------------------------------------------------

 Alpha MOs
 -- Occupied --
-91.9795 -11.2744 -11.2583 -11.2472 -11.2286 -11.2269 -11.2165  -8.9794
 -6.6603  -6.6598  -6.6592  -1.1614  -1.0532  -0.9953  -0.9440  -0.8829
 -0.7465  -0.7191  -0.6457  -0.5889  -0.5741  -0.5676  -0.5526  -0.5453
 -0.5105  -0.4874  -0.4615  -0.4509  -0.3380  -0.2946

          Ground-State Mulliken Net Atomic Charges

     Atom                 Charge (a.u.)
  ----------------------------------------
      1 C                    -0.001181
      2 C                    -0.240319
      3 C                     0.032070
      4 H                     0.179479
      5 C                    -0.249485
      6 S                    -0.003098
      7 C                    -0.272192
      8 H                     0.101667
      9 H                     0.107061
     10 H                     0.106414
     11 C                    -0.373056
     12 H                     0.122370
     13 H                     0.138994
     14 H                     0.155995
     15 H                     0.195281
  ----------------------------------------
  Sum of atomic charges =     0.000000

                    Cartesian Multipole Moments
 -----------------------------------------------------------------
    Charge (ESU x 10^10)
                -0.0000
    Dipole Moment (Debye)
         X       0.1443      Y      -0.1754      Z       1.0943
       Tot       1.1177
    Quadrupole Moments (Debye-Ang)
        XX     -52.4208     XY       4.5863     YY     -43.6880
        XZ      -0.1812     YZ       0.9432     ZZ     -48.5721

 Total job time:  16.06s(wall), 767.67s(cpu)
        *  Thank you very much for using Q-Chem.  Have a nice day.  *
