 Q-Chem 5.4, Q-Chem, Inc., Pleasanton, CA (2021)
 Q-Chem 5.4.0 for Intel X86 EM64T Linux

User input:
--------------------------------------------------------------
$molecule
0 1
C	-0.232105	-0.536244	0.005627
C	0.053895	0.258456	1.118627
C	0.525195	1.567156	0.826227
H	-0.077605	-0.106644	2.148527
C	0.609495	1.800556	-0.557973
S	0.096395	0.377056	-1.459073
C	0.885995	2.568756	1.888027
H	0.734095	2.147356	2.900627
H	0.268695	3.488456	1.813727
H	1.947895	2.883556	1.813827
C	-0.232105	-1.986344	0.005627
H	0.137295	-1.986844	-1.009273
H	0.649395	-2.521444	0.326727
H	-1.015105	-2.673544	-0.279073
H	0.933995	2.701956	-1.091473
$end

$rem
JOBTYPE		SP
EXCHANGE	HF
CORRELATION	pRIMP2
BASIS		cc-pvtz
METHOD		rimp2
AUX_BASIS	rimp2-cc-pvtz
SOLVENT_METHOD	PCM
PURECART	11111
SYMMETRY	false
MEM_TOTAL	110000
SCF_CONVERGENCE = 6
THRESH=10
GUI = 2
$end

$solvent
dielectric 4.90
$end
--------------------------------------------------------------

             Standard Nuclear Orientation (Angstroms)
    I     Atom           X                Y                Z
 ----------------------------------------------------------------
    1      C      -0.2321050000    -0.5362440000     0.0056270000
    2      C       0.0538950000     0.2584560000     1.1186270000
    3      C       0.5251950000     1.5671560000     0.8262270000
    4      H      -0.0776050000    -0.1066440000     2.1485270000
    5      C       0.6094950000     1.8005560000    -0.5579730000
    6      S       0.0963950000     0.3770560000    -1.4590730000
    7      C       0.8859950000     2.5687560000     1.8880270000
    8      H       0.7340950000     2.1473560000     2.9006270000
    9      H       0.2686950000     3.4884560000     1.8137270000
   10      H       1.9478950000     2.8835560000     1.8138270000
   11      C      -0.2321050000    -1.9863440000     0.0056270000
   12      H       0.1372950000    -1.9868440000    -1.0092730000
   13      H       0.6493950000    -2.5214440000     0.3267270000
   14      H      -1.0151050000    -2.6735440000    -0.2790730000
   15      H       0.9339950000     2.7019560000    -1.0914730000
 ----------------------------------------------------------------

   10    -629.4148202186      5.49e-07  Convergence criterion met
 Total energy in the final basis set =     -629.4148202186
        RIMP2         total energy =      -630.5936472388 a.u.

                    Orbital Energies (a.u.)
 --------------------------------------------------------------

 Alpha MOs
 -- Occupied --
-91.9790 -11.2738 -11.2595 -11.2472 -11.2307 -11.2272 -11.2161  -8.9791
 -6.6600  -6.6594  -6.6588  -1.1619  -1.0538  -0.9948  -0.9450  -0.8823
 -0.7481  -0.7190  -0.6462  -0.5906  -0.5763  -0.5656  -0.5525  -0.5466
 -0.5095  -0.4856  -0.4642  -0.4453  -0.3378  -0.3026

          Ground-State Mulliken Net Atomic Charges

     Atom                 Charge (a.u.)
  ----------------------------------------
      1 C                     0.038474
      2 C                    -0.270712
      3 C                     0.047505
      4 H                     0.178582
      5 C                    -0.256135
      6 S                    -0.003309
      7 C                    -0.271768
      8 H                     0.101980
      9 H                     0.107173
     10 H                     0.106628
     11 C                    -0.369415
     12 H                     0.118636
     13 H                     0.134817
     14 H                     0.141991
     15 H                     0.195556
  ----------------------------------------
  Sum of atomic charges =     0.000000

                    Cartesian Multipole Moments
 -----------------------------------------------------------------
    Charge (ESU x 10^10)
                -0.0000
    Dipole Moment (Debye)
         X       0.7808      Y      -0.0096      Z       0.9267
       Tot       1.2118
    Quadrupole Moments (Debye-Ang)
        XX     -52.9491     XY       2.4173     YY     -43.3114
        XZ       0.4024     YZ       1.5442     ZZ     -48.7284

 Total job time:  15.83s(wall), 758.09s(cpu)
        *  Thank you very much for using Q-Chem.  Have a nice day.  *
