 Q-Chem 5.4, Q-Chem, Inc., Pleasanton, CA (2021)
 Q-Chem 5.4.0 for Intel X86 EM64T Linux

User input:
--------------------------------------------------------------
$molecule
0 1
C	-0.341849	-0.486609	-0.000871
C	0.077751	0.246391	1.112129
C	0.769251	1.453391	0.819729
H	-0.115149	-0.090409	2.142029
C	0.892751	1.668591	-0.564471
S	0.140251	0.355791	-1.465571
C	1.298451	2.377091	1.881529
H	1.075651	1.988491	2.894129
H	0.850151	3.389991	1.807229
H	2.398851	2.502691	1.807329
C	-0.341849	-1.936709	-0.000871
H	0.673051	-1.937209	0.368529
H	-0.662949	-2.471809	0.880629
H	-0.057149	-2.623909	-0.783871
H	1.368851	2.499891	-1.097971
$end

$rem
JOBTYPE		SP
EXCHANGE	HF
CORRELATION	pRIMP2
BASIS		cc-pvtz
METHOD		rimp2
AUX_BASIS	rimp2-cc-pvtz
SOLVENT_METHOD	PCM
PURECART	11111
SYMMETRY	false
MEM_TOTAL	110000
SCF_CONVERGENCE = 6
THRESH=10
GUI = 2
$end

$solvent
dielectric 4.90
$end
--------------------------------------------------------------

             Standard Nuclear Orientation (Angstroms)
    I     Atom           X                Y                Z
 ----------------------------------------------------------------
    1      C      -0.3418490000    -0.4866090000    -0.0008710000
    2      C       0.0777510000     0.2463910000     1.1121290000
    3      C       0.7692510000     1.4533910000     0.8197290000
    4      H      -0.1151490000    -0.0904090000     2.1420290000
    5      C       0.8927510000     1.6685910000    -0.5644710000
    6      S       0.1402510000     0.3557910000    -1.4655710000
    7      C       1.2984510000     2.3770910000     1.8815290000
    8      H       1.0756510000     1.9884910000     2.8941290000
    9      H       0.8501510000     3.3899910000     1.8072290000
   10      H       2.3988510000     2.5026910000     1.8073290000
   11      C      -0.3418490000    -1.9367090000    -0.0008710000
   12      H       0.6730510000    -1.9372090000     0.3685290000
   13      H      -0.6629490000    -2.4718090000     0.8806290000
   14      H      -0.0571490000    -2.6239090000    -0.7838710000
   15      H       1.3688510000     2.4998910000    -1.0979710000
 ----------------------------------------------------------------

   10    -629.4075574054      5.92e-07  Convergence criterion met
 Total energy in the final basis set =     -629.4075574054
        RIMP2         total energy =      -630.5875749000 a.u.

                    Orbital Energies (a.u.)
 --------------------------------------------------------------

 Alpha MOs
 -- Occupied --
-91.9788 -11.2809 -11.2539 -11.2484 -11.2273 -11.2259 -11.2201  -8.9786
 -6.6595  -6.6590  -6.6584  -1.1637  -1.0547  -0.9977  -0.9381  -0.8835
 -0.7439  -0.7209  -0.6456  -0.5886  -0.5773  -0.5698  -0.5542  -0.5442
 -0.5090  -0.4879  -0.4637  -0.4563  -0.3372  -0.2889

          Ground-State Mulliken Net Atomic Charges

     Atom                 Charge (a.u.)
  ----------------------------------------
      1 C                     0.026635
      2 C                    -0.273822
      3 C                     0.043267
      4 H                     0.174048
      5 C                    -0.271736
      6 S                     0.006030
      7 C                    -0.270048
      8 H                     0.101709
      9 H                     0.107591
     10 H                     0.106270
     11 C                    -0.383760
     12 H                     0.150797
     13 H                     0.132480
     14 H                     0.157134
     15 H                     0.193405
  ----------------------------------------
  Sum of atomic charges =     0.000000

                    Cartesian Multipole Moments
 -----------------------------------------------------------------
    Charge (ESU x 10^10)
                -0.0000
    Dipole Moment (Debye)
         X       1.3023      Y      -0.5595      Z       1.6923
       Tot       2.2075
    Quadrupole Moments (Debye-Ang)
        XX     -52.7690     XY       2.5489     YY     -44.3797
        XZ      -0.0194     YZ      -0.1164     ZZ     -48.4493

 Total job time:  17.66s(wall), 761.55s(cpu)
        *  Thank you very much for using Q-Chem.  Have a nice day.  *
