 Q-Chem 5.4, Q-Chem, Inc., Pleasanton, CA (2021)
 Q-Chem 5.4.0 for Intel X86 EM64T Linux

User input:
--------------------------------------------------------------
$molecule
0 1
C	-0.523366	-0.335659	0.002446
C	0.121634	0.209641	1.115446
C	1.184234	1.107341	0.823046
H	-0.174766	-0.040859	2.145346
C	1.373834	1.267341	-0.561154
S	0.217834	0.291041	-1.462254
C	1.997434	1.794341	1.884846
H	1.655234	1.505341	2.897446
H	1.922634	2.899441	1.810546
H	3.074434	1.535941	1.810646
C	-0.523366	-1.785759	0.002446
H	0.491534	-1.786259	-0.366954
H	-0.202666	-2.320859	0.884046
H	-0.808666	-2.472959	-0.780354
H	2.105634	1.885641	-1.094654
$end

$rem
JOBTYPE		SP
EXCHANGE	HF
CORRELATION	pRIMP2
BASIS		cc-pvtz
METHOD		rimp2
AUX_BASIS	rimp2-cc-pvtz
SOLVENT_METHOD	PCM
PURECART	11111
SYMMETRY	false
MEM_TOTAL	110000
SCF_CONVERGENCE = 6
THRESH=10
GUI = 2
$end

$solvent
dielectric 4.90
$end
--------------------------------------------------------------

             Standard Nuclear Orientation (Angstroms)
    I     Atom           X                Y                Z
 ----------------------------------------------------------------
    1      C      -0.5233660000    -0.3356590000     0.0024460000
    2      C       0.1216340000     0.2096410000     1.1154460000
    3      C       1.1842340000     1.1073410000     0.8230460000
    4      H      -0.1747660000    -0.0408590000     2.1453460000
    5      C       1.3738340000     1.2673410000    -0.5611540000
    6      S       0.2178340000     0.2910410000    -1.4622540000
    7      C       1.9974340000     1.7943410000     1.8848460000
    8      H       1.6552340000     1.5053410000     2.8974460000
    9      H       1.9226340000     2.8994410000     1.8105460000
   10      H       3.0744340000     1.5359410000     1.8106460000
   11      C      -0.5233660000    -1.7857590000     0.0024460000
   12      H       0.4915340000    -1.7862590000    -0.3669540000
   13      H      -0.2026660000    -2.3208590000     0.8840460000
   14      H      -0.8086660000    -2.4729590000    -0.7803540000
   15      H       2.1056340000     1.8856410000    -1.0946540000
 ----------------------------------------------------------------

   10    -629.3762281878      6.12e-07  Convergence criterion met
 Total energy in the final basis set =     -629.3762281878
        RIMP2         total energy =      -630.5625174983 a.u.

                    Orbital Energies (a.u.)
 --------------------------------------------------------------

 Alpha MOs
 -- Occupied --
-91.9724 -11.2694 -11.2672 -11.2498 -11.2390 -11.2287 -11.2165  -8.9736
 -6.6545  -6.6538  -6.6533  -1.1716  -1.0570  -0.9960  -0.9397  -0.8813
 -0.7501  -0.7254  -0.6438  -0.5873  -0.5854  -0.5659  -0.5518  -0.5456
 -0.5096  -0.4954  -0.4601  -0.4415  -0.3399  -0.2903

          Ground-State Mulliken Net Atomic Charges

     Atom                 Charge (a.u.)
  ----------------------------------------
      1 C                    -0.015869
      2 C                    -0.228503
      3 C                     0.022007
      4 H                     0.180309
      5 C                    -0.228434
      6 S                    -0.003651
      7 C                    -0.268469
      8 H                     0.102162
      9 H                     0.107906
     10 H                     0.106057
     11 C                    -0.366011
     12 H                     0.130607
     13 H                     0.129854
     14 H                     0.136622
     15 H                     0.195414
  ----------------------------------------
  Sum of atomic charges =     0.000000

                    Cartesian Multipole Moments
 -----------------------------------------------------------------
    Charge (ESU x 10^10)
                -0.0000
    Dipole Moment (Debye)
         X       2.1409      Y      -0.2301      Z       1.5199
       Tot       2.6356
    Quadrupole Moments (Debye-Ang)
        XX     -50.1575     XY       3.7902     YY     -47.9090
        XZ       0.2750     YZ       0.6326     ZZ     -48.2002

 Total job time:  15.78s(wall), 764.22s(cpu)
        *  Thank you very much for using Q-Chem.  Have a nice day.  *
