 Q-Chem 5.4, Q-Chem, Inc., Pleasanton, CA (2021)
 Q-Chem 5.4.0 for Intel X86 EM64T Linux

User input:
--------------------------------------------------------------
$molecule
0 1
C	-0.052398	-0.574004	0.003333
C	0.018102	0.267696	1.116333
C	0.134702	1.653696	0.823933
H	-0.014298	-0.119104	2.146233
C	0.155702	1.900996	-0.560267
S	0.028502	0.393196	-1.461367
C	0.223902	2.714596	1.885733
H	0.186302	2.268196	2.898333
H	-0.610398	3.443096	1.811433
H	1.168202	3.293496	1.811533
C	-0.052398	-2.024104	0.003333
H	-1.067298	-2.024604	-0.366067
H	0.268702	-2.559204	-0.878167
H	-0.337098	-2.711304	0.786333
H	0.235902	2.855696	-1.093767
$end

$rem
JOBTYPE		SP
EXCHANGE	HF
CORRELATION	pRIMP2
BASIS		cc-pvtz
METHOD		rimp2
AUX_BASIS	rimp2-cc-pvtz
SOLVENT_METHOD	PCM
PURECART	11111
SYMMETRY	false
MEM_TOTAL	110000
SCF_CONVERGENCE = 6
THRESH=10
GUI = 2
$end

$solvent
dielectric 4.90
$end
--------------------------------------------------------------

             Standard Nuclear Orientation (Angstroms)
    I     Atom           X                Y                Z
 ----------------------------------------------------------------
    1      C      -0.0523980000    -0.5740040000     0.0033330000
    2      C       0.0181020000     0.2676960000     1.1163330000
    3      C       0.1347020000     1.6536960000     0.8239330000
    4      H      -0.0142980000    -0.1191040000     2.1462330000
    5      C       0.1557020000     1.9009960000    -0.5602670000
    6      S       0.0285020000     0.3931960000    -1.4613670000
    7      C       0.2239020000     2.7145960000     1.8857330000
    8      H       0.1863020000     2.2681960000     2.8983330000
    9      H      -0.6103980000     3.4430960000     1.8114330000
   10      H       1.1682020000     3.2934960000     1.8115330000
   11      C      -0.0523980000    -2.0241040000     0.0033330000
   12      H      -1.0672980000    -2.0246040000    -0.3660670000
   13      H       0.2687020000    -2.5592040000    -0.8781670000
   14      H      -0.3370980000    -2.7113040000     0.7863330000
   15      H       0.2359020000     2.8556960000    -1.0937670000
 ----------------------------------------------------------------

   10    -629.4239084734      6.68e-07  Convergence criterion met
 Total energy in the final basis set =     -629.4239084734
        RIMP2         total energy =      -630.5990592855 a.u.

                    Orbital Energies (a.u.)
 --------------------------------------------------------------

 Alpha MOs
 -- Occupied --
-91.9794 -11.2840 -11.2509 -11.2469 -11.2265 -11.2230 -11.2219  -8.9792
 -6.6602  -6.6597  -6.6590  -1.1599  -1.0544  -0.9964  -0.9431  -0.8833
 -0.7447  -0.7178  -0.6481  -0.5876  -0.5745  -0.5665  -0.5527  -0.5462
 -0.5076  -0.4945  -0.4653  -0.4557  -0.3386  -0.2908

          Ground-State Mulliken Net Atomic Charges

     Atom                 Charge (a.u.)
  ----------------------------------------
      1 C                     0.049407
      2 C                    -0.287392
      3 C                     0.041638
      4 H                     0.178545
      5 C                    -0.272781
      6 S                    -0.003106
      7 C                    -0.273782
      8 H                     0.101503
      9 H                     0.107210
     10 H                     0.107238
     11 C                    -0.380136
     12 H                     0.134715
     13 H                     0.139264
     14 H                     0.163068
     15 H                     0.194609
  ----------------------------------------
  Sum of atomic charges =     0.000000

                    Cartesian Multipole Moments
 -----------------------------------------------------------------
    Charge (ESU x 10^10)
                -0.0000
    Dipole Moment (Debye)
         X      -0.5831      Y      -0.6206      Z       1.1671
       Tot       1.4448
    Quadrupole Moments (Debye-Ang)
        XX     -54.2255     XY       2.2334     YY     -41.7286
        XZ      -0.1916     YZ       0.7826     ZZ     -48.6042

 Total job time:  20.77s(wall), 764.31s(cpu)
        *  Thank you very much for using Q-Chem.  Have a nice day.  *
