 Q-Chem 5.4, Q-Chem, Inc., Pleasanton, CA (2021)
 Q-Chem 5.4.0 for Intel X86 EM64T Linux

User input:
--------------------------------------------------------------
$molecule
0 1
C	-0.433435	-0.419059	0.005949
C	0.107065	0.229941	1.118949
C	0.997565	1.298441	0.826549
H	-0.141335	-0.068259	2.148849
C	1.156665	1.489041	-0.557651
S	0.187665	0.326841	-1.458751
C	1.679165	2.116341	1.888349
H	1.392365	1.772241	2.900949
H	1.413665	3.191641	1.814049
H	2.784765	2.048841	1.814149
C	-0.433435	-1.869159	0.005949
H	-0.802835	-1.869659	-1.008951
H	0.448165	-2.404259	-0.314751
H	-1.216235	-2.556359	0.291249
H	1.769865	2.225041	-1.091151
$end

$rem
JOBTYPE		SP
EXCHANGE	HF
CORRELATION	pRIMP2
BASIS		cc-pvtz
METHOD		rimp2
AUX_BASIS	rimp2-cc-pvtz
SOLVENT_METHOD	PCM
PURECART	11111
SYMMETRY	false
MEM_TOTAL	110000
SCF_CONVERGENCE = 6
THRESH=10
GUI = 2
$end

$solvent
dielectric 4.90
$end
--------------------------------------------------------------

             Standard Nuclear Orientation (Angstroms)
    I     Atom           X                Y                Z
 ----------------------------------------------------------------
    1      C      -0.4334350000    -0.4190590000     0.0059490000
    2      C       0.1070650000     0.2299410000     1.1189490000
    3      C       0.9975650000     1.2984410000     0.8265490000
    4      H      -0.1413350000    -0.0682590000     2.1488490000
    5      C       1.1566650000     1.4890410000    -0.5576510000
    6      S       0.1876650000     0.3268410000    -1.4587510000
    7      C       1.6791650000     2.1163410000     1.8883490000
    8      H       1.3923650000     1.7722410000     2.9009490000
    9      H       1.4136650000     3.1916410000     1.8140490000
   10      H       2.7847650000     2.0488410000     1.8141490000
   11      C      -0.4334350000    -1.8691590000     0.0059490000
   12      H      -0.8028350000    -1.8696590000    -1.0089510000
   13      H       0.4481650000    -2.4042590000    -0.3147510000
   14      H      -1.2162350000    -2.5563590000     0.2912490000
   15      H       1.7698650000     2.2250410000    -1.0911510000
 ----------------------------------------------------------------

   10    -629.3906071322      5.46e-07  Convergence criterion met
 Total energy in the final basis set =     -629.3906071322
        RIMP2         total energy =      -630.5747131052 a.u.

                    Orbital Energies (a.u.)
 --------------------------------------------------------------

 Alpha MOs
 -- Occupied --
-91.9790 -11.2690 -11.2610 -11.2478 -11.2373 -11.2277 -11.2125  -8.9791
 -6.6600  -6.6594  -6.6589  -1.1652  -1.0535  -0.9944  -0.9444  -0.8817
 -0.7501  -0.7219  -0.6439  -0.5909  -0.5763  -0.5674  -0.5520  -0.5458
 -0.5139  -0.4736  -0.4619  -0.4430  -0.3362  -0.3036

          Ground-State Mulliken Net Atomic Charges

     Atom                 Charge (a.u.)
  ----------------------------------------
      1 C                    -0.035818
      2 C                    -0.200268
      3 C                     0.022044
      4 H                     0.178325
      5 C                    -0.228175
      6 S                     0.003922
      7 C                    -0.270080
      8 H                     0.102065
      9 H                     0.106843
     10 H                     0.105393
     11 C                    -0.360735
     12 H                     0.107470
     13 H                     0.131102
     14 H                     0.141267
     15 H                     0.196646
  ----------------------------------------
  Sum of atomic charges =     0.000000

                    Cartesian Multipole Moments
 -----------------------------------------------------------------
    Charge (ESU x 10^10)
                -0.0000
    Dipole Moment (Debye)
         X       1.1486      Y       0.2438      Z       1.0840
       Tot       1.5981
    Quadrupole Moments (Debye-Ang)
        XX     -50.3138     XY       5.0880     YY     -46.3052
        XZ      -0.0225     YZ       1.0364     ZZ     -48.5107

 Total job time:  16.48s(wall), 749.49s(cpu)
        *  Thank you very much for using Q-Chem.  Have a nice day.  *
