 Q-Chem 5.4, Q-Chem, Inc., Pleasanton, CA (2021)
 Q-Chem 5.4.0 for Intel X86 EM64T Linux

User input:
--------------------------------------------------------------
$molecule
0 1
C	-0.439345	-0.419059	-0.000076
C	0.101155	0.229941	1.112924
C	0.991655	1.298441	0.820524
H	-0.147245	-0.068259	2.142824
C	1.150755	1.489041	-0.563676
S	0.181755	0.326841	-1.464776
C	1.673255	2.116341	1.882324
H	1.386455	1.772241	2.894924
H	1.407755	3.191641	1.808024
H	2.778855	2.048841	1.808124
C	-0.439345	-1.869159	-0.000076
H	0.624255	-1.869659	0.187424
H	-0.602445	-2.404259	0.923824
H	-0.294945	-2.556359	-0.820676
H	1.763955	2.225041	-1.097176
$end

$rem
JOBTYPE		SP
EXCHANGE	HF
CORRELATION	pRIMP2
BASIS		cc-pvtz
METHOD		rimp2
AUX_BASIS	rimp2-cc-pvtz
SOLVENT_METHOD	PCM
PURECART	11111
SYMMETRY	false
MEM_TOTAL	110000
SCF_CONVERGENCE = 6
THRESH=10
GUI = 2
$end

$solvent
dielectric 4.90
$end
--------------------------------------------------------------

             Standard Nuclear Orientation (Angstroms)
    I     Atom           X                Y                Z
 ----------------------------------------------------------------
    1      C      -0.4393450000    -0.4190590000    -0.0000760000
    2      C       0.1011550000     0.2299410000     1.1129240000
    3      C       0.9916550000     1.2984410000     0.8205240000
    4      H      -0.1472450000    -0.0682590000     2.1428240000
    5      C       1.1507550000     1.4890410000    -0.5636760000
    6      S       0.1817550000     0.3268410000    -1.4647760000
    7      C       1.6732550000     2.1163410000     1.8823240000
    8      H       1.3864550000     1.7722410000     2.8949240000
    9      H       1.4077550000     3.1916410000     1.8080240000
   10      H       2.7788550000     2.0488410000     1.8081240000
   11      C      -0.4393450000    -1.8691590000    -0.0000760000
   12      H       0.6242550000    -1.8696590000     0.1874240000
   13      H      -0.6024450000    -2.4042590000     0.9238240000
   14      H      -0.2949450000    -2.5563590000    -0.8206760000
   15      H       1.7639550000     2.2250410000    -1.0971760000
 ----------------------------------------------------------------

   10    -629.3945139431      5.72e-07  Convergence criterion met
 Total energy in the final basis set =     -629.3945139431
        RIMP2         total energy =      -630.5775917391 a.u.

                    Orbital Energies (a.u.)
 --------------------------------------------------------------

 Alpha MOs
 -- Occupied --
-91.9778 -11.2763 -11.2594 -11.2493 -11.2293 -11.2279 -11.2194  -8.9779
 -6.6588  -6.6582  -6.6577  -1.1669  -1.0555  -0.9974  -0.9377  -0.8830
 -0.7458  -0.7226  -0.6447  -0.5879  -0.5808  -0.5684  -0.5530  -0.5450
 -0.5091  -0.4909  -0.4590  -0.4558  -0.3380  -0.2881

          Ground-State Mulliken Net Atomic Charges

     Atom                 Charge (a.u.)
  ----------------------------------------
      1 C                     0.006783
      2 C                    -0.255842
      3 C                     0.037310
      4 H                     0.175110
      5 C                    -0.259601
      6 S                     0.007012
      7 C                    -0.268940
      8 H                     0.101995
      9 H                     0.107774
     10 H                     0.105775
     11 C                    -0.375892
     12 H                     0.144555
     13 H                     0.127626
     14 H                     0.152000
     15 H                     0.194335
  ----------------------------------------
  Sum of atomic charges =     0.000000

                    Cartesian Multipole Moments
 -----------------------------------------------------------------
    Charge (ESU x 10^10)
                -0.0000
    Dipole Moment (Debye)
         X       1.6418      Y      -0.4415      Z       1.6277
       Tot       2.3537
    Quadrupole Moments (Debye-Ang)
        XX     -51.6516     XY       3.3588     YY     -45.9897
        XZ       0.0721     YZ       0.0163     ZZ     -48.3007

 Total job time:  17.21s(wall), 809.05s(cpu)
        *  Thank you very much for using Q-Chem.  Have a nice day.  *
