 Q-Chem 5.4, Q-Chem, Inc., Pleasanton, CA (2021)
 Q-Chem 5.4.0 for Intel X86 EM64T Linux

User input:
--------------------------------------------------------------
$molecule
0 1
C	-0.225145	-0.536244	0.000852
C	0.060855	0.258456	1.113852
C	0.532155	1.567156	0.821452
H	-0.070645	-0.106644	2.143752
C	0.616455	1.800556	-0.562748
S	0.103355	0.377056	-1.463848
C	0.892955	2.568756	1.883252
H	0.741055	2.147356	2.895852
H	0.275655	3.488456	1.808952
H	1.954855	2.883556	1.809052
C	-0.225145	-1.986344	0.000852
H	-1.288745	-1.986844	0.188452
H	-0.387845	-2.521444	-0.923048
H	-0.080145	-2.673544	0.821352
H	0.940955	2.701956	-1.096248
$end

$rem
JOBTYPE		SP
EXCHANGE	HF
CORRELATION	pRIMP2
BASIS		cc-pvtz
METHOD		rimp2
AUX_BASIS	rimp2-cc-pvtz
SOLVENT_METHOD	PCM
PURECART	11111
SYMMETRY	false
MEM_TOTAL	110000
SCF_CONVERGENCE = 6
THRESH=10
GUI = 2
$end

$solvent
dielectric 4.90
$end
--------------------------------------------------------------

             Standard Nuclear Orientation (Angstroms)
    I     Atom           X                Y                Z
 ----------------------------------------------------------------
    1      C      -0.2251450000    -0.5362440000     0.0008520000
    2      C       0.0608550000     0.2584560000     1.1138520000
    3      C       0.5321550000     1.5671560000     0.8214520000
    4      H      -0.0706450000    -0.1066440000     2.1437520000
    5      C       0.6164550000     1.8005560000    -0.5627480000
    6      S       0.1033550000     0.3770560000    -1.4638480000
    7      C       0.8929550000     2.5687560000     1.8832520000
    8      H       0.7410550000     2.1473560000     2.8958520000
    9      H       0.2756550000     3.4884560000     1.8089520000
   10      H       1.9548550000     2.8835560000     1.8090520000
   11      C      -0.2251450000    -1.9863440000     0.0008520000
   12      H      -1.2887450000    -1.9868440000     0.1884520000
   13      H      -0.3878450000    -2.5214440000    -0.9230480000
   14      H      -0.0801450000    -2.6735440000     0.8213520000
   15      H       0.9409550000     2.7019560000    -1.0962480000
 ----------------------------------------------------------------

   10    -629.4138842115      6.17e-07  Convergence criterion met
 Total energy in the final basis set =     -629.4138842115
        RIMP2         total energy =      -630.5921205902 a.u.

                    Orbital Energies (a.u.)
 --------------------------------------------------------------

 Alpha MOs
 -- Occupied --
-91.9781 -11.2806 -11.2523 -11.2473 -11.2267 -11.2257 -11.2194  -8.9779
 -6.6589  -6.6583  -6.6577  -1.1602  -1.0535  -0.9970  -0.9413  -0.8839
 -0.7437  -0.7193  -0.6473  -0.5857  -0.5732  -0.5667  -0.5558  -0.5444
 -0.5098  -0.4955  -0.4596  -0.4545  -0.3375  -0.2890

          Ground-State Mulliken Net Atomic Charges

     Atom                 Charge (a.u.)
  ----------------------------------------
      1 C                     0.041238
      2 C                    -0.297818
      3 C                     0.051117
      4 H                     0.174545
      5 C                    -0.272615
      6 S                     0.006290
      7 C                    -0.271845
      8 H                     0.101530
      9 H                     0.107141
     10 H                     0.107025
     11 C                    -0.378693
     12 H                     0.137060
     13 H                     0.140042
     14 H                     0.162153
     15 H                     0.192832
  ----------------------------------------
  Sum of atomic charges =     0.000000

                    Cartesian Multipole Moments
 -----------------------------------------------------------------
    Charge (ESU x 10^10)
                -0.0000
    Dipole Moment (Debye)
         X      -0.3016      Y      -0.5533      Z       1.5667
       Tot       1.6887
    Quadrupole Moments (Debye-Ang)
        XX     -53.1551     XY       4.3527     YY     -42.9878
        XZ       0.1894     YZ       0.0011     ZZ     -48.4596

 Total job time:  16.02s(wall), 755.18s(cpu)
        *  Thank you very much for using Q-Chem.  Have a nice day.  *
