 Q-Chem 5.4, Q-Chem, Inc., Pleasanton, CA (2021)
 Q-Chem 5.4.0 for Intel X86 EM64T Linux

User input:
--------------------------------------------------------------
$molecule
0 1
C	-0.516631	-0.335659	0.005666
C	0.128369	0.209641	1.118666
C	1.190969	1.107341	0.826266
H	-0.168031	-0.040859	2.148566
C	1.380569	1.267341	-0.557934
S	0.224569	0.291041	-1.459034
C	2.004169	1.794341	1.888066
H	1.661969	1.505341	2.900666
H	1.929369	2.899441	1.813766
H	3.081169	1.535941	1.813866
C	-0.516631	-1.785759	0.005666
H	-1.056631	-1.786259	-0.929634
H	0.295969	-2.320859	-0.463234
H	-1.238031	-2.472959	0.422566
H	2.112369	1.885641	-1.091434
$end

$rem
JOBTYPE		SP
EXCHANGE	HF
CORRELATION	pRIMP2
BASIS		cc-pvtz
METHOD		rimp2
AUX_BASIS	rimp2-cc-pvtz
SOLVENT_METHOD	PCM
PURECART	11111
SYMMETRY	false
MEM_TOTAL	110000
SCF_CONVERGENCE = 6
THRESH=10
GUI = 2
$end

$solvent
dielectric 4.90
$end
--------------------------------------------------------------

             Standard Nuclear Orientation (Angstroms)
    I     Atom           X                Y                Z
 ----------------------------------------------------------------
    1      C      -0.5166310000    -0.3356590000     0.0056660000
    2      C       0.1283690000     0.2096410000     1.1186660000
    3      C       1.1909690000     1.1073410000     0.8262660000
    4      H      -0.1680310000    -0.0408590000     2.1485660000
    5      C       1.3805690000     1.2673410000    -0.5579340000
    6      S       0.2245690000     0.2910410000    -1.4590340000
    7      C       2.0041690000     1.7943410000     1.8880660000
    8      H       1.6619690000     1.5053410000     2.9006660000
    9      H       1.9293690000     2.8994410000     1.8137660000
   10      H       3.0811690000     1.5359410000     1.8138660000
   11      C      -0.5166310000    -1.7857590000     0.0056660000
   12      H      -1.0566310000    -1.7862590000    -0.9296340000
   13      H       0.2959690000    -2.3208590000    -0.4632340000
   14      H      -1.2380310000    -2.4729590000     0.4225660000
   15      H       2.1123690000     1.8856410000    -1.0914340000
 ----------------------------------------------------------------

   10    -629.3717612629      9.54e-07  Convergence criterion met
 Total energy in the final basis set =     -629.3717612629
        RIMP2         total energy =      -630.5588374481 a.u.

                    Orbital Energies (a.u.)
 --------------------------------------------------------------

 Alpha MOs
 -- Occupied --
-91.9777 -11.2758 -11.2522 -11.2484 -11.2432 -11.2282 -11.2102  -8.9781
 -6.6590  -6.6583  -6.6579  -1.1684  -1.0540  -0.9947  -0.9436  -0.8812
 -0.7517  -0.7247  -0.6425  -0.5916  -0.5772  -0.5680  -0.5516  -0.5453
 -0.5160  -0.4733  -0.4563  -0.4408  -0.3354  -0.3015

          Ground-State Mulliken Net Atomic Charges

     Atom                 Charge (a.u.)
  ----------------------------------------
      1 C                    -0.078075
      2 C                    -0.150198
      3 C                    -0.000303
      4 H                     0.180529
      5 C                    -0.204977
      6 S                     0.007572
      7 C                    -0.269255
      8 H                     0.102099
      9 H                     0.106756
     10 H                     0.104739
     11 C                    -0.368984
     12 H                     0.106270
     13 H                     0.128549
     14 H                     0.137498
     15 H                     0.197781
  ----------------------------------------
  Sum of atomic charges =     0.000000

                    Cartesian Multipole Moments
 -----------------------------------------------------------------
    Charge (ESU x 10^10)
                -0.0000
    Dipole Moment (Debye)
         X       1.6007      Y       0.2943      Z       1.2354
       Tot       2.0433
    Quadrupole Moments (Debye-Ang)
        XX     -48.9172     XY       5.4060     YY     -48.1358
        XZ      -0.2458     YZ       0.7656     ZZ     -48.2335

 Total job time:  16.61s(wall), 748.27s(cpu)
        *  Thank you very much for using Q-Chem.  Have a nice day.  *
