 Q-Chem 5.4, Q-Chem, Inc., Pleasanton, CA (2021)
 Q-Chem 5.4.0 for Intel X86 EM64T Linux

User input:
--------------------------------------------------------------
$molecule
0 1
C	-0.433344	-0.419059	-0.003463
C	0.107156	0.229941	1.109537
C	0.997656	1.298441	0.817137
H	-0.141244	-0.068259	2.139437
C	1.156756	1.489041	-0.567063
S	0.187756	0.326841	-1.468163
C	1.679256	2.116341	1.878937
H	1.392456	1.772241	2.891537
H	1.413756	3.191641	1.804637
H	2.784856	2.048841	1.804737
C	-0.433344	-1.869159	-0.003463
H	-0.620844	-1.869659	1.060137
H	-1.357244	-2.404259	-0.166563
H	0.387256	-2.556359	0.140937
H	1.769956	2.225041	-1.100563
$end

$rem
JOBTYPE		SP
EXCHANGE	HF
CORRELATION	pRIMP2
BASIS		cc-pvtz
METHOD		rimp2
AUX_BASIS	rimp2-cc-pvtz
SOLVENT_METHOD	PCM
PURECART	11111
SYMMETRY	false
MEM_TOTAL	110000
SCF_CONVERGENCE = 6
THRESH=10
GUI = 2
$end

$solvent
dielectric 4.90
$end
--------------------------------------------------------------

             Standard Nuclear Orientation (Angstroms)
    I     Atom           X                Y                Z
 ----------------------------------------------------------------
    1      C      -0.4333440000    -0.4190590000    -0.0034630000
    2      C       0.1071560000     0.2299410000     1.1095370000
    3      C       0.9976560000     1.2984410000     0.8171370000
    4      H      -0.1412440000    -0.0682590000     2.1394370000
    5      C       1.1567560000     1.4890410000    -0.5670630000
    6      S       0.1877560000     0.3268410000    -1.4681630000
    7      C       1.6792560000     2.1163410000     1.8789370000
    8      H       1.3924560000     1.7722410000     2.8915370000
    9      H       1.4137560000     3.1916410000     1.8046370000
   10      H       2.7848560000     2.0488410000     1.8047370000
   11      C      -0.4333440000    -1.8691590000    -0.0034630000
   12      H      -0.6208440000    -1.8696590000     1.0601370000
   13      H      -1.3572440000    -2.4042590000    -0.1665630000
   14      H       0.3872560000    -2.5563590000     0.1409370000
   15      H       1.7699560000     2.2250410000    -1.1005630000
 ----------------------------------------------------------------

   10    -629.3935071826      6.51e-07  Convergence criterion met
 Total energy in the final basis set =     -629.3935071826
        RIMP2         total energy =      -630.5781095176 a.u.

                    Orbital Energies (a.u.)
 --------------------------------------------------------------

 Alpha MOs
 -- Occupied --
-91.9734 -11.2695 -11.2621 -11.2482 -11.2431 -11.2285 -11.2119  -8.9739
 -6.6548  -6.6541  -6.6537  -1.1657  -1.0525  -0.9996  -0.9364  -0.8851
 -0.7444  -0.7281  -0.6452  -0.5868  -0.5817  -0.5692  -0.5552  -0.5411
 -0.5163  -0.4752  -0.4643  -0.4313  -0.3364  -0.3063

          Ground-State Mulliken Net Atomic Charges

     Atom                 Charge (a.u.)
  ----------------------------------------
      1 C                    -0.030080
      2 C                    -0.212600
      3 C                     0.021802
      4 H                     0.176821
      5 C                    -0.223053
      6 S                     0.000219
      7 C                    -0.268696
      8 H                     0.101512
      9 H                     0.106955
     10 H                     0.106210
     11 C                    -0.350478
     12 H                     0.109962
     13 H                     0.117282
     14 H                     0.148953
     15 H                     0.195191
  ----------------------------------------
  Sum of atomic charges =     0.000000

                    Cartesian Multipole Moments
 -----------------------------------------------------------------
    Charge (ESU x 10^10)
                -0.0000
    Dipole Moment (Debye)
         X       1.2590      Y       0.2548      Z       2.2628
       Tot       2.6019
    Quadrupole Moments (Debye-Ang)
        XX     -50.3052     XY       4.5647     YY     -46.4180
        XZ      -0.1167     YZ      -1.0483     ZZ     -48.6641

 Total job time:  50.77s(wall), 747.54s(cpu)
        *  Thank you very much for using Q-Chem.  Have a nice day.  *
