 Q-Chem 5.4, Q-Chem, Inc., Pleasanton, CA (2021)
 Q-Chem 5.4.0 for Intel X86 EM64T Linux

User input:
--------------------------------------------------------------
$molecule
0 1
C	-0.337831	-0.486609	-0.003627
C	0.081769	0.246391	1.109373
C	0.773269	1.453391	0.816973
H	-0.111131	-0.090409	2.139273
C	0.896769	1.668591	-0.567227
S	0.144269	0.355791	-1.468327
C	1.302469	2.377091	1.878773
H	1.079669	1.988491	2.891373
H	0.854169	3.389991	1.804473
H	2.402869	2.502691	1.804573
C	-0.337831	-1.936709	-0.003627
H	-0.150231	-1.937209	1.059973
H	-1.261731	-2.471809	0.159073
H	0.482669	-2.623909	-0.148627
H	1.372869	2.499891	-1.100727
$end

$rem
JOBTYPE		SP
EXCHANGE	HF
CORRELATION	pRIMP2
BASIS		cc-pvtz
METHOD		rimp2
AUX_BASIS	rimp2-cc-pvtz
SOLVENT_METHOD	PCM
PURECART	11111
SYMMETRY	false
MEM_TOTAL	110000
SCF_CONVERGENCE = 6
THRESH=10
GUI = 2
$end

$solvent
dielectric 4.90
$end
--------------------------------------------------------------

             Standard Nuclear Orientation (Angstroms)
    I     Atom           X                Y                Z
 ----------------------------------------------------------------
    1      C      -0.3378310000    -0.4866090000    -0.0036270000
    2      C       0.0817690000     0.2463910000     1.1093730000
    3      C       0.7732690000     1.4533910000     0.8169730000
    4      H      -0.1111310000    -0.0904090000     2.1392730000
    5      C       0.8967690000     1.6685910000    -0.5672270000
    6      S       0.1442690000     0.3557910000    -1.4683270000
    7      C       1.3024690000     2.3770910000     1.8787730000
    8      H       1.0796690000     1.9884910000     2.8913730000
    9      H       0.8541690000     3.3899910000     1.8044730000
   10      H       2.4028690000     2.5026910000     1.8045730000
   11      C      -0.3378310000    -1.9367090000    -0.0036270000
   12      H      -0.1502310000    -1.9372090000     1.0599730000
   13      H      -1.2617310000    -2.4718090000     0.1590730000
   14      H       0.4826690000    -2.6239090000    -0.1486270000
   15      H       1.3728690000     2.4998910000    -1.1007270000
 ----------------------------------------------------------------

   10    -629.4055292991      5.10e-07  Convergence criterion met
 Total energy in the final basis set =     -629.4055292991
        RIMP2         total energy =      -630.5875178247 a.u.

                    Orbital Energies (a.u.)
 --------------------------------------------------------------

 Alpha MOs
 -- Occupied --
-91.9752 -11.2701 -11.2631 -11.2476 -11.2376 -11.2280 -11.2135  -8.9754
 -6.6563  -6.6557  -6.6552  -1.1636  -1.0524  -0.9995  -0.9370  -0.8850
 -0.7432  -0.7261  -0.6458  -0.5887  -0.5794  -0.5697  -0.5562  -0.5411
 -0.5138  -0.4751  -0.4681  -0.4377  -0.3358  -0.3044

          Ground-State Mulliken Net Atomic Charges

     Atom                 Charge (a.u.)
  ----------------------------------------
      1 C                     0.008859
      2 C                    -0.245302
      3 C                     0.031137
      4 H                     0.175176
      5 C                    -0.239814
      6 S                    -0.001409
      7 C                    -0.270402
      8 H                     0.101395
      9 H                     0.107042
     10 H                     0.106581
     11 C                    -0.361543
     12 H                     0.122091
     13 H                     0.120698
     14 H                     0.151747
     15 H                     0.193744
  ----------------------------------------
  Sum of atomic charges =     0.000000

                    Cartesian Multipole Moments
 -----------------------------------------------------------------
    Charge (ESU x 10^10)
                -0.0000
    Dipole Moment (Debye)
         X       0.9976      Y       0.0891      Z       2.2065
       Tot       2.4232
    Quadrupole Moments (Debye-Ang)
        XX     -51.7992     XY       3.4424     YY     -44.7769
        XZ      -0.2233     YZ      -1.0137     ZZ     -48.7651

 Total job time:  15.49s(wall), 740.46s(cpu)
        *  Thank you very much for using Q-Chem.  Have a nice day.  *
