 Q-Chem 5.4, Q-Chem, Inc., Pleasanton, CA (2021)
 Q-Chem 5.4.0 for Intel X86 EM64T Linux

User input:
--------------------------------------------------------------
$molecule
0 1
C	-0.280098	-0.513776	0.000015
C	0.074102	0.253024	1.113015
C	0.657702	1.515624	0.820615
H	-0.088798	-0.099276	2.142915
C	0.761902	1.740824	-0.563585
S	0.126802	0.367424	-1.464685
C	1.104302	2.482024	1.882415
H	0.916302	2.075424	2.895015
H	0.569502	3.451924	1.808115
H	2.189702	2.703024	1.808215
C	-0.280098	-1.963876	0.000015
H	-1.294998	-1.964376	0.369415
H	-0.600798	-2.498976	-0.881585
H	0.005202	-2.651076	0.782815
H	1.163802	2.610424	-1.097085
$end

$rem
JOBTYPE		SP
EXCHANGE	HF
CORRELATION	pRIMP2
BASIS		cc-pvtz
METHOD		rimp2
AUX_BASIS	rimp2-cc-pvtz
SOLVENT_METHOD	PCM
PURECART	11111
SYMMETRY	false
MEM_TOTAL	110000
SCF_CONVERGENCE = 6
THRESH=10
GUI = 2
$end

$solvent
dielectric 4.90
$end
--------------------------------------------------------------

             Standard Nuclear Orientation (Angstroms)
    I     Atom           X                Y                Z
 ----------------------------------------------------------------
    1      C      -0.2800980000    -0.5137760000     0.0000150000
    2      C       0.0741020000     0.2530240000     1.1130150000
    3      C       0.6577020000     1.5156240000     0.8206150000
    4      H      -0.0887980000    -0.0992760000     2.1429150000
    5      C       0.7619020000     1.7408240000    -0.5635850000
    6      S       0.1268020000     0.3674240000    -1.4646850000
    7      C       1.1043020000     2.4820240000     1.8824150000
    8      H       0.9163020000     2.0754240000     2.8950150000
    9      H       0.5695020000     3.4519240000     1.8081150000
   10      H       2.1897020000     2.7030240000     1.8082150000
   11      C      -0.2800980000    -1.9638760000     0.0000150000
   12      H      -1.2949980000    -1.9643760000     0.3694150000
   13      H      -0.6007980000    -2.4989760000    -0.8815850000
   14      H       0.0052020000    -2.6510760000     0.7828150000
   15      H       1.1638020000     2.6104240000    -1.0970850000
 ----------------------------------------------------------------

   10    -629.4091255341      5.72e-07  Convergence criterion met
 Total energy in the final basis set =     -629.4091255341
        RIMP2         total energy =      -630.5890743886 a.u.

                    Orbital Energies (a.u.)
 --------------------------------------------------------------

 Alpha MOs
 -- Occupied --
-91.9769 -11.2773 -11.2549 -11.2476 -11.2287 -11.2270 -11.2177  -8.9769
 -6.6578  -6.6572  -6.6566  -1.1608  -1.0530  -0.9972  -0.9406  -0.8841
 -0.7436  -0.7205  -0.6468  -0.5854  -0.5743  -0.5652  -0.5573  -0.5436
 -0.5110  -0.4944  -0.4596  -0.4498  -0.3372  -0.2901

          Ground-State Mulliken Net Atomic Charges

     Atom                 Charge (a.u.)
  ----------------------------------------
      1 C                     0.031768
      2 C                    -0.290843
      3 C                     0.048898
      4 H                     0.174586
      5 C                    -0.262740
      6 S                     0.005432
      7 C                    -0.271383
      8 H                     0.101514
      9 H                     0.107144
     10 H                     0.106849
     11 C                    -0.378277
     12 H                     0.135331
     13 H                     0.138252
     14 H                     0.161080
     15 H                     0.192390
  ----------------------------------------
  Sum of atomic charges =     0.000000

                    Cartesian Multipole Moments
 -----------------------------------------------------------------
    Charge (ESU x 10^10)
                -0.0000
    Dipole Moment (Debye)
         X      -0.1009      Y      -0.4146      Z       1.7262
       Tot       1.7782
    Quadrupole Moments (Debye-Ang)
        XX     -52.5282     XY       4.8016     YY     -43.7094
        XZ       0.2796     YZ      -0.2553     ZZ     -48.4539

 Total job time:  19.14s(wall), 752.15s(cpu)
        *  Thank you very much for using Q-Chem.  Have a nice day.  *
