 Q-Chem 5.4, Q-Chem, Inc., Pleasanton, CA (2021)
 Q-Chem 5.4.0 for Intel X86 EM64T Linux

User input:
--------------------------------------------------------------
$molecule
0 1
C	-0.334620	-0.486609	-0.002733
C	0.084980	0.246391	1.110267
C	0.776480	1.453391	0.817867
H	-0.107920	-0.090409	2.140167
C	0.899980	1.668591	-0.566333
S	0.147480	0.355791	-1.467433
C	1.305680	2.377091	1.879667
H	1.082880	1.988491	2.892267
H	0.857380	3.389991	1.805367
H	2.406080	2.502691	1.805467
C	-0.334620	-1.936709	-0.002733
H	-0.874620	-1.937209	0.932567
H	-1.146920	-2.471809	-0.472033
H	0.387080	-2.623909	0.413567
H	1.376080	2.499891	-1.099833
$end

$rem
JOBTYPE		SP
EXCHANGE	HF
CORRELATION	pRIMP2
BASIS		cc-pvtz
METHOD		rimp2
AUX_BASIS	rimp2-cc-pvtz
SOLVENT_METHOD	PCM
PURECART	11111
SYMMETRY	false
MEM_TOTAL	110000
SCF_CONVERGENCE = 6
THRESH=10
GUI = 2
$end

$solvent
dielectric 4.90
$end
--------------------------------------------------------------

             Standard Nuclear Orientation (Angstroms)
    I     Atom           X                Y                Z
 ----------------------------------------------------------------
    1      C      -0.3346200000    -0.4866090000    -0.0027330000
    2      C       0.0849800000     0.2463910000     1.1102670000
    3      C       0.7764800000     1.4533910000     0.8178670000
    4      H      -0.1079200000    -0.0904090000     2.1401670000
    5      C       0.8999800000     1.6685910000    -0.5663330000
    6      S       0.1474800000     0.3557910000    -1.4674330000
    7      C       1.3056800000     2.3770910000     1.8796670000
    8      H       1.0828800000     1.9884910000     2.8922670000
    9      H       0.8573800000     3.3899910000     1.8053670000
   10      H       2.4060800000     2.5026910000     1.8054670000
   11      C      -0.3346200000    -1.9367090000    -0.0027330000
   12      H      -0.8746200000    -1.9372090000     0.9325670000
   13      H      -1.1469200000    -2.4718090000    -0.4720330000
   14      H       0.3870800000    -2.6239090000     0.4135670000
   15      H       1.3760800000     2.4998910000    -1.0998330000
 ----------------------------------------------------------------

   10    -629.4079668278      5.29e-07  Convergence criterion met
 Total energy in the final basis set =     -629.4079668278
        RIMP2         total energy =      -630.5896667582 a.u.

                    Orbital Energies (a.u.)
 --------------------------------------------------------------

 Alpha MOs
 -- Occupied --
-91.9741 -11.2697 -11.2631 -11.2480 -11.2377 -11.2279 -11.2148  -8.9744
 -6.6554  -6.6547  -6.6542  -1.1627  -1.0522  -0.9988  -0.9384  -0.8852
 -0.7435  -0.7246  -0.6466  -0.5868  -0.5788  -0.5668  -0.5575  -0.5415
 -0.5137  -0.4845  -0.4635  -0.4366  -0.3374  -0.3018

          Ground-State Mulliken Net Atomic Charges

     Atom                 Charge (a.u.)
  ----------------------------------------
      1 C                     0.004655
      2 C                    -0.248470
      3 C                     0.031079
      4 H                     0.177867
      5 C                    -0.239645
      6 S                    -0.001857
      7 C                    -0.270525
      8 H                     0.101481
      9 H                     0.106890
     10 H                     0.106804
     11 C                    -0.362361
     12 H                     0.118318
     13 H                     0.130350
     14 H                     0.151346
     15 H                     0.194069
  ----------------------------------------
  Sum of atomic charges =     0.000000

                    Cartesian Multipole Moments
 -----------------------------------------------------------------
    Charge (ESU x 10^10)
                -0.0000
    Dipole Moment (Debye)
         X       0.5580      Y       0.0599      Z       2.1490
       Tot       2.2211
    Quadrupole Moments (Debye-Ang)
        XX     -51.6128     XY       4.5278     YY     -44.6208
        XZ       0.2085     YZ      -0.9462     ZZ     -48.7255

 Total job time:  18.37s(wall), 761.12s(cpu)
        *  Thank you very much for using Q-Chem.  Have a nice day.  *
