 Q-Chem 5.4, Q-Chem, Inc., Pleasanton, CA (2021)
 Q-Chem 5.4.0 for Intel X86 EM64T Linux

User input:
--------------------------------------------------------------
$molecule
0 1
C	-0.116769	-0.566489	-0.003488
C	0.026831	0.265811	1.109512
C	0.263731	1.636511	0.817112
H	-0.039169	-0.116589	2.139412
C	0.306231	1.881011	-0.567088
S	0.048131	0.390011	-1.468188
C	0.445131	2.685511	1.878912
H	0.368731	2.244111	2.891512
H	-0.322469	3.484011	1.804612
H	1.436231	3.179911	1.804712
C	-0.116769	-2.016589	-0.003488
H	0.252631	-2.017089	1.011412
H	-0.998369	-2.551689	0.317212
H	0.666031	-2.703789	-0.288788
H	0.469331	2.825011	-1.100588
$end

$rem
JOBTYPE		SP
EXCHANGE	HF
CORRELATION	pRIMP2
BASIS		cc-pvtz
METHOD		rimp2
AUX_BASIS	rimp2-cc-pvtz
SOLVENT_METHOD	PCM
PURECART	11111
SYMMETRY	false
MEM_TOTAL	110000
SCF_CONVERGENCE = 6
THRESH=10
GUI = 2
$end

$solvent
dielectric 4.90
$end
--------------------------------------------------------------

             Standard Nuclear Orientation (Angstroms)
    I     Atom           X                Y                Z
 ----------------------------------------------------------------
    1      C      -0.1167690000    -0.5664890000    -0.0034880000
    2      C       0.0268310000     0.2658110000     1.1095120000
    3      C       0.2637310000     1.6365110000     0.8171120000
    4      H      -0.0391690000    -0.1165890000     2.1394120000
    5      C       0.3062310000     1.8810110000    -0.5670880000
    6      S       0.0481310000     0.3900110000    -1.4681880000
    7      C       0.4451310000     2.6855110000     1.8789120000
    8      H       0.3687310000     2.2441110000     2.8915120000
    9      H      -0.3224690000     3.4840110000     1.8046120000
   10      H       1.4362310000     3.1799110000     1.8047120000
   11      C      -0.1167690000    -2.0165890000    -0.0034880000
   12      H       0.2526310000    -2.0170890000     1.0114120000
   13      H      -0.9983690000    -2.5516890000     0.3172120000
   14      H       0.6660310000    -2.7037890000    -0.2887880000
   15      H       0.4693310000     2.8250110000    -1.1005880000
 ----------------------------------------------------------------

   10    -629.4231101251      5.01e-07  Convergence criterion met
 Total energy in the final basis set =     -629.4231101251
        RIMP2         total energy =      -630.6011057161 a.u.

                    Orbital Energies (a.u.)
 --------------------------------------------------------------

 Alpha MOs
 -- Occupied --
-91.9762 -11.2784 -11.2568 -11.2473 -11.2325 -11.2275 -11.2172  -8.9761
 -6.6570  -6.6565  -6.6560  -1.1610  -1.0526  -0.9995  -0.9386  -0.8853
 -0.7423  -0.7232  -0.6474  -0.5908  -0.5772  -0.5680  -0.5582  -0.5414
 -0.5104  -0.4843  -0.4680  -0.4414  -0.3370  -0.3025

          Ground-State Mulliken Net Atomic Charges

     Atom                 Charge (a.u.)
  ----------------------------------------
      1 C                     0.054677
      2 C                    -0.264714
      3 C                     0.029627
      4 H                     0.175509
      5 C                    -0.253306
      6 S                    -0.005860
      7 C                    -0.273425
      8 H                     0.101233
      9 H                     0.107244
     10 H                     0.107220
     11 C                    -0.375988
     12 H                     0.126685
     13 H                     0.128896
     14 H                     0.148888
     15 H                     0.193314
  ----------------------------------------
  Sum of atomic charges =     0.000000

                    Cartesian Multipole Moments
 -----------------------------------------------------------------
    Charge (ESU x 10^10)
                -0.0000
    Dipole Moment (Debye)
         X       0.4607      Y      -0.1489      Z       2.1266
       Tot       2.1810
    Quadrupole Moments (Debye-Ang)
        XX     -53.5839     XY       0.8490     YY     -42.4235
        XZ      -0.2168     YZ      -0.9090     ZZ     -48.9077

 Total job time:  18.77s(wall), 766.96s(cpu)
        *  Thank you very much for using Q-Chem.  Have a nice day.  *
