 Q-Chem 5.4, Q-Chem, Inc., Pleasanton, CA (2021)
 Q-Chem 5.4.0 for Intel X86 EM64T Linux

User input:
--------------------------------------------------------------
$molecule
0 1
C	-0.170675	-0.553870	0.005249
C	0.044925	0.262730	1.118249
C	0.400425	1.607530	0.825849
H	-0.054175	-0.112470	2.148149
C	0.464025	1.847430	-0.558351
S	0.076925	0.384630	-1.459451
C	0.672525	2.636830	1.887649
H	0.557925	2.203730	2.900249
H	-0.022575	3.499130	1.813349
H	1.703025	3.042930	1.813449
C	-0.170675	-2.003970	0.005249
H	-0.864875	-2.004470	-0.822051
H	0.548125	-2.539070	-0.597651
H	-0.808775	-2.691170	0.541049
H	0.708825	2.773630	-1.091851
$end

$rem
JOBTYPE		SP
EXCHANGE	HF
CORRELATION	pRIMP2
BASIS		cc-pvtz
METHOD		rimp2
AUX_BASIS	rimp2-cc-pvtz
SOLVENT_METHOD	PCM
PURECART	11111
SYMMETRY	false
MEM_TOTAL	110000
SCF_CONVERGENCE = 6
THRESH=10
GUI = 2
$end

$solvent
dielectric 4.90
$end
--------------------------------------------------------------

             Standard Nuclear Orientation (Angstroms)
    I     Atom           X                Y                Z
 ----------------------------------------------------------------
    1      C      -0.1706750000    -0.5538700000     0.0052490000
    2      C       0.0449250000     0.2627300000     1.1182490000
    3      C       0.4004250000     1.6075300000     0.8258490000
    4      H      -0.0541750000    -0.1124700000     2.1481490000
    5      C       0.4640250000     1.8474300000    -0.5583510000
    6      S       0.0769250000     0.3846300000    -1.4594510000
    7      C       0.6725250000     2.6368300000     1.8876490000
    8      H       0.5579250000     2.2037300000     2.9002490000
    9      H      -0.0225750000     3.4991300000     1.8133490000
   10      H       1.7030250000     3.0429300000     1.8134490000
   11      C      -0.1706750000    -2.0039700000     0.0052490000
   12      H      -0.8648750000    -2.0044700000    -0.8220510000
   13      H       0.5481250000    -2.5390700000    -0.5976510000
   14      H      -0.8087750000    -2.6911700000     0.5410490000
   15      H       0.7088250000     2.7736300000    -1.0918510000
 ----------------------------------------------------------------

   10    -629.4181106255      5.56e-07  Convergence criterion met
 Total energy in the final basis set =     -629.4181106255
        RIMP2         total energy =      -630.5956095107 a.u.

                    Orbital Energies (a.u.)
 --------------------------------------------------------------

 Alpha MOs
 -- Occupied --
-91.9803 -11.2770 -11.2568 -11.2471 -11.2273 -11.2268 -11.2178  -8.9800
 -6.6610  -6.6605  -6.6599  -1.1607  -1.0535  -0.9955  -0.9447  -0.8830
 -0.7466  -0.7183  -0.6468  -0.5900  -0.5746  -0.5665  -0.5531  -0.5459
 -0.5092  -0.4877  -0.4643  -0.4501  -0.3384  -0.2977

          Ground-State Mulliken Net Atomic Charges

     Atom                 Charge (a.u.)
  ----------------------------------------
      1 C                     0.021722
      2 C                    -0.252602
      3 C                     0.032143
      4 H                     0.179522
      5 C                    -0.253222
      6 S                    -0.003876
      7 C                    -0.273221
      8 H                     0.101711
      9 H                     0.107010
     10 H                     0.106894
     11 C                    -0.369206
     12 H                     0.118431
     13 H                     0.131874
     14 H                     0.157604
     15 H                     0.195217
  ----------------------------------------
  Sum of atomic charges =     0.000000

                    Cartesian Multipole Moments
 -----------------------------------------------------------------
    Charge (ESU x 10^10)
                -0.0000
    Dipole Moment (Debye)
         X      -0.0481      Y      -0.1747      Z       0.9864
       Tot       1.0029
    Quadrupole Moments (Debye-Ang)
        XX     -53.3201     XY       3.2476     YY     -42.5646
        XZ      -0.2041     YZ       1.2037     ZZ     -48.7202

 Total job time:  16.06s(wall), 760.28s(cpu)
        *  Thank you very much for using Q-Chem.  Have a nice day.  *
