 Q-Chem 5.4, Q-Chem, Inc., Pleasanton, CA (2021)
 Q-Chem 5.4.0 for Intel X86 EM64T Linux

User input:
--------------------------------------------------------------
$molecule
0 1
C	-0.590839	-0.238938	-0.001602
C	0.139061	0.186062	1.111398
C	1.341361	0.885562	0.818998
H	-0.196339	-0.009138	2.141298
C	1.555961	1.010262	-0.565202
S	0.247861	0.249562	-1.466302
C	2.261561	1.420962	1.880798
H	1.874261	1.195762	2.893398
H	2.379761	2.522262	1.806498
H	3.277361	0.979462	1.806598
C	-0.590839	-1.689038	-0.001602
H	0.344461	-1.689538	0.538398
H	-1.060139	-2.224138	0.810698
H	-0.174539	-2.376238	-0.723302
H	2.383961	1.492062	-1.098702
$end

$rem
JOBTYPE		SP
EXCHANGE	HF
CORRELATION	pRIMP2
BASIS		cc-pvtz
METHOD		rimp2
AUX_BASIS	rimp2-cc-pvtz
SOLVENT_METHOD	PCM
PURECART	11111
SYMMETRY	false
MEM_TOTAL	110000
SCF_CONVERGENCE = 6
THRESH=10
GUI = 2
$end

$solvent
dielectric 4.90
$end
--------------------------------------------------------------

             Standard Nuclear Orientation (Angstroms)
    I     Atom           X                Y                Z
 ----------------------------------------------------------------
    1      C      -0.5908390000    -0.2389380000    -0.0016020000
    2      C       0.1390610000     0.1860620000     1.1113980000
    3      C       1.3413610000     0.8855620000     0.8189980000
    4      H      -0.1963390000    -0.0091380000     2.1412980000
    5      C       1.5559610000     1.0102620000    -0.5652020000
    6      S       0.2478610000     0.2495620000    -1.4663020000
    7      C       2.2615610000     1.4209620000     1.8807980000
    8      H       1.8742610000     1.1957620000     2.8933980000
    9      H       2.3797610000     2.5222620000     1.8064980000
   10      H       3.2773610000     0.9794620000     1.8065980000
   11      C      -0.5908390000    -1.6890380000    -0.0016020000
   12      H       0.3444610000    -1.6895380000     0.5383980000
   13      H      -1.0601390000    -2.2241380000     0.8106980000
   14      H      -0.1745390000    -2.3762380000    -0.7233020000
   15      H       2.3839610000     1.4920620000    -1.0987020000
 ----------------------------------------------------------------

   11    -629.3401193106      7.49e-07  Convergence criterion met
 Total energy in the final basis set =     -629.3401193106
        RIMP2         total energy =      -630.5344265458 a.u.

                    Orbital Energies (a.u.)
 --------------------------------------------------------------

 Alpha MOs
 -- Occupied --
-91.9797 -11.2797 -11.2518 -11.2508 -11.2456 -11.2296 -11.2096  -8.9799
 -6.6607  -6.6599  -6.6597  -1.1775  -1.0572  -1.0012  -0.9333  -0.8827
 -0.7499  -0.7315  -0.6440  -0.5916  -0.5807  -0.5720  -0.5533  -0.5458
 -0.5148  -0.4820  -0.4567  -0.4427  -0.3332  -0.2876

          Ground-State Mulliken Net Atomic Charges

     Atom                 Charge (a.u.)
  ----------------------------------------
      1 C                    -0.109231
      2 C                    -0.113524
      3 C                    -0.029354
      4 H                     0.184426
      5 C                    -0.203939
      6 S                     0.031151
      7 C                    -0.266821
      8 H                     0.102706
      9 H                     0.107417
     10 H                     0.103680
     11 C                    -0.375914
     12 H                     0.115913
     13 H                     0.107975
     14 H                     0.146554
     15 H                     0.198963
  ----------------------------------------
  Sum of atomic charges =     0.000000

                    Cartesian Multipole Moments
 -----------------------------------------------------------------
    Charge (ESU x 10^10)
                -0.0000
    Dipole Moment (Debye)
         X       2.7505      Y      -0.0278      Z       1.8466
       Tot       3.3130
    Quadrupole Moments (Debye-Ang)
        XX     -48.9064     XY       3.5691     YY     -50.0789
        XZ      -0.5442     YZ      -0.4192     ZZ     -47.4839

 Total job time:  17.48s(wall), 831.72s(cpu)
        *  Thank you very much for using Q-Chem.  Have a nice day.  *
