 Q-Chem 5.4, Q-Chem, Inc., Pleasanton, CA (2021)
 Q-Chem 5.4.0 for Intel X86 EM64T Linux

User input:
--------------------------------------------------------------
$molecule
0 1
C	-0.002320	-0.576386	0.002446
C	-0.005420	0.268214	1.115446
C	-0.010120	1.659214	0.823046
H	-0.004020	-0.119886	2.145346
C	-0.010720	1.907314	-0.561154
S	-0.006020	0.394214	-1.462254
C	-0.013720	2.723814	1.884846
H	-0.012220	2.275814	2.897446
H	-0.908220	3.376814	1.810546
H	0.876580	3.382714	1.810646
C	-0.002320	-2.026486	0.002446
H	1.012580	-2.026986	-0.366954
H	0.318380	-2.561586	0.884046
H	-0.287620	-2.713686	-0.780354
H	-0.014020	2.865414	-1.094654
$end

$rem
JOBTYPE		SP
EXCHANGE	HF
CORRELATION	pRIMP2
BASIS		cc-pvtz
METHOD		rimp2
AUX_BASIS	rimp2-cc-pvtz
SOLVENT_METHOD	PCM
PURECART	11111
SYMMETRY	false
MEM_TOTAL	110000
SCF_CONVERGENCE = 6
THRESH=10
GUI = 2
$end

$solvent
dielectric 4.90
$end
--------------------------------------------------------------

             Standard Nuclear Orientation (Angstroms)
    I     Atom           X                Y                Z
 ----------------------------------------------------------------
    1      C      -0.0023200000    -0.5763860000     0.0024460000
    2      C      -0.0054200000     0.2682140000     1.1154460000
    3      C      -0.0101200000     1.6592140000     0.8230460000
    4      H      -0.0040200000    -0.1198860000     2.1453460000
    5      C      -0.0107200000     1.9073140000    -0.5611540000
    6      S      -0.0060200000     0.3942140000    -1.4622540000
    7      C      -0.0137200000     2.7238140000     1.8848460000
    8      H      -0.0122200000     2.2758140000     2.8974460000
    9      H      -0.9082200000     3.3768140000     1.8105460000
   10      H       0.8765800000     3.3827140000     1.8106460000
   11      C      -0.0023200000    -2.0264860000     0.0024460000
   12      H       1.0125800000    -2.0269860000    -0.3669540000
   13      H       0.3183800000    -2.5615860000     0.8840460000
   14      H      -0.2876200000    -2.7136860000    -0.7803540000
   15      H      -0.0140200000     2.8654140000    -1.0946540000
 ----------------------------------------------------------------

   10    -629.4258776663      6.64e-07  Convergence criterion met
 Total energy in the final basis set =     -629.4258776663
        RIMP2         total energy =      -630.6008680955 a.u.

                    Orbital Energies (a.u.)
 --------------------------------------------------------------

 Alpha MOs
 -- Occupied --
-91.9783 -11.2848 -11.2507 -11.2470 -11.2266 -11.2240 -11.2224  -8.9781
 -6.6592  -6.6586  -6.6580  -1.1601  -1.0545  -0.9967  -0.9426  -0.8835
 -0.7447  -0.7180  -0.6468  -0.5895  -0.5754  -0.5685  -0.5505  -0.5464
 -0.5075  -0.4943  -0.4659  -0.4553  -0.3387  -0.2912

          Ground-State Mulliken Net Atomic Charges

     Atom                 Charge (a.u.)
  ----------------------------------------
      1 C                     0.052526
      2 C                    -0.291766
      3 C                     0.042975
      4 H                     0.179354
      5 C                    -0.272395
      6 S                    -0.006397
      7 C                    -0.273933
      8 H                     0.101468
      9 H                     0.107354
     10 H                     0.107323
     11 C                    -0.376359
     12 H                     0.136281
     13 H                     0.142821
     14 H                     0.156805
     15 H                     0.193942
  ----------------------------------------
  Sum of atomic charges =     0.000000

                    Cartesian Multipole Moments
 -----------------------------------------------------------------
    Charge (ESU x 10^10)
                -0.0000
    Dipole Moment (Debye)
         X       0.6798      Y      -0.6424      Z       1.1916
       Tot       1.5149
    Quadrupole Moments (Debye-Ang)
        XX     -54.3566     XY      -1.4521     YY     -41.6437
        XZ       0.2170     YZ       1.0215     ZZ     -48.6215

 Total job time:  16.56s(wall), 784.78s(cpu)
        *  Thank you very much for using Q-Chem.  Have a nice day.  *
