 Q-Chem 5.4, Q-Chem, Inc., Pleasanton, CA (2021)
 Q-Chem 5.4.0 for Intel X86 EM64T Linux

User input:
--------------------------------------------------------------
$molecule
0 1
C	-0.438062	-0.419059	-0.002247
C	0.102438	0.229941	1.110753
C	0.992938	1.298441	0.818353
H	-0.145962	-0.068259	2.140653
C	1.152038	1.489041	-0.565847
S	0.183038	0.326841	-1.466947
C	1.674538	2.116341	1.880153
H	1.387738	1.772241	2.892753
H	1.409038	3.191641	1.805853
H	2.780138	2.048841	1.805953
C	-0.438062	-1.869159	-0.002247
H	0.389238	-1.869659	0.691953
H	-1.041262	-2.404259	0.716253
H	0.097238	-2.556359	-0.640747
H	1.765238	2.225041	-1.099347
$end

$rem
JOBTYPE		SP
EXCHANGE	HF
CORRELATION	pRIMP2
BASIS		cc-pvtz
METHOD		rimp2
AUX_BASIS	rimp2-cc-pvtz
SOLVENT_METHOD	PCM
PURECART	11111
SYMMETRY	false
MEM_TOTAL	110000
SCF_CONVERGENCE = 6
THRESH=10
GUI = 2
$end

$solvent
dielectric 4.90
$end
--------------------------------------------------------------

             Standard Nuclear Orientation (Angstroms)
    I     Atom           X                Y                Z
 ----------------------------------------------------------------
    1      C      -0.4380620000    -0.4190590000    -0.0022470000
    2      C       0.1024380000     0.2299410000     1.1107530000
    3      C       0.9929380000     1.2984410000     0.8183530000
    4      H      -0.1459620000    -0.0682590000     2.1406530000
    5      C       1.1520380000     1.4890410000    -0.5658470000
    6      S       0.1830380000     0.3268410000    -1.4669470000
    7      C       1.6745380000     2.1163410000     1.8801530000
    8      H       1.3877380000     1.7722410000     2.8927530000
    9      H       1.4090380000     3.1916410000     1.8058530000
   10      H       2.7801380000     2.0488410000     1.8059530000
   11      C      -0.4380620000    -1.8691590000    -0.0022470000
   12      H       0.3892380000    -1.8696590000     0.6919530000
   13      H      -1.0412620000    -2.4042590000     0.7162530000
   14      H       0.0972380000    -2.5563590000    -0.6407470000
   15      H       1.7652380000     2.2250410000    -1.0993470000
 ----------------------------------------------------------------

   10    -629.3868916231      6.18e-07  Convergence criterion met
 Total energy in the final basis set =     -629.3868916231
        RIMP2         total energy =      -630.5722510859 a.u.

                    Orbital Energies (a.u.)
 --------------------------------------------------------------

 Alpha MOs
 -- Occupied --
-91.9789 -11.2714 -11.2610 -11.2487 -11.2324 -11.2280 -11.2137  -8.9787
 -6.6596  -6.6590  -6.6586  -1.1664  -1.0541  -0.9988  -0.9358  -0.8836
 -0.7443  -0.7245  -0.6443  -0.5886  -0.5764  -0.5727  -0.5548  -0.5433
 -0.5127  -0.4780  -0.4618  -0.4524  -0.3347  -0.2911

          Ground-State Mulliken Net Atomic Charges

     Atom                 Charge (a.u.)
  ----------------------------------------
      1 C                    -0.013031
      2 C                    -0.221725
      3 C                     0.019046
      4 H                     0.176454
      5 C                    -0.248483
      6 S                     0.011575
      7 C                    -0.269276
      8 H                     0.101668
      9 H                     0.107426
     10 H                     0.105422
     11 C                    -0.388198
     12 H                     0.144367
     13 H                     0.123279
     14 H                     0.157350
     15 H                     0.194124
  ----------------------------------------
  Sum of atomic charges =     0.000000

                    Cartesian Multipole Moments
 -----------------------------------------------------------------
    Charge (ESU x 10^10)
                -0.0000
    Dipole Moment (Debye)
         X       1.5987      Y      -0.2227      Z       1.9287
       Tot       2.5151
    Quadrupole Moments (Debye-Ang)
        XX     -51.3098     XY       3.3283     YY     -46.4107
        XZ      -0.2763     YZ      -0.5713     ZZ     -48.2686

 Total job time:  16.56s(wall), 762.18s(cpu)
        *  Thank you very much for using Q-Chem.  Have a nice day.  *
