 Q-Chem 5.4, Q-Chem, Inc., Pleasanton, CA (2021)
 Q-Chem 5.4.0 for Intel X86 EM64T Linux

User input:
--------------------------------------------------------------
$molecule
0 1
C	-0.429956	-0.419059	0.002537
C	0.110544	0.229941	1.115537
C	1.001044	1.298441	0.823137
H	-0.137856	-0.068259	2.145437
C	1.160144	1.489041	-0.561063
S	0.191144	0.326841	-1.462163
C	1.682644	2.116341	1.884937
H	1.395844	1.772241	2.897537
H	1.417144	3.191641	1.810637
H	2.788244	2.048841	1.810737
C	-0.429956	-1.869159	0.002537
H	-1.493556	-1.869659	-0.184963
H	-0.266856	-2.404259	-0.921363
H	-0.574356	-2.556359	0.823137
H	1.773344	2.225041	-1.094563
$end

$rem
JOBTYPE		SP
EXCHANGE	HF
CORRELATION	pRIMP2
BASIS		cc-pvtz
METHOD		rimp2
AUX_BASIS	rimp2-cc-pvtz
SOLVENT_METHOD	PCM
PURECART	11111
SYMMETRY	false
MEM_TOTAL	110000
SCF_CONVERGENCE = 6
THRESH=10
GUI = 2
$end

$solvent
dielectric 4.90
$end
--------------------------------------------------------------

             Standard Nuclear Orientation (Angstroms)
    I     Atom           X                Y                Z
 ----------------------------------------------------------------
    1      C      -0.4299560000    -0.4190590000     0.0025370000
    2      C       0.1105440000     0.2299410000     1.1155370000
    3      C       1.0010440000     1.2984410000     0.8231370000
    4      H      -0.1378560000    -0.0682590000     2.1454370000
    5      C       1.1601440000     1.4890410000    -0.5610630000
    6      S       0.1911440000     0.3268410000    -1.4621630000
    7      C       1.6826440000     2.1163410000     1.8849370000
    8      H       1.3958440000     1.7722410000     2.8975370000
    9      H       1.4171440000     3.1916410000     1.8106370000
   10      H       2.7882440000     2.0488410000     1.8107370000
   11      C      -0.4299560000    -1.8691590000     0.0025370000
   12      H      -1.4935560000    -1.8696590000    -0.1849630000
   13      H      -0.2668560000    -2.4042590000    -0.9213630000
   14      H      -0.5743560000    -2.5563590000     0.8231370000
   15      H       1.7733440000     2.2250410000    -1.0945630000
 ----------------------------------------------------------------

   10    -629.3835433828      6.12e-07  Convergence criterion met
 Total energy in the final basis set =     -629.3835433828
        RIMP2         total energy =      -630.5684394990 a.u.

                    Orbital Energies (a.u.)
 --------------------------------------------------------------

 Alpha MOs
 -- Occupied --
-91.9763 -11.2670 -11.2621 -11.2475 -11.2336 -11.2272 -11.2125  -8.9765
 -6.6575  -6.6568  -6.6563  -1.1633  -1.0526  -0.9954  -0.9415  -0.8829
 -0.7463  -0.7217  -0.6438  -0.5854  -0.5738  -0.5674  -0.5530  -0.5435
 -0.5131  -0.4928  -0.4570  -0.4441  -0.3367  -0.2869

          Ground-State Mulliken Net Atomic Charges

     Atom                 Charge (a.u.)
  ----------------------------------------
      1 C                    -0.020769
      2 C                    -0.232018
      3 C                     0.035248
      4 H                     0.179431
      5 C                    -0.246020
      6 S                     0.004584
      7 C                    -0.270096
      8 H                     0.101491
      9 H                     0.107096
     10 H                     0.105618
     11 C                    -0.383093
     12 H                     0.127792
     13 H                     0.141505
     14 H                     0.154314
     15 H                     0.194916
  ----------------------------------------
  Sum of atomic charges =     0.000000

                    Cartesian Multipole Moments
 -----------------------------------------------------------------
    Charge (ESU x 10^10)
                -0.0000
    Dipole Moment (Debye)
         X       0.4764      Y      -0.1990      Z       1.4630
       Tot       1.5515
    Quadrupole Moments (Debye-Ang)
        XX     -50.6008     XY       5.7617     YY     -46.2046
        XZ      -0.0578     YZ       0.2694     ZZ     -48.1554

 Total job time:  15.76s(wall), 748.05s(cpu)
        *  Thank you very much for using Q-Chem.  Have a nice day.  *
