 Q-Chem 5.4, Q-Chem, Inc., Pleasanton, CA (2021)
 Q-Chem 5.4.0 for Intel X86 EM64T Linux

User input:
--------------------------------------------------------------
$molecule
0 1
C	-0.055487	-0.574004	-0.003463
C	0.015013	0.267696	1.109537
C	0.131613	1.653696	0.817137
H	-0.017387	-0.119104	2.139437
C	0.152613	1.900996	-0.567063
S	0.025413	0.393196	-1.468163
C	0.220813	2.714596	1.878937
H	0.183213	2.268196	2.891537
H	-0.613487	3.443096	1.804637
H	1.165113	3.293496	1.804737
C	-0.055487	-2.024104	-0.003463
H	-0.242987	-2.024604	1.060137
H	-0.979387	-2.559204	-0.166563
H	0.765113	-2.711304	0.140937
H	0.232813	2.855696	-1.100563
$end

$rem
JOBTYPE		SP
EXCHANGE	HF
CORRELATION	pRIMP2
BASIS		cc-pvtz
METHOD		rimp2
AUX_BASIS	rimp2-cc-pvtz
SOLVENT_METHOD	PCM
PURECART	11111
SYMMETRY	false
MEM_TOTAL	110000
SCF_CONVERGENCE = 6
THRESH=10
GUI = 2
$end

$solvent
dielectric 4.90
$end
--------------------------------------------------------------

             Standard Nuclear Orientation (Angstroms)
    I     Atom           X                Y                Z
 ----------------------------------------------------------------
    1      C      -0.0554870000    -0.5740040000    -0.0034630000
    2      C       0.0150130000     0.2676960000     1.1095370000
    3      C       0.1316130000     1.6536960000     0.8171370000
    4      H      -0.0173870000    -0.1191040000     2.1394370000
    5      C       0.1526130000     1.9009960000    -0.5670630000
    6      S       0.0254130000     0.3931960000    -1.4681630000
    7      C       0.2208130000     2.7145960000     1.8789370000
    8      H       0.1832130000     2.2681960000     2.8915370000
    9      H      -0.6134870000     3.4430960000     1.8046370000
   10      H       1.1651130000     3.2934960000     1.8047370000
   11      C      -0.0554870000    -2.0241040000    -0.0034630000
   12      H      -0.2429870000    -2.0246040000     1.0601370000
   13      H      -0.9793870000    -2.5592040000    -0.1665630000
   14      H       0.7651130000    -2.7113040000     0.1409370000
   15      H       0.2328130000     2.8556960000    -1.1005630000
 ----------------------------------------------------------------

   10    -629.4258533307      4.87e-07  Convergence criterion met
 Total energy in the final basis set =     -629.4258533307
        RIMP2         total energy =      -630.6034762645 a.u.

                    Orbital Energies (a.u.)
 --------------------------------------------------------------

 Alpha MOs
 -- Occupied --
-91.9755 -11.2776 -11.2580 -11.2472 -11.2339 -11.2276 -11.2173  -8.9756
 -6.6565  -6.6560  -6.6554  -1.1609  -1.0524  -0.9996  -0.9390  -0.8855
 -0.7424  -0.7237  -0.6480  -0.5905  -0.5778  -0.5663  -0.5592  -0.5411
 -0.5102  -0.4860  -0.4677  -0.4389  -0.3378  -0.3049

          Ground-State Mulliken Net Atomic Charges

     Atom                 Charge (a.u.)
  ----------------------------------------
      1 C                     0.058011
      2 C                    -0.266117
      3 C                     0.030448
      4 H                     0.176721
      5 C                    -0.250246
      6 S                    -0.007842
      7 C                    -0.273554
      8 H                     0.101286
      9 H                     0.107171
     10 H                     0.107347
     11 C                    -0.367902
     12 H                     0.119477
     13 H                     0.131849
     14 H                     0.139401
     15 H                     0.193950
  ----------------------------------------
  Sum of atomic charges =     0.000000

                    Cartesian Multipole Moments
 -----------------------------------------------------------------
    Charge (ESU x 10^10)
                -0.0000
    Dipole Moment (Debye)
         X       0.0005      Y      -0.0621      Z       2.1530
       Tot       2.1539
    Quadrupole Moments (Debye-Ang)
        XX     -53.6366     XY       0.9277     YY     -42.1765
        XZ       0.1083     YZ      -1.0256     ZZ     -48.9783

 Total job time:  15.38s(wall), 737.55s(cpu)
        *  Thank you very much for using Q-Chem.  Have a nice day.  *
