 Q-Chem 5.4, Q-Chem, Inc., Pleasanton, CA (2021)
 Q-Chem 5.4.0 for Intel X86 EM64T Linux

User input:
--------------------------------------------------------------
$molecule
0 1
C	-0.052075	-0.574004	0.000015
C	0.018425	0.267696	1.113015
C	0.135025	1.653696	0.820615
H	-0.013975	-0.119104	2.142915
C	0.156025	1.900996	-0.563585
S	0.028825	0.393196	-1.464685
C	0.224225	2.714596	1.882415
H	0.186625	2.268196	2.895015
H	-0.610075	3.443096	1.808115
H	1.168525	3.293496	1.808215
C	-0.052075	-2.024104	0.000015
H	-1.066975	-2.024604	0.369415
H	-0.372775	-2.559204	-0.881585
H	0.233225	-2.711304	0.782815
H	0.236225	2.855696	-1.097085
$end

$rem
JOBTYPE		SP
EXCHANGE	HF
CORRELATION	pRIMP2
BASIS		cc-pvtz
METHOD		rimp2
AUX_BASIS	rimp2-cc-pvtz
SOLVENT_METHOD	PCM
PURECART	11111
SYMMETRY	false
MEM_TOTAL	110000
SCF_CONVERGENCE = 6
THRESH=10
GUI = 2
$end

$solvent
dielectric 4.90
$end
--------------------------------------------------------------

             Standard Nuclear Orientation (Angstroms)
    I     Atom           X                Y                Z
 ----------------------------------------------------------------
    1      C      -0.0520750000    -0.5740040000     0.0000150000
    2      C       0.0184250000     0.2676960000     1.1130150000
    3      C       0.1350250000     1.6536960000     0.8206150000
    4      H      -0.0139750000    -0.1191040000     2.1429150000
    5      C       0.1560250000     1.9009960000    -0.5635850000
    6      S       0.0288250000     0.3931960000    -1.4646850000
    7      C       0.2242250000     2.7145960000     1.8824150000
    8      H       0.1866250000     2.2681960000     2.8950150000
    9      H      -0.6100750000     3.4430960000     1.8081150000
   10      H       1.1685250000     3.2934960000     1.8082150000
   11      C      -0.0520750000    -2.0241040000     0.0000150000
   12      H      -1.0669750000    -2.0246040000     0.3694150000
   13      H      -0.3727750000    -2.5592040000    -0.8815850000
   14      H       0.2332250000    -2.7113040000     0.7828150000
   15      H       0.2362250000     2.8556960000    -1.0970850000
 ----------------------------------------------------------------

   10    -629.4241217460      6.50e-07  Convergence criterion met
 Total energy in the final basis set =     -629.4241217460
        RIMP2         total energy =      -630.6000189091 a.u.

                    Orbital Energies (a.u.)
 --------------------------------------------------------------

 Alpha MOs
 -- Occupied --
-91.9791 -11.2845 -11.2498 -11.2473 -11.2266 -11.2235 -11.2216  -8.9787
 -6.6597  -6.6592  -6.6586  -1.1597  -1.0540  -0.9977  -0.9408  -0.8841
 -0.7430  -0.7189  -0.6485  -0.5871  -0.5729  -0.5669  -0.5571  -0.5443
 -0.5079  -0.4946  -0.4648  -0.4549  -0.3375  -0.2905

          Ground-State Mulliken Net Atomic Charges

     Atom                 Charge (a.u.)
  ----------------------------------------
      1 C                     0.063261
      2 C                    -0.305125
      3 C                     0.048535
      4 H                     0.174019
      5 C                    -0.276918
      6 S                     0.003573
      7 C                    -0.274887
      8 H                     0.101435
      9 H                     0.107268
     10 H                     0.107282
     11 C                    -0.382202
     12 H                     0.141217
     13 H                     0.139530
     14 H                     0.160077
     15 H                     0.192934
  ----------------------------------------
  Sum of atomic charges =     0.000000

                    Cartesian Multipole Moments
 -----------------------------------------------------------------
    Charge (ESU x 10^10)
                -0.0000
    Dipole Moment (Debye)
         X      -0.6045      Y      -0.6615      Z       1.6477
       Tot       1.8756
    Quadrupole Moments (Debye-Ang)
        XX     -54.1959     XY       2.2133     YY     -41.8684
        XZ       0.2010     YZ      -0.1987     ZZ     -48.5738

 Total job time:  19.43s(wall), 759.55s(cpu)
        *  Thank you very much for using Q-Chem.  Have a nice day.  *
