 Q-Chem 5.4, Q-Chem, Inc., Pleasanton, CA (2021)
 Q-Chem 5.4.0 for Intel X86 EM64T Linux

User input:
--------------------------------------------------------------
$molecule
0 1
C	-0.231219	-0.536244	-0.003488
C	0.054781	0.258456	1.109512
C	0.526081	1.567156	0.817112
H	-0.076719	-0.106644	2.139412
C	0.610381	1.800556	-0.567088
S	0.097281	0.377056	-1.468188
C	0.886881	2.568756	1.878912
H	0.734981	2.147356	2.891512
H	0.269581	3.488456	1.804612
H	1.948781	2.883556	1.804712
C	-0.231219	-1.986344	-0.003488
H	0.138181	-1.986844	1.011412
H	-1.112819	-2.521444	0.317212
H	0.551581	-2.673544	-0.288788
H	0.934881	2.701956	-1.100588
$end

$rem
JOBTYPE		SP
EXCHANGE	HF
CORRELATION	pRIMP2
BASIS		cc-pvtz
METHOD		rimp2
AUX_BASIS	rimp2-cc-pvtz
SOLVENT_METHOD	PCM
PURECART	11111
SYMMETRY	false
MEM_TOTAL	110000
SCF_CONVERGENCE = 6
THRESH=10
GUI = 2
$end

$solvent
dielectric 4.90
$end
--------------------------------------------------------------

             Standard Nuclear Orientation (Angstroms)
    I     Atom           X                Y                Z
 ----------------------------------------------------------------
    1      C      -0.2312190000    -0.5362440000    -0.0034880000
    2      C       0.0547810000     0.2584560000     1.1095120000
    3      C       0.5260810000     1.5671560000     0.8171120000
    4      H      -0.0767190000    -0.1066440000     2.1394120000
    5      C       0.6103810000     1.8005560000    -0.5670880000
    6      S       0.0972810000     0.3770560000    -1.4681880000
    7      C       0.8868810000     2.5687560000     1.8789120000
    8      H       0.7349810000     2.1473560000     2.8915120000
    9      H       0.2695810000     3.4884560000     1.8046120000
   10      H       1.9487810000     2.8835560000     1.8047120000
   11      C      -0.2312190000    -1.9863440000    -0.0034880000
   12      H       0.1381810000    -1.9868440000     1.0114120000
   13      H      -1.1128190000    -2.5214440000     0.3172120000
   14      H       0.5515810000    -2.6735440000    -0.2887880000
   15      H       0.9348810000     2.7019560000    -1.1005880000
 ----------------------------------------------------------------

   10    -629.4159014267      4.97e-07  Convergence criterion met
 Total energy in the final basis set =     -629.4159014267
        RIMP2         total energy =      -630.5954539905 a.u.

                    Orbital Energies (a.u.)
 --------------------------------------------------------------

 Alpha MOs
 -- Occupied --
-91.9763 -11.2760 -11.2584 -11.2475 -11.2336 -11.2277 -11.2157  -8.9762
 -6.6572  -6.6566  -6.6561  -1.1620  -1.0526  -0.9994  -0.9379  -0.8851
 -0.7426  -0.7241  -0.6467  -0.5900  -0.5776  -0.5692  -0.5572  -0.5414
 -0.5116  -0.4803  -0.4683  -0.4415  -0.3363  -0.3022

          Ground-State Mulliken Net Atomic Charges

     Atom                 Charge (a.u.)
  ----------------------------------------
      1 C                     0.037608
      2 C                    -0.261157
      3 C                     0.031686
      4 H                     0.175031
      5 C                    -0.250562
      6 S                    -0.003147
      7 C                    -0.271961
      8 H                     0.101320
      9 H                     0.107168
     10 H                     0.106955
     11 C                    -0.373902
     12 H                     0.128831
     13 H                     0.127403
     14 H                     0.151583
     15 H                     0.193143
  ----------------------------------------
  Sum of atomic charges =     0.000000

                    Cartesian Multipole Moments
 -----------------------------------------------------------------
    Charge (ESU x 10^10)
                -0.0000
    Dipole Moment (Debye)
         X       0.7386      Y      -0.0896      Z       2.1401
       Tot       2.2657
    Quadrupole Moments (Debye-Ang)
        XX     -52.9471     XY       2.1831     YY     -43.3633
        XZ      -0.2368     YZ      -0.9248     ZZ     -48.8235

 Total job time:  19.56s(wall), 760.11s(cpu)
        *  Thank you very much for using Q-Chem.  Have a nice day.  *
