 Q-Chem 5.4, Q-Chem, Inc., Pleasanton, CA (2021)
 Q-Chem 5.4.0 for Intel X86 EM64T Linux

User input:
--------------------------------------------------------------
$molecule
0 1
C	-0.589632	-0.238938	-0.002787
C	0.140268	0.186062	1.110213
C	1.342568	0.885562	0.817813
H	-0.195132	-0.009138	2.140113
C	1.557168	1.010262	-0.566387
S	0.249068	0.249562	-1.467487
C	2.262768	1.420962	1.879613
H	1.875468	1.195762	2.892213
H	2.380968	2.522262	1.805313
H	3.278568	0.979462	1.805413
C	-0.589632	-1.689038	-0.002787
H	0.104568	-1.689538	0.824513
H	-1.308432	-2.224138	0.600113
H	0.048468	-2.376238	-0.538587
H	2.385168	1.492062	-1.099887
$end

$rem
JOBTYPE		SP
EXCHANGE	HF
CORRELATION	pRIMP2
BASIS		cc-pvtz
METHOD		rimp2
AUX_BASIS	rimp2-cc-pvtz
SOLVENT_METHOD	PCM
PURECART	11111
SYMMETRY	false
MEM_TOTAL	110000
SCF_CONVERGENCE = 6
THRESH=10
GUI = 2
$end

$solvent
dielectric 4.90
$end
--------------------------------------------------------------

             Standard Nuclear Orientation (Angstroms)
    I     Atom           X                Y                Z
 ----------------------------------------------------------------
    1      C      -0.5896320000    -0.2389380000    -0.0027870000
    2      C       0.1402680000     0.1860620000     1.1102130000
    3      C       1.3425680000     0.8855620000     0.8178130000
    4      H      -0.1951320000    -0.0091380000     2.1401130000
    5      C       1.5571680000     1.0102620000    -0.5663870000
    6      S       0.2490680000     0.2495620000    -1.4674870000
    7      C       2.2627680000     1.4209620000     1.8796130000
    8      H       1.8754680000     1.1957620000     2.8922130000
    9      H       2.3809680000     2.5222620000     1.8053130000
   10      H       3.2785680000     0.9794620000     1.8054130000
   11      C      -0.5896320000    -1.6890380000    -0.0027870000
   12      H       0.1045680000    -1.6895380000     0.8245130000
   13      H      -1.3084320000    -2.2241380000     0.6001130000
   14      H       0.0484680000    -2.3762380000    -0.5385870000
   15      H       2.3851680000     1.4920620000    -1.0998870000
 ----------------------------------------------------------------

   11    -629.3347736393      7.47e-07  Convergence criterion met
 Total energy in the final basis set =     -629.3347736393
        RIMP2         total energy =      -630.5292740243 a.u.

                    Orbital Energies (a.u.)
 --------------------------------------------------------------

 Alpha MOs
 -- Occupied --
-91.9784 -11.2811 -11.2505 -11.2492 -11.2461 -11.2295 -11.2057  -8.9786
 -6.6594  -6.6586  -6.6584  -1.1767  -1.0564  -1.0022  -0.9322  -0.8827
 -0.7489  -0.7338  -0.6432  -0.5908  -0.5809  -0.5727  -0.5528  -0.5448
 -0.5179  -0.4761  -0.4498  -0.4448  -0.3292  -0.2914

          Ground-State Mulliken Net Atomic Charges

     Atom                 Charge (a.u.)
  ----------------------------------------
      1 C                    -0.119774
      2 C                    -0.100460
      3 C                    -0.035610
      4 H                     0.185305
      5 C                    -0.193247
      6 S                     0.026041
      7 C                    -0.267112
      8 H                     0.102181
      9 H                     0.107159
     10 H                     0.103522
     11 C                    -0.377673
     12 H                     0.120884
     13 H                     0.104148
     14 H                     0.145634
     15 H                     0.199000
  ----------------------------------------
  Sum of atomic charges =     0.000000

                    Cartesian Multipole Moments
 -----------------------------------------------------------------
    Charge (ESU x 10^10)
                -0.0000
    Dipole Moment (Debye)
         X       2.7783      Y       0.0832      Z       2.0998
       Tot       3.4836
    Quadrupole Moments (Debye-Ang)
        XX     -48.6411     XY       3.4201     YY     -50.2765
        XZ      -0.7672     YZ      -0.6381     ZZ     -47.5946

 Total job time:  17.96s(wall), 832.96s(cpu)
        *  Thank you very much for using Q-Chem.  Have a nice day.  *
