 Q-Chem 5.4, Q-Chem, Inc., Pleasanton, CA (2021)
 Q-Chem 5.4.0 for Intel X86 EM64T Linux

User input:
--------------------------------------------------------------
$molecule
0 1
C	-0.059626	-0.574004	0.005194
C	0.010874	0.267696	1.118194
C	0.127474	1.653696	0.825794
H	-0.021526	-0.119104	2.148094
C	0.148474	1.900996	-0.558406
S	0.021274	0.393196	-1.459506
C	0.216674	2.714596	1.887594
H	0.179074	2.268196	2.900194
H	-0.617626	3.443096	1.813294
H	1.160974	3.293496	1.813394
C	-0.059626	-2.024104	0.005194
H	0.480374	-2.024604	-0.930106
H	0.752674	-2.559204	0.474494
H	-0.781326	-2.711304	-0.411106
H	0.228674	2.855696	-1.091906
$end

$rem
JOBTYPE		SP
EXCHANGE	HF
CORRELATION	pRIMP2
BASIS		cc-pvtz
METHOD		rimp2
AUX_BASIS	rimp2-cc-pvtz
SOLVENT_METHOD	PCM
PURECART	11111
SYMMETRY	false
MEM_TOTAL	110000
SCF_CONVERGENCE = 6
THRESH=10
GUI = 2
$end

$solvent
dielectric 4.90
$end
--------------------------------------------------------------

             Standard Nuclear Orientation (Angstroms)
    I     Atom           X                Y                Z
 ----------------------------------------------------------------
    1      C      -0.0596260000    -0.5740040000     0.0051940000
    2      C       0.0108740000     0.2676960000     1.1181940000
    3      C       0.1274740000     1.6536960000     0.8257940000
    4      H      -0.0215260000    -0.1191040000     2.1480940000
    5      C       0.1484740000     1.9009960000    -0.5584060000
    6      S       0.0212740000     0.3931960000    -1.4595060000
    7      C       0.2166740000     2.7145960000     1.8875940000
    8      H       0.1790740000     2.2681960000     2.9001940000
    9      H      -0.6176260000     3.4430960000     1.8132940000
   10      H       1.1609740000     3.2934960000     1.8133940000
   11      C      -0.0596260000    -2.0241040000     0.0051940000
   12      H       0.4803740000    -2.0246040000    -0.9301060000
   13      H       0.7526740000    -2.5592040000     0.4744940000
   14      H      -0.7813260000    -2.7113040000    -0.4111060000
   15      H       0.2286740000     2.8556960000    -1.0919060000
 ----------------------------------------------------------------

   10    -629.4228721934      5.71e-07  Convergence criterion met
 Total energy in the final basis set =     -629.4228721934
        RIMP2         total energy =      -630.5997037790 a.u.

                    Orbital Energies (a.u.)
 --------------------------------------------------------------

 Alpha MOs
 -- Occupied --
-91.9796 -11.2778 -11.2566 -11.2471 -11.2281 -11.2269 -11.2180  -8.9795
 -6.6604  -6.6599  -6.6593  -1.1606  -1.0537  -0.9955  -0.9449  -0.8829
 -0.7470  -0.7182  -0.6469  -0.5908  -0.5757  -0.5664  -0.5522  -0.5464
 -0.5082  -0.4888  -0.4649  -0.4482  -0.3385  -0.3006

          Ground-State Mulliken Net Atomic Charges

     Atom                 Charge (a.u.)
  ----------------------------------------
      1 C                     0.050475
      2 C                    -0.270103
      3 C                     0.040549
      4 H                     0.179958
      5 C                    -0.260423
      6 S                    -0.002612
      7 C                    -0.272963
      8 H                     0.101831
      9 H                     0.107163
     10 H                     0.106984
     11 C                    -0.370713
     12 H                     0.116943
     13 H                     0.135648
     14 H                     0.142120
     15 H                     0.195142
  ----------------------------------------
  Sum of atomic charges =     0.000000

                    Cartesian Multipole Moments
 -----------------------------------------------------------------
    Charge (ESU x 10^10)
                -0.0000
    Dipole Moment (Debye)
         X       0.4651      Y      -0.1406      Z       0.9281
       Tot       1.0476
    Quadrupole Moments (Debye-Ang)
        XX     -53.8610     XY       0.0579     YY     -42.0861
        XZ       0.3409     YZ       1.5462     ZZ     -48.7791

 Total job time:  30.20s(wall), 755.26s(cpu)
        *  Thank you very much for using Q-Chem.  Have a nice day.  *
