 Q-Chem 5.4, Q-Chem, Inc., Pleasanton, CA (2021)
 Q-Chem 5.4.0 for Intel X86 EM64T Linux

User input:
--------------------------------------------------------------
$molecule
0 1
C	-0.520664	-0.335659	-0.003205
C	0.124336	0.209641	1.109795
C	1.186936	1.107341	0.817395
H	-0.172064	-0.040859	2.139695
C	1.376536	1.267341	-0.566805
S	0.220536	0.291041	-1.467905
C	2.000136	1.794341	1.879195
H	1.657936	1.505341	2.891795
H	1.925336	2.899441	1.804895
H	3.077136	1.535941	1.804995
C	-0.520664	-1.785759	-0.003205
H	0.019336	-1.786259	0.932095
H	-1.333264	-2.320859	0.465695
H	0.200736	-2.472959	-0.420105
H	2.108336	1.885641	-1.100305
$end

$rem
JOBTYPE		SP
EXCHANGE	HF
CORRELATION	pRIMP2
BASIS		cc-pvtz
METHOD		rimp2
AUX_BASIS	rimp2-cc-pvtz
SOLVENT_METHOD	PCM
PURECART	11111
SYMMETRY	false
MEM_TOTAL	110000
SCF_CONVERGENCE = 6
THRESH=10
GUI = 2
$end

$solvent
dielectric 4.90
$end
--------------------------------------------------------------

             Standard Nuclear Orientation (Angstroms)
    I     Atom           X                Y                Z
 ----------------------------------------------------------------
    1      C      -0.5206640000    -0.3356590000    -0.0032050000
    2      C       0.1243360000     0.2096410000     1.1097950000
    3      C       1.1869360000     1.1073410000     0.8173950000
    4      H      -0.1720640000    -0.0408590000     2.1396950000
    5      C       1.3765360000     1.2673410000    -0.5668050000
    6      S       0.2205360000     0.2910410000    -1.4679050000
    7      C       2.0001360000     1.7943410000     1.8791950000
    8      H       1.6579360000     1.5053410000     2.8917950000
    9      H       1.9253360000     2.8994410000     1.8048950000
   10      H       3.0771360000     1.5359410000     1.8049950000
   11      C      -0.5206640000    -1.7857590000    -0.0032050000
   12      H       0.0193360000    -1.7862590000     0.9320950000
   13      H      -1.3332640000    -2.3208590000     0.4656950000
   14      H       0.2007360000    -2.4729590000    -0.4201050000
   15      H       2.1083360000     1.8856410000    -1.1003050000
 ----------------------------------------------------------------

   11    -629.3637572028      4.51e-07  Convergence criterion met
 Total energy in the final basis set =     -629.3637572028
        RIMP2         total energy =      -630.5537338870 a.u.

                    Orbital Energies (a.u.)
 --------------------------------------------------------------

 Alpha MOs
 -- Occupied --
-91.9771 -11.2719 -11.2573 -11.2486 -11.2431 -11.2288 -11.2078  -8.9772
 -6.6581  -6.6574  -6.6570  -1.1703  -1.0542  -1.0004  -0.9337  -0.8835
 -0.7458  -0.7301  -0.6432  -0.5886  -0.5800  -0.5724  -0.5536  -0.5428
 -0.5168  -0.4718  -0.4573  -0.4442  -0.3311  -0.2969

          Ground-State Mulliken Net Atomic Charges

     Atom                 Charge (a.u.)
  ----------------------------------------
      1 C                    -0.062217
      2 C                    -0.165299
      3 C                    -0.005939
      4 H                     0.179202
      5 C                    -0.214664
      6 S                     0.013907
      7 C                    -0.268459
      8 H                     0.101667
      9 H                     0.107055
     10 H                     0.104756
     11 C                    -0.377236
     12 H                     0.129874
     13 H                     0.110583
     14 H                     0.151079
     15 H                     0.195690
  ----------------------------------------
  Sum of atomic charges =     0.000000

                    Cartesian Multipole Moments
 -----------------------------------------------------------------
    Charge (ESU x 10^10)
                -0.0000
    Dipole Moment (Debye)
         X       2.0757      Y       0.1165      Z       2.1699
       Tot       3.0050
    Quadrupole Moments (Debye-Ang)
        XX     -49.6416     XY       3.7127     YY     -48.4700
        XZ      -0.5542     YZ      -0.8247     ZZ     -48.1152

 Total job time:  20.21s(wall), 823.21s(cpu)
        *  Thank you very much for using Q-Chem.  Have a nice day.  *
