 Q-Chem 5.4, Q-Chem, Inc., Pleasanton, CA (2021)
 Q-Chem 5.4.0 for Intel X86 EM64T Linux

User input:
--------------------------------------------------------------
$molecule
0 1
C	-0.052776	-0.574004	-0.001525
C	0.017724	0.267696	1.111475
C	0.134324	1.653696	0.819075
H	-0.014676	-0.119104	2.141375
C	0.155324	1.900996	-0.565125
S	0.028124	0.393196	-1.466225
C	0.223524	2.714596	1.880875
H	0.185924	2.268196	2.893475
H	-0.610776	3.443096	1.806575
H	1.167824	3.293496	1.806675
C	-0.052776	-2.024104	-0.001525
H	-0.880076	-2.024604	0.692675
H	-0.655676	-2.559204	-0.720325
H	0.483024	-2.711304	0.636575
H	0.235524	2.855696	-1.098625
$end

$rem
JOBTYPE		SP
EXCHANGE	HF
CORRELATION	pRIMP2
BASIS		cc-pvtz
METHOD		rimp2
AUX_BASIS	rimp2-cc-pvtz
SOLVENT_METHOD	PCM
PURECART	11111
SYMMETRY	false
MEM_TOTAL	110000
SCF_CONVERGENCE = 6
THRESH=10
GUI = 2
$end

$solvent
dielectric 4.90
$end
--------------------------------------------------------------

             Standard Nuclear Orientation (Angstroms)
    I     Atom           X                Y                Z
 ----------------------------------------------------------------
    1      C      -0.0527760000    -0.5740040000    -0.0015250000
    2      C       0.0177240000     0.2676960000     1.1114750000
    3      C       0.1343240000     1.6536960000     0.8190750000
    4      H      -0.0146760000    -0.1191040000     2.1413750000
    5      C       0.1553240000     1.9009960000    -0.5651250000
    6      S       0.0281240000     0.3931960000    -1.4662250000
    7      C       0.2235240000     2.7145960000     1.8808750000
    8      H       0.1859240000     2.2681960000     2.8934750000
    9      H      -0.6107760000     3.4430960000     1.8065750000
   10      H       1.1678240000     3.2934960000     1.8066750000
   11      C      -0.0527760000    -2.0241040000    -0.0015250000
   12      H      -0.8800760000    -2.0246040000     0.6926750000
   13      H      -0.6556760000    -2.5592040000    -0.7203250000
   14      H       0.4830240000    -2.7113040000     0.6365750000
   15      H       0.2355240000     2.8556960000    -1.0986250000
 ----------------------------------------------------------------

   10    -629.4244271014      5.77e-07  Convergence criterion met
 Total energy in the final basis set =     -629.4244271014
        RIMP2         total energy =      -630.6012616047 a.u.

                    Orbital Energies (a.u.)
 --------------------------------------------------------------

 Alpha MOs
 -- Occupied --
-91.9779 -11.2819 -11.2525 -11.2474 -11.2271 -11.2270 -11.2197  -8.9777
 -6.6586  -6.6581  -6.6575  -1.1600  -1.0533  -0.9984  -0.9400  -0.8846
 -0.7425  -0.7205  -0.6484  -0.5883  -0.5741  -0.5656  -0.5595  -0.5430
 -0.5087  -0.4914  -0.4657  -0.4497  -0.3372  -0.2950

          Ground-State Mulliken Net Atomic Charges

     Atom                 Charge (a.u.)
  ----------------------------------------
      1 C                     0.061994
      2 C                    -0.287048
      3 C                     0.040385
      4 H                     0.175684
      5 C                    -0.267406
      6 S                    -0.002237
      7 C                    -0.275021
      8 H                     0.101358
      9 H                     0.107149
     10 H                     0.107342
     11 C                    -0.379383
     12 H                     0.134217
     13 H                     0.138871
     14 H                     0.150992
     15 H                     0.193104
  ----------------------------------------
  Sum of atomic charges =     0.000000

                    Cartesian Multipole Moments
 -----------------------------------------------------------------
    Charge (ESU x 10^10)
                -0.0000
    Dipole Moment (Debye)
         X      -0.4471      Y      -0.4442      Z       1.8899
       Tot       1.9922
    Quadrupole Moments (Debye-Ang)
        XX     -53.9848     XY       1.9130     YY     -42.0396
        XZ       0.3161     YZ      -0.6216     ZZ     -48.6884

 Total job time:  16.48s(wall), 748.20s(cpu)
        *  Thank you very much for using Q-Chem.  Have a nice day.  *
