 Q-Chem 5.4, Q-Chem, Inc., Pleasanton, CA (2021)
 Q-Chem 5.4.0 for Intel X86 EM64T Linux

User input:
--------------------------------------------------------------
$molecule
0 1
C	-0.430632	-0.419059	-0.001525
C	0.109868	0.229941	1.111475
C	1.000368	1.298441	0.819075
H	-0.138532	-0.068259	2.141375
C	1.159468	1.489041	-0.565125
S	0.190468	0.326841	-1.466225
C	1.681968	2.116341	1.880875
H	1.395168	1.772241	2.893475
H	1.416468	3.191641	1.806575
H	2.787568	2.048841	1.806675
C	-0.430632	-1.869159	-0.001525
H	-1.257932	-1.869659	0.692675
H	-1.033532	-2.404259	-0.720325
H	0.105168	-2.556359	0.636575
H	1.772668	2.225041	-1.098625
$end

$rem
JOBTYPE		SP
EXCHANGE	HF
CORRELATION	pRIMP2
BASIS		cc-pvtz
METHOD		rimp2
AUX_BASIS	rimp2-cc-pvtz
SOLVENT_METHOD	PCM
PURECART	11111
SYMMETRY	false
MEM_TOTAL	110000
SCF_CONVERGENCE = 6
THRESH=10
GUI = 2
$end

$solvent
dielectric 4.90
$end
--------------------------------------------------------------

             Standard Nuclear Orientation (Angstroms)
    I     Atom           X                Y                Z
 ----------------------------------------------------------------
    1      C      -0.4306320000    -0.4190590000    -0.0015250000
    2      C       0.1098680000     0.2299410000     1.1114750000
    3      C       1.0003680000     1.2984410000     0.8190750000
    4      H      -0.1385320000    -0.0682590000     2.1413750000
    5      C       1.1594680000     1.4890410000    -0.5651250000
    6      S       0.1904680000     0.3268410000    -1.4662250000
    7      C       1.6819680000     2.1163410000     1.8808750000
    8      H       1.3951680000     1.7722410000     2.8934750000
    9      H       1.4164680000     3.1916410000     1.8065750000
   10      H       2.7875680000     2.0488410000     1.8066750000
   11      C      -0.4306320000    -1.8691590000    -0.0015250000
   12      H      -1.2579320000    -1.8696590000     0.6926750000
   13      H      -1.0335320000    -2.4042590000    -0.7203250000
   14      H       0.1051680000    -2.5563590000     0.6365750000
   15      H       1.7726680000     2.2250410000    -1.0986250000
 ----------------------------------------------------------------

   10    -629.3908147918      6.14e-07  Convergence criterion met
 Total energy in the final basis set =     -629.3908147918
        RIMP2         total energy =      -630.5758180101 a.u.

                    Orbital Energies (a.u.)
 --------------------------------------------------------------

 Alpha MOs
 -- Occupied --
-91.9734 -11.2659 -11.2643 -11.2485 -11.2395 -11.2281 -11.2129  -8.9739
 -6.6548  -6.6541  -6.6536  -1.1642  -1.0523  -0.9978  -0.9386  -0.8846
 -0.7447  -0.7248  -0.6454  -0.5847  -0.5786  -0.5650  -0.5568  -0.5420
 -0.5152  -0.4886  -0.4600  -0.4349  -0.3370  -0.2954

          Ground-State Mulliken Net Atomic Charges

     Atom                 Charge (a.u.)
  ----------------------------------------
      1 C                    -0.020498
      2 C                    -0.226483
      3 C                     0.021655
      4 H                     0.178124
      5 C                    -0.227292
      6 S                     0.002626
      7 C                    -0.269994
      8 H                     0.101469
      9 H                     0.107004
     10 H                     0.106270
     11 C                    -0.379235
     12 H                     0.125066
     13 H                     0.132041
     14 H                     0.155691
     15 H                     0.193559
  ----------------------------------------
  Sum of atomic charges =     0.000000

                    Cartesian Multipole Moments
 -----------------------------------------------------------------
    Charge (ESU x 10^10)
                -0.0000
    Dipole Moment (Debye)
         X       0.7385      Y       0.0258      Z       2.0520
       Tot       2.1810
    Quadrupole Moments (Debye-Ang)
        XX     -50.3360     XY       5.4844     YY     -46.2954
        XZ       0.2522     YZ      -0.6824     ZZ     -48.4117

 Total job time:  17.67s(wall), 755.18s(cpu)
        *  Thank you very much for using Q-Chem.  Have a nice day.  *
