 Q-Chem 5.4, Q-Chem, Inc., Pleasanton, CA (2021)
 Q-Chem 5.4.0 for Intel X86 EM64T Linux

User input:
--------------------------------------------------------------
$molecule
0 1
C	-0.243782	-0.537056	0.000759
C	0.042218	0.257644	1.113759
C	0.513518	1.566344	0.821359
H	-0.089282	-0.107456	2.143659
C	0.597818	1.799744	-0.562841
S	0.084718	0.376244	-1.463941
C	0.874318	2.567944	1.883159
H	0.722418	2.146544	2.895759
H	0.257018	3.487644	1.808859
H	1.936218	2.882744	1.808959
C	-0.117382	-1.981656	0.000759
H	0.958518	-1.888056	0.000759
H	-0.070982	-2.514756	0.938859
H	-0.057782	-2.666256	-0.832441
H	0.922318	2.701144	-1.096341
$end

$rem
JOBTYPE		SP
EXCHANGE	HF
CORRELATION	pRIMP2
BASIS		cc-pvtz
METHOD		rimp2
AUX_BASIS	rimp2-cc-pvtz
SOLVENT_METHOD	PCM
PURECART	11111
SYMMETRY	false
MEM_TOTAL	110000
SCF_CONVERGENCE = 6
THRESH=10
GUI = 2
$end

$solvent
dielectric 4.90
$end
--------------------------------------------------------------

             Standard Nuclear Orientation (Angstroms)
    I     Atom           X                Y                Z
 ----------------------------------------------------------------
    1      C      -0.2437820000    -0.5370560000     0.0007590000
    2      C       0.0422180000     0.2576440000     1.1137590000
    3      C       0.5135180000     1.5663440000     0.8213590000
    4      H      -0.0892820000    -0.1074560000     2.1436590000
    5      C       0.5978180000     1.7997440000    -0.5628410000
    6      S       0.0847180000     0.3762440000    -1.4639410000
    7      C       0.8743180000     2.5679440000     1.8831590000
    8      H       0.7224180000     2.1465440000     2.8957590000
    9      H       0.2570180000     3.4876440000     1.8088590000
   10      H       1.9362180000     2.8827440000     1.8089590000
   11      C      -0.1173820000    -1.9816560000     0.0007590000
   12      H       0.9585180000    -1.8880560000     0.0007590000
   13      H      -0.0709820000    -2.5147560000     0.9388590000
   14      H      -0.0577820000    -2.6662560000    -0.8324410000
   15      H       0.9223180000     2.7011440000    -1.0963410000
 ----------------------------------------------------------------

   10    -629.4163031588      6.65e-07  Convergence criterion met
 Total energy in the final basis set =     -629.4163031588
        RIMP2         total energy =      -630.5937385985 a.u.

                    Orbital Energies (a.u.)
 --------------------------------------------------------------

 Alpha MOs
 -- Occupied --
-91.9777 -11.2838 -11.2523 -11.2480 -11.2271 -11.2247 -11.2228  -8.9776
 -6.6586  -6.6581  -6.6575  -1.1628  -1.0552  -0.9970  -0.9400  -0.8833
 -0.7446  -0.7197  -0.6461  -0.5884  -0.5787  -0.5677  -0.5521  -0.5455
 -0.5071  -0.4946  -0.4644  -0.4563  -0.3387  -0.2889

          Ground-State Mulliken Net Atomic Charges

     Atom                 Charge (a.u.)
  ----------------------------------------
      1 C                     0.049072
      2 C                    -0.309938
      3 C                     0.057562
      4 H                     0.174690
      5 C                    -0.277613
      6 S                     0.000569
      7 C                    -0.270543
      8 H                     0.101697
      9 H                     0.107654
     10 H                     0.106872
     11 C                    -0.374490
     12 H                     0.149208
     13 H                     0.137280
     14 H                     0.154877
     15 H                     0.193104
  ----------------------------------------
  Sum of atomic charges =     0.000000

                    Cartesian Multipole Moments
 -----------------------------------------------------------------
    Charge (ESU x 10^10)
                -0.0000
    Dipole Moment (Debye)
         X       1.2714      Y      -0.5646      Z       1.4648
       Tot       2.0201
    Quadrupole Moments (Debye-Ang)
        XX     -53.6499     XY       1.1393     YY     -43.1640
        XZ       0.1603     YZ       0.4314     ZZ     -48.5397

 Total job time:  17.30s(wall), 770.60s(cpu)
        *  Thank you very much for using Q-Chem.  Have a nice day.  *
