 Q-Chem 5.4, Q-Chem, Inc., Pleasanton, CA (2021)
 Q-Chem 5.4.0 for Intel X86 EM64T Linux

User input:
--------------------------------------------------------------
$molecule
0 1
C	-0.584774	-0.238938	-0.003165
C	0.145126	0.186062	1.109835
C	1.347426	0.885562	0.817435
H	-0.190274	-0.009138	2.139735
C	1.562026	1.010262	-0.566765
S	0.253926	0.249562	-1.467865
C	2.267626	1.420962	1.879235
H	1.880326	1.195762	2.891835
H	2.385826	2.522262	1.804935
H	3.283426	0.979462	1.805035
C	-0.584774	-1.689038	-0.003165
H	-0.954174	-1.689538	1.011735
H	-1.466274	-2.224138	-0.324265
H	0.198226	-2.376238	0.281535
H	2.390026	1.492062	-1.100265
$end

$rem
JOBTYPE		SP
EXCHANGE	HF
CORRELATION	pRIMP2
BASIS		cc-pvtz
METHOD		rimp2
AUX_BASIS	rimp2-cc-pvtz
SOLVENT_METHOD	PCM
PURECART	11111
SYMMETRY	false
MEM_TOTAL	110000
SCF_CONVERGENCE = 6
THRESH=10
GUI = 2
$end

$solvent
dielectric 4.90
$end
--------------------------------------------------------------

             Standard Nuclear Orientation (Angstroms)
    I     Atom           X                Y                Z
 ----------------------------------------------------------------
    1      C      -0.5847740000    -0.2389380000    -0.0031650000
    2      C       0.1451260000     0.1860620000     1.1098350000
    3      C       1.3474260000     0.8855620000     0.8174350000
    4      H      -0.1902740000    -0.0091380000     2.1397350000
    5      C       1.5620260000     1.0102620000    -0.5667650000
    6      S       0.2539260000     0.2495620000    -1.4678650000
    7      C       2.2676260000     1.4209620000     1.8792350000
    8      H       1.8803260000     1.1957620000     2.8918350000
    9      H       2.3858260000     2.5222620000     1.8049350000
   10      H       3.2834260000     0.9794620000     1.8050350000
   11      C      -0.5847740000    -1.6890380000    -0.0031650000
   12      H      -0.9541740000    -1.6895380000     1.0117350000
   13      H      -1.4662740000    -2.2241380000    -0.3242650000
   14      H       0.1982260000    -2.3762380000     0.2815350000
   15      H       2.3900260000     1.4920620000    -1.1002650000
 ----------------------------------------------------------------

   10    -629.3539988862      9.67e-07  Convergence criterion met
 Total energy in the final basis set =     -629.3539988862
        RIMP2         total energy =      -630.5442909571 a.u.

                    Orbital Energies (a.u.)
 --------------------------------------------------------------

 Alpha MOs
 -- Occupied --
-91.9718 -11.2848 -11.2560 -11.2499 -11.2420 -11.2299 -11.2086  -8.9729
 -6.6537  -6.6528  -6.6526  -1.1738  -1.0549  -1.0012  -0.9339  -0.8846
 -0.7485  -0.7341  -0.6442  -0.5881  -0.5851  -0.5690  -0.5523  -0.5423
 -0.5209  -0.4750  -0.4581  -0.4175  -0.3344  -0.3077

          Ground-State Mulliken Net Atomic Charges

     Atom                 Charge (a.u.)
  ----------------------------------------
      1 C                    -0.111280
      2 C                    -0.115154
      3 C                    -0.023865
      4 H                     0.182336
      5 C                    -0.177447
      6 S                     0.010040
      7 C                    -0.266923
      8 H                     0.102158
      9 H                     0.106878
     10 H                     0.105123
     11 C                    -0.356272
     12 H                     0.098446
     13 H                     0.110608
     14 H                     0.137192
     15 H                     0.198159
  ----------------------------------------
  Sum of atomic charges =     0.000000

                    Cartesian Multipole Moments
 -----------------------------------------------------------------
    Charge (ESU x 10^10)
                -0.0000
    Dipole Moment (Debye)
         X       2.3572      Y       0.3040      Z       2.3463
       Tot       3.3397
    Quadrupole Moments (Debye-Ang)
        XX     -47.5438     XY       4.5713     YY     -50.0522
        XZ      -0.3227     YZ      -0.8366     ZZ     -48.1425

 Total job time:  18.72s(wall), 769.63s(cpu)
        *  Thank you very much for using Q-Chem.  Have a nice day.  *
