 Q-Chem 5.4, Q-Chem, Inc., Pleasanton, CA (2021)
 Q-Chem 5.4.0 for Intel X86 EM64T Linux

User input:
--------------------------------------------------------------
$molecule
0 1
C	-0.582026	-0.238938	0.001702
C	0.147874	0.186062	1.114702
C	1.350174	0.885562	0.822302
H	-0.187526	-0.009138	2.144602
C	1.564774	1.010262	-0.561898
S	0.256674	0.249562	-1.462998
C	2.270374	1.420962	1.884102
H	1.883074	1.195762	2.896702
H	2.388574	2.522262	1.809802
H	3.286174	0.979462	1.809902
C	-0.582026	-1.689038	0.001702
H	-1.662026	-1.689538	0.001702
H	-0.581826	-2.224138	-0.936398
H	-0.581726	-2.376238	0.834902
H	2.392774	1.492062	-1.095398
$end

$rem
JOBTYPE		SP
EXCHANGE	HF
CORRELATION	pRIMP2
BASIS		cc-pvtz
METHOD		rimp2
AUX_BASIS	rimp2-cc-pvtz
SOLVENT_METHOD	PCM
PURECART	11111
SYMMETRY	false
MEM_TOTAL	110000
SCF_CONVERGENCE = 6
THRESH=10
GUI = 2
$end

$solvent
dielectric 4.90
$end
--------------------------------------------------------------

             Standard Nuclear Orientation (Angstroms)
    I     Atom           X                Y                Z
 ----------------------------------------------------------------
    1      C      -0.5820260000    -0.2389380000     0.0017020000
    2      C       0.1478740000     0.1860620000     1.1147020000
    3      C       1.3501740000     0.8855620000     0.8223020000
    4      H      -0.1875260000    -0.0091380000     2.1446020000
    5      C       1.5647740000     1.0102620000    -0.5618980000
    6      S       0.2566740000     0.2495620000    -1.4629980000
    7      C       2.2703740000     1.4209620000     1.8841020000
    8      H       1.8830740000     1.1957620000     2.8967020000
    9      H       2.3885740000     2.5222620000     1.8098020000
   10      H       3.2861740000     0.9794620000     1.8099020000
   11      C      -0.5820260000    -1.6890380000     0.0017020000
   12      H      -1.6620260000    -1.6895380000     0.0017020000
   13      H      -0.5818260000    -2.2241380000    -0.9363980000
   14      H      -0.5817260000    -2.3762380000     0.8349020000
   15      H       2.3927740000     1.4920620000    -1.0953980000
 ----------------------------------------------------------------

   11    -629.3369568720      6.57e-07  Convergence criterion met
 Total energy in the final basis set =     -629.3369568720
        RIMP2         total energy =      -630.5294801247 a.u.

                    Orbital Energies (a.u.)
 --------------------------------------------------------------

 Alpha MOs
 -- Occupied --
-91.9722 -11.2800 -11.2514 -11.2483 -11.2418 -11.2285 -11.2047  -8.9732
 -6.6540  -6.6530  -6.6528  -1.1707  -1.0533  -0.9964  -0.9391  -0.8821
 -0.7504  -0.7290  -0.6417  -0.5873  -0.5765  -0.5655  -0.5523  -0.5417
 -0.5174  -0.4928  -0.4583  -0.4207  -0.3344  -0.2841

          Ground-State Mulliken Net Atomic Charges

     Atom                 Charge (a.u.)
  ----------------------------------------
      1 C                    -0.109481
      2 C                    -0.127944
      3 C                    -0.014078
      4 H                     0.184126
      5 C                    -0.188457
      6 S                     0.011877
      7 C                    -0.268910
      8 H                     0.101826
      9 H                     0.106536
     10 H                     0.104228
     11 C                    -0.398205
     12 H                     0.125635
     13 H                     0.131260
     14 H                     0.144772
     15 H                     0.196815
  ----------------------------------------
  Sum of atomic charges =     0.000000

                    Cartesian Multipole Moments
 -----------------------------------------------------------------
    Charge (ESU x 10^10)
                -0.0000
    Dipole Moment (Debye)
         X       1.7622      Y       0.0205      Z       1.7866
       Tot       2.5096
    Quadrupole Moments (Debye-Ang)
        XX     -47.8833     XY       5.3000     YY     -50.0505
        XZ      -0.2870     YZ       0.0468     ZZ     -47.4956

 Total job time:  17.14s(wall), 817.59s(cpu)
        *  Thank you very much for using Q-Chem.  Have a nice day.  *
