 Q-Chem 5.4, Q-Chem, Inc., Pleasanton, CA (2021)
 Q-Chem 5.4.0 for Intel X86 EM64T Linux

User input:
--------------------------------------------------------------
$molecule
0 1
C	-0.432548	-0.419059	-0.003165
C	0.107952	0.229941	1.109835
C	0.998452	1.298441	0.817435
H	-0.140448	-0.068259	2.139735
C	1.157552	1.489041	-0.566765
S	0.188552	0.326841	-1.467865
C	1.680052	2.116341	1.879235
H	1.393252	1.772241	2.891835
H	1.414552	3.191641	1.804935
H	2.785652	2.048841	1.805035
C	-0.432548	-1.869159	-0.003165
H	-0.801948	-1.869659	1.011735
H	-1.314048	-2.404259	-0.324265
H	0.350452	-2.556359	0.281535
H	1.770752	2.225041	-1.100265
$end

$rem
JOBTYPE		SP
EXCHANGE	HF
CORRELATION	pRIMP2
BASIS		cc-pvtz
METHOD		rimp2
AUX_BASIS	rimp2-cc-pvtz
SOLVENT_METHOD	PCM
PURECART	11111
SYMMETRY	false
MEM_TOTAL	110000
SCF_CONVERGENCE = 6
THRESH=10
GUI = 2
$end

$solvent
dielectric 4.90
$end
--------------------------------------------------------------

             Standard Nuclear Orientation (Angstroms)
    I     Atom           X                Y                Z
 ----------------------------------------------------------------
    1      C      -0.4325480000    -0.4190590000    -0.0031650000
    2      C       0.1079520000     0.2299410000     1.1098350000
    3      C       0.9984520000     1.2984410000     0.8174350000
    4      H      -0.1404480000    -0.0682590000     2.1397350000
    5      C       1.1575520000     1.4890410000    -0.5667650000
    6      S       0.1885520000     0.3268410000    -1.4678650000
    7      C       1.6800520000     2.1163410000     1.8792350000
    8      H       1.3932520000     1.7722410000     2.8918350000
    9      H       1.4145520000     3.1916410000     1.8049350000
   10      H       2.7856520000     2.0488410000     1.8050350000
   11      C      -0.4325480000    -1.8691590000    -0.0031650000
   12      H      -0.8019480000    -1.8696590000     1.0117350000
   13      H      -1.3140480000    -2.4042590000    -0.3242650000
   14      H       0.3504520000    -2.5563590000     0.2815350000
   15      H       1.7707520000     2.2250410000    -1.1002650000
 ----------------------------------------------------------------

   10    -629.3942472600      6.56e-07  Convergence criterion met
 Total energy in the final basis set =     -629.3942472600
        RIMP2         total energy =      -630.5787737264 a.u.

                    Orbital Energies (a.u.)
 --------------------------------------------------------------

 Alpha MOs
 -- Occupied --
-91.9731 -11.2694 -11.2621 -11.2484 -11.2430 -11.2285 -11.2124  -8.9736
 -6.6545  -6.6538  -6.6534  -1.1654  -1.0524  -0.9993  -0.9369  -0.8852
 -0.7445  -0.7275  -0.6454  -0.5862  -0.5814  -0.5684  -0.5555  -0.5413
 -0.5162  -0.4785  -0.4631  -0.4308  -0.3370  -0.3049

          Ground-State Mulliken Net Atomic Charges

     Atom                 Charge (a.u.)
  ----------------------------------------
      1 C                    -0.029559
      2 C                    -0.212932
      3 C                     0.019871
      4 H                     0.177841
      5 C                    -0.223098
      6 S                     0.000248
      7 C                    -0.268739
      8 H                     0.101534
      9 H                     0.106940
     10 H                     0.106275
     11 C                    -0.355130
     12 H                     0.110484
     13 H                     0.121368
     14 H                     0.149726
     15 H                     0.195172
  ----------------------------------------
  Sum of atomic charges =     0.000000

                    Cartesian Multipole Moments
 -----------------------------------------------------------------
    Charge (ESU x 10^10)
                -0.0000
    Dipole Moment (Debye)
         X       1.1452      Y       0.2371      Z       2.2407
       Tot       2.5275
    Quadrupole Moments (Debye-Ang)
        XX     -50.2549     XY       4.8359     YY     -46.3712
        XZ       0.0051     YZ      -1.0140     ZZ     -48.6434

 Total job time:  16.19s(wall), 758.66s(cpu)
        *  Thank you very much for using Q-Chem.  Have a nice day.  *
