 Q-Chem 5.4, Q-Chem, Inc., Pleasanton, CA (2021)
 Q-Chem 5.4.0 for Intel X86 EM64T Linux

User input:
--------------------------------------------------------------
$molecule
0 1
C	-0.234861	-0.536244	0.001609
C	0.051139	0.258456	1.114609
C	0.522439	1.567156	0.822209
H	-0.080361	-0.106644	2.144509
C	0.606739	1.800556	-0.561991
S	0.093639	0.377056	-1.463091
C	0.883239	2.568756	1.884009
H	0.731339	2.147356	2.896609
H	0.265939	3.488456	1.809709
H	1.945139	2.883556	1.809809
C	-0.234861	-1.986344	0.001609
H	0.828739	-1.986844	-0.185991
H	-0.072161	-2.521444	0.925509
H	-0.379861	-2.673544	-0.818891
H	0.931239	2.701956	-1.095491
$end

$rem
JOBTYPE		SP
EXCHANGE	HF
CORRELATION	pRIMP2
BASIS		cc-pvtz
METHOD		rimp2
AUX_BASIS	rimp2-cc-pvtz
SOLVENT_METHOD	PCM
PURECART	11111
SYMMETRY	false
MEM_TOTAL	110000
SCF_CONVERGENCE = 6
THRESH=10
GUI = 2
$end

$solvent
dielectric 4.90
$end
--------------------------------------------------------------

             Standard Nuclear Orientation (Angstroms)
    I     Atom           X                Y                Z
 ----------------------------------------------------------------
    1      C      -0.2348610000    -0.5362440000     0.0016090000
    2      C       0.0511390000     0.2584560000     1.1146090000
    3      C       0.5224390000     1.5671560000     0.8222090000
    4      H      -0.0803610000    -0.1066440000     2.1445090000
    5      C       0.6067390000     1.8005560000    -0.5619910000
    6      S       0.0936390000     0.3770560000    -1.4630910000
    7      C       0.8832390000     2.5687560000     1.8840090000
    8      H       0.7313390000     2.1473560000     2.8966090000
    9      H       0.2659390000     3.4884560000     1.8097090000
   10      H       1.9451390000     2.8835560000     1.8098090000
   11      C      -0.2348610000    -1.9863440000     0.0016090000
   12      H       0.8287390000    -1.9868440000    -0.1859910000
   13      H      -0.0721610000    -2.5214440000     0.9255090000
   14      H      -0.3798610000    -2.6735440000    -0.8188910000
   15      H       0.9312390000     2.7019560000    -1.0954910000
 ----------------------------------------------------------------

   10    -629.4208796947      6.86e-07  Convergence criterion met
 Total energy in the final basis set =     -629.4208796947
        RIMP2         total energy =      -630.5970537201 a.u.

                    Orbital Energies (a.u.)
 --------------------------------------------------------------

 Alpha MOs
 -- Occupied --
-91.9774 -11.2846 -11.2516 -11.2476 -11.2269 -11.2245 -11.2232  -8.9774
 -6.6584  -6.6578  -6.6572  -1.1619  -1.0552  -0.9967  -0.9411  -0.8832
 -0.7448  -0.7190  -0.6464  -0.5888  -0.5782  -0.5673  -0.5511  -0.5461
 -0.5066  -0.4958  -0.4654  -0.4557  -0.3390  -0.2898

          Ground-State Mulliken Net Atomic Charges

     Atom                 Charge (a.u.)
  ----------------------------------------
      1 C                     0.057635
      2 C                    -0.320952
      3 C                     0.060520
      4 H                     0.175940
      5 C                    -0.277845
      6 S                    -0.001980
      7 C                    -0.271249
      8 H                     0.101604
      9 H                     0.107563
     10 H                     0.107196
     11 C                    -0.373098
     12 H                     0.146333
     13 H                     0.140353
     14 H                     0.154944
     15 H                     0.193038
  ----------------------------------------
  Sum of atomic charges =     0.000000

                    Cartesian Multipole Moments
 -----------------------------------------------------------------
    Charge (ESU x 10^10)
                -0.0000
    Dipole Moment (Debye)
         X       1.1058      Y      -0.6831      Z       1.3416
       Tot       1.8679
    Quadrupole Moments (Debye-Ang)
        XX     -53.7719     XY       1.4543     YY     -42.7875
        XZ       0.2781     YZ       0.7112     ZZ     -48.5923

 Total job time:  15.68s(wall), 756.18s(cpu)
        *  Thank you very much for using Q-Chem.  Have a nice day.  *
