 Q-Chem 5.4, Q-Chem, Inc., Pleasanton, CA (2021)
 Q-Chem 5.4.0 for Intel X86 EM64T Linux

User input:
--------------------------------------------------------------
$molecule
0 1
C	-0.282715	-0.513776	-0.003165
C	0.071485	0.253024	1.109835
C	0.655085	1.515624	0.817435
H	-0.091415	-0.099276	2.139735
C	0.759285	1.740824	-0.566765
S	0.124185	0.367424	-1.467865
C	1.101685	2.482024	1.879235
H	0.913685	2.075424	2.891835
H	0.566885	3.451924	1.804935
H	2.187085	2.703024	1.805035
C	-0.282715	-1.963876	-0.003165
H	-0.652115	-1.964376	1.011735
H	-1.164215	-2.498976	-0.324265
H	0.500285	-2.651076	0.281535
H	1.161185	2.610424	-1.100265
$end

$rem
JOBTYPE		SP
EXCHANGE	HF
CORRELATION	pRIMP2
BASIS		cc-pvtz
METHOD		rimp2
AUX_BASIS	rimp2-cc-pvtz
SOLVENT_METHOD	PCM
PURECART	11111
SYMMETRY	false
MEM_TOTAL	110000
SCF_CONVERGENCE = 6
THRESH=10
GUI = 2
$end

$solvent
dielectric 4.90
$end
--------------------------------------------------------------

             Standard Nuclear Orientation (Angstroms)
    I     Atom           X                Y                Z
 ----------------------------------------------------------------
    1      C      -0.2827150000    -0.5137760000    -0.0031650000
    2      C       0.0714850000     0.2530240000     1.1098350000
    3      C       0.6550850000     1.5156240000     0.8174350000
    4      H      -0.0914150000    -0.0992760000     2.1397350000
    5      C       0.7592850000     1.7408240000    -0.5667650000
    6      S       0.1241850000     0.3674240000    -1.4678650000
    7      C       1.1016850000     2.4820240000     1.8792350000
    8      H       0.9136850000     2.0754240000     2.8918350000
    9      H       0.5668850000     3.4519240000     1.8049350000
   10      H       2.1870850000     2.7030240000     1.8050350000
   11      C      -0.2827150000    -1.9638760000    -0.0031650000
   12      H      -0.6521150000    -1.9643760000     1.0117350000
   13      H      -1.1642150000    -2.4989760000    -0.3242650000
   14      H       0.5002850000    -2.6510760000     0.2815350000
   15      H       1.1611850000     2.6104240000    -1.1002650000
 ----------------------------------------------------------------

   10    -629.4138111027      5.05e-07  Convergence criterion met
 Total energy in the final basis set =     -629.4138111027
        RIMP2         total energy =      -630.5942711817 a.u.

                    Orbital Energies (a.u.)
 --------------------------------------------------------------

 Alpha MOs
 -- Occupied --
-91.9745 -11.2718 -11.2620 -11.2477 -11.2370 -11.2279 -11.2154  -8.9747
 -6.6556  -6.6550  -6.6545  -1.1623  -1.0522  -0.9992  -0.9384  -0.8854
 -0.7431  -0.7247  -0.6470  -0.5880  -0.5788  -0.5673  -0.5577  -0.5413
 -0.5129  -0.4832  -0.4654  -0.4367  -0.3376  -0.3041

          Ground-State Mulliken Net Atomic Charges

     Atom                 Charge (a.u.)
  ----------------------------------------
      1 C                     0.016594
      2 C                    -0.256238
      3 C                     0.034983
      4 H                     0.177353
      5 C                    -0.243765
      6 S                    -0.003750
      7 C                    -0.270800
      8 H                     0.101466
      9 H                     0.106965
     10 H                     0.106955
     11 C                    -0.356892
     12 H                     0.116100
     13 H                     0.129645
     14 H                     0.147229
     15 H                     0.194155
  ----------------------------------------
  Sum of atomic charges =     0.000000

                    Cartesian Multipole Moments
 -----------------------------------------------------------------
    Charge (ESU x 10^10)
                -0.0000
    Dipole Moment (Debye)
         X       0.4949      Y       0.0622      Z       2.1734
       Tot       2.2299
    Quadrupole Moments (Debye-Ang)
        XX     -52.1943     XY       3.8229     YY     -43.9101
        XZ       0.1419     YZ      -1.0172     ZZ     -48.8336

 Total job time:  15.67s(wall), 734.73s(cpu)
        *  Thank you very much for using Q-Chem.  Have a nice day.  *
