 Q-Chem 5.4, Q-Chem, Inc., Pleasanton, CA (2021)
 Q-Chem 5.4.0 for Intel X86 EM64T Linux

User input:
--------------------------------------------------------------
$molecule
0 1
C	-0.284345	-0.513776	-0.003619
C	0.069855	0.253024	1.109381
C	0.653455	1.515624	0.816981
H	-0.093045	-0.099276	2.139281
C	0.757655	1.740824	-0.567219
S	0.122555	0.367424	-1.468319
C	1.100055	2.482024	1.878781
H	0.912055	2.075424	2.891381
H	0.565255	3.451924	1.804481
H	2.185455	2.703024	1.804581
C	-0.284345	-1.963876	-0.003619
H	-0.284345	-1.964376	1.076381
H	-1.222445	-2.498976	-0.003819
H	0.548855	-2.651076	-0.003919
H	1.159555	2.610424	-1.100719
$end

$rem
JOBTYPE		SP
EXCHANGE	HF
CORRELATION	pRIMP2
BASIS		cc-pvtz
METHOD		rimp2
AUX_BASIS	rimp2-cc-pvtz
SOLVENT_METHOD	PCM
PURECART	11111
SYMMETRY	false
MEM_TOTAL	110000
SCF_CONVERGENCE = 6
THRESH=10
GUI = 2
$end

$solvent
dielectric 4.90
$end
--------------------------------------------------------------

             Standard Nuclear Orientation (Angstroms)
    I     Atom           X                Y                Z
 ----------------------------------------------------------------
    1      C      -0.2843450000    -0.5137760000    -0.0036190000
    2      C       0.0698550000     0.2530240000     1.1093810000
    3      C       0.6534550000     1.5156240000     0.8169810000
    4      H      -0.0930450000    -0.0992760000     2.1392810000
    5      C       0.7576550000     1.7408240000    -0.5672190000
    6      S       0.1225550000     0.3674240000    -1.4683190000
    7      C       1.1000550000     2.4820240000     1.8787810000
    8      H       0.9120550000     2.0754240000     2.8913810000
    9      H       0.5652550000     3.4519240000     1.8044810000
   10      H       2.1854550000     2.7030240000     1.8045810000
   11      C      -0.2843450000    -1.9638760000    -0.0036190000
   12      H      -0.2843450000    -1.9643760000     1.0763810000
   13      H      -1.2224450000    -2.4989760000    -0.0038190000
   14      H       0.5488550000    -2.6510760000    -0.0039190000
   15      H       1.1595550000     2.6104240000    -1.1007190000
 ----------------------------------------------------------------

   10    -629.4128070793      4.94e-07  Convergence criterion met
 Total energy in the final basis set =     -629.4128070793
        RIMP2         total energy =      -630.5933820898 a.u.

                    Orbital Energies (a.u.)
 --------------------------------------------------------------

 Alpha MOs
 -- Occupied --
-91.9748 -11.2719 -11.2622 -11.2475 -11.2373 -11.2279 -11.2147  -8.9750
 -6.6559  -6.6553  -6.6548  -1.1627  -1.0523  -0.9996  -0.9378  -0.8853
 -0.7430  -0.7255  -0.6466  -0.5890  -0.5793  -0.5686  -0.5570  -0.5409
 -0.5130  -0.4791  -0.4674  -0.4364  -0.3370  -0.3056

          Ground-State Mulliken Net Atomic Charges

     Atom                 Charge (a.u.)
  ----------------------------------------
      1 C                     0.018954
      2 C                    -0.255219
      3 C                     0.035175
      4 H                     0.175909
      5 C                    -0.242874
      6 S                    -0.003815
      7 C                    -0.270770
      8 H                     0.101406
      9 H                     0.107040
     10 H                     0.106881
     11 C                    -0.355735
     12 H                     0.117384
     13 H                     0.123947
     14 H                     0.147716
     15 H                     0.194002
  ----------------------------------------
  Sum of atomic charges =     0.000000

                    Cartesian Multipole Moments
 -----------------------------------------------------------------
    Charge (ESU x 10^10)
                -0.0000
    Dipole Moment (Debye)
         X       0.7197      Y       0.0868      Z       2.2051
       Tot       2.3212
    Quadrupole Moments (Debye-Ang)
        XX     -52.2565     XY       3.2691     YY     -43.9806
        XZ      -0.0882     YZ      -1.0487     ZZ     -48.8665

 Total job time:  16.60s(wall), 775.68s(cpu)
        *  Thank you very much for using Q-Chem.  Have a nice day.  *
