 Q-Chem 5.4, Q-Chem, Inc., Pleasanton, CA (2021)
 Q-Chem 5.4.0 for Intel X86 EM64T Linux

User input:
--------------------------------------------------------------
$molecule
0 1
C	-0.591570	-0.238938	-0.000076
C	0.138330	0.186062	1.112924
C	1.340630	0.885562	0.820524
H	-0.197070	-0.009138	2.142824
C	1.555230	1.010262	-0.563676
S	0.247130	0.249562	-1.464776
C	2.260830	1.420962	1.882324
H	1.873530	1.195762	2.894924
H	2.379030	2.522262	1.808024
H	3.276630	0.979462	1.808124
C	-0.591570	-1.689038	-0.000076
H	0.472030	-1.689538	0.187424
H	-0.754670	-2.224138	0.923824
H	-0.447170	-2.376238	-0.820676
H	2.383230	1.492062	-1.097176
$end

$rem
JOBTYPE		SP
EXCHANGE	HF
CORRELATION	pRIMP2
BASIS		cc-pvtz
METHOD		rimp2
AUX_BASIS	rimp2-cc-pvtz
SOLVENT_METHOD	PCM
PURECART	11111
SYMMETRY	false
MEM_TOTAL	110000
SCF_CONVERGENCE = 6
THRESH=10
GUI = 2
$end

$solvent
dielectric 4.90
$end
--------------------------------------------------------------

             Standard Nuclear Orientation (Angstroms)
    I     Atom           X                Y                Z
 ----------------------------------------------------------------
    1      C      -0.5915700000    -0.2389380000    -0.0000760000
    2      C       0.1383300000     0.1860620000     1.1129240000
    3      C       1.3406300000     0.8855620000     0.8205240000
    4      H      -0.1970700000    -0.0091380000     2.1428240000
    5      C       1.5552300000     1.0102620000    -0.5636760000
    6      S       0.2471300000     0.2495620000    -1.4647760000
    7      C       2.2608300000     1.4209620000     1.8823240000
    8      H       1.8735300000     1.1957620000     2.8949240000
    9      H       2.3790300000     2.5222620000     1.8080240000
   10      H       3.2766300000     0.9794620000     1.8081240000
   11      C      -0.5915700000    -1.6890380000    -0.0000760000
   12      H       0.4720300000    -1.6895380000     0.1874240000
   13      H      -0.7546700000    -2.2241380000     0.9238240000
   14      H      -0.4471700000    -2.3762380000    -0.8206760000
   15      H       2.3832300000     1.4920620000    -1.0971760000
 ----------------------------------------------------------------

   11    -629.3496047836      5.78e-07  Convergence criterion met
 Total energy in the final basis set =     -629.3496047836
        RIMP2         total energy =      -630.5420998557 a.u.

                    Orbital Energies (a.u.)
 --------------------------------------------------------------

 Alpha MOs
 -- Occupied --
-91.9775 -11.2793 -11.2568 -11.2518 -11.2438 -11.2297 -11.2145  -8.9782
 -6.6590  -6.6582  -6.6579  -1.1781  -1.0582  -0.9997  -0.9352  -0.8824
 -0.7513  -0.7302  -0.6445  -0.5917  -0.5837  -0.5692  -0.5530  -0.5458
 -0.5112  -0.4905  -0.4604  -0.4381  -0.3371  -0.2891

          Ground-State Mulliken Net Atomic Charges

     Atom                 Charge (a.u.)
  ----------------------------------------
      1 C                    -0.088232
      2 C                    -0.139588
      3 C                    -0.017579
      4 H                     0.181784
      5 C                    -0.206303
      6 S                     0.023695
      7 C                    -0.267018
      8 H                     0.103012
      9 H                     0.107677
     10 H                     0.104375
     11 C                    -0.364079
     12 H                     0.107630
     13 H                     0.114190
     14 H                     0.142257
     15 H                     0.198179
  ----------------------------------------
  Sum of atomic charges =     0.000000

                    Cartesian Multipole Moments
 -----------------------------------------------------------------
    Charge (ESU x 10^10)
                -0.0000
    Dipole Moment (Debye)
         X       2.6886      Y      -0.1167      Z       1.7154
       Tot       3.1914
    Quadrupole Moments (Debye-Ang)
        XX     -48.9649     XY       3.8115     YY     -49.8070
        XZ      -0.2454     YZ      -0.1140     ZZ     -47.6064

 Total job time:  19.28s(wall), 845.42s(cpu)
        *  Thank you very much for using Q-Chem.  Have a nice day.  *
