 Q-Chem 5.4, Q-Chem, Inc., Pleasanton, CA (2021)
 Q-Chem 5.4.0 for Intel X86 EM64T Linux

User input:
--------------------------------------------------------------
$molecule
0 1
C	-0.232759	-0.536244	-0.002787
C	0.053241	0.258456	1.110213
C	0.524541	1.567156	0.817813
H	-0.078259	-0.106644	2.140113
C	0.608841	1.800556	-0.566387
S	0.095741	0.377056	-1.467487
C	0.885341	2.568756	1.879613
H	0.733441	2.147356	2.892213
H	0.268041	3.488456	1.805313
H	1.947241	2.883556	1.805413
C	-0.232759	-1.986344	-0.002787
H	0.461441	-1.986844	0.824513
H	-0.951559	-2.521444	0.600113
H	0.405341	-2.673544	-0.538587
H	0.933341	2.701956	-1.099887
$end

$rem
JOBTYPE		SP
EXCHANGE	HF
CORRELATION	pRIMP2
BASIS		cc-pvtz
METHOD		rimp2
AUX_BASIS	rimp2-cc-pvtz
SOLVENT_METHOD	PCM
PURECART	11111
SYMMETRY	false
MEM_TOTAL	110000
SCF_CONVERGENCE = 6
THRESH=10
GUI = 2
$end

$solvent
dielectric 4.90
$end
--------------------------------------------------------------

             Standard Nuclear Orientation (Angstroms)
    I     Atom           X                Y                Z
 ----------------------------------------------------------------
    1      C      -0.2327590000    -0.5362440000    -0.0027870000
    2      C       0.0532410000     0.2584560000     1.1102130000
    3      C       0.5245410000     1.5671560000     0.8178130000
    4      H      -0.0782590000    -0.1066440000     2.1401130000
    5      C       0.6088410000     1.8005560000    -0.5663870000
    6      S       0.0957410000     0.3770560000    -1.4674870000
    7      C       0.8853410000     2.5687560000     1.8796130000
    8      H       0.7334410000     2.1473560000     2.8922130000
    9      H       0.2680410000     3.4884560000     1.8053130000
   10      H       1.9472410000     2.8835560000     1.8054130000
   11      C      -0.2327590000    -1.9863440000    -0.0027870000
   12      H       0.4614410000    -1.9868440000     0.8245130000
   13      H      -0.9515590000    -2.5214440000     0.6001130000
   14      H       0.4053410000    -2.6735440000    -0.5385870000
   15      H       0.9333410000     2.7019560000    -1.0998870000
 ----------------------------------------------------------------

   10    -629.4151894690      5.38e-07  Convergence criterion met
 Total energy in the final basis set =     -629.4151894690
        RIMP2         total energy =      -630.5943091657 a.u.

                    Orbital Energies (a.u.)
 --------------------------------------------------------------

 Alpha MOs
 -- Occupied --
-91.9779 -11.2795 -11.2547 -11.2477 -11.2292 -11.2274 -11.2173  -8.9777
 -6.6586  -6.6581  -6.6575  -1.1618  -1.0533  -0.9989  -0.9380  -0.8845
 -0.7425  -0.7221  -0.6465  -0.5900  -0.5752  -0.5707  -0.5568  -0.5423
 -0.5105  -0.4822  -0.4679  -0.4484  -0.3361  -0.2961

          Ground-State Mulliken Net Atomic Charges

     Atom                 Charge (a.u.)
  ----------------------------------------
      1 C                     0.039249
      2 C                    -0.263762
      3 C                     0.032985
      4 H                     0.174908
      5 C                    -0.261911
      6 S                    -0.000156
      7 C                    -0.271859
      8 H                     0.101378
      9 H                     0.107305
     10 H                     0.106775
     11 C                    -0.387824
     12 H                     0.140113
     13 H                     0.133476
     14 H                     0.156516
     15 H                     0.192807
  ----------------------------------------
  Sum of atomic charges =     0.000000

                    Cartesian Multipole Moments
 -----------------------------------------------------------------
    Charge (ESU x 10^10)
                -0.0000
    Dipole Moment (Debye)
         X       0.8969      Y      -0.3366      Z       1.9993
       Tot       2.2170
    Quadrupole Moments (Debye-Ang)
        XX     -53.2577     XY       1.7421     YY     -43.2970
        XZ      -0.2684     YZ      -0.6645     ZZ     -48.6728

 Total job time:  19.70s(wall), 771.65s(cpu)
        *  Thank you very much for using Q-Chem.  Have a nice day.  *
