 Q-Chem 5.4, Q-Chem, Inc., Pleasanton, CA (2021)
 Q-Chem 5.4.0 for Intel X86 EM64T Linux

User input:
--------------------------------------------------------------
$molecule
0 1
C	-0.111589	-0.566489	0.004064
C	0.032011	0.265811	1.117064
C	0.268911	1.636511	0.824664
H	-0.033989	-0.116589	2.146964
C	0.311411	1.881011	-0.559536
S	0.053311	0.390011	-1.460636
C	0.450311	2.685511	1.886464
H	0.373911	2.244111	2.899064
H	-0.317289	3.484011	1.812164
H	1.441411	3.179911	1.812264
C	-0.111589	-2.016589	0.004064
H	-1.046889	-2.017089	-0.535936
H	0.357711	-2.551689	-0.808236
H	-0.527889	-2.703789	0.725764
H	0.474511	2.825011	-1.093036
$end

$rem
JOBTYPE		SP
EXCHANGE	HF
CORRELATION	pRIMP2
BASIS		cc-pvtz
METHOD		rimp2
AUX_BASIS	rimp2-cc-pvtz
SOLVENT_METHOD	PCM
PURECART	11111
SYMMETRY	false
MEM_TOTAL	110000
SCF_CONVERGENCE = 6
THRESH=10
GUI = 2
$end

$solvent
dielectric 4.90
$end
--------------------------------------------------------------

             Standard Nuclear Orientation (Angstroms)
    I     Atom           X                Y                Z
 ----------------------------------------------------------------
    1      C      -0.1115890000    -0.5664890000     0.0040640000
    2      C       0.0320110000     0.2658110000     1.1170640000
    3      C       0.2689110000     1.6365110000     0.8246640000
    4      H      -0.0339890000    -0.1165890000     2.1469640000
    5      C       0.3114110000     1.8810110000    -0.5595360000
    6      S       0.0533110000     0.3900110000    -1.4606360000
    7      C       0.4503110000     2.6855110000     1.8864640000
    8      H       0.3739110000     2.2441110000     2.8990640000
    9      H      -0.3172890000     3.4840110000     1.8121640000
   10      H       1.4414110000     3.1799110000     1.8122640000
   11      C      -0.1115890000    -2.0165890000     0.0040640000
   12      H      -1.0468890000    -2.0170890000    -0.5359360000
   13      H       0.3577110000    -2.5516890000    -0.8082360000
   14      H      -0.5278890000    -2.7037890000     0.7257640000
   15      H       0.4745110000     2.8250110000    -1.0930360000
 ----------------------------------------------------------------

   10    -629.4213657942      6.29e-07  Convergence criterion met
 Total energy in the final basis set =     -629.4213657942
        RIMP2         total energy =      -630.5973645483 a.u.

                    Orbital Energies (a.u.)
 --------------------------------------------------------------

 Alpha MOs
 -- Occupied --
-91.9795 -11.2816 -11.2528 -11.2469 -11.2266 -11.2245 -11.2203  -8.9793
 -6.6603  -6.6598  -6.6592  -1.1601  -1.0540  -0.9960  -0.9437  -0.8832
 -0.7453  -0.7179  -0.6475  -0.5884  -0.5744  -0.5666  -0.5527  -0.5460
 -0.5083  -0.4924  -0.4644  -0.4543  -0.3386  -0.2926

          Ground-State Mulliken Net Atomic Charges

     Atom                 Charge (a.u.)
  ----------------------------------------
      1 C                     0.036733
      2 C                    -0.270275
      3 C                     0.035677
      4 H                     0.179641
      5 C                    -0.264342
      6 S                    -0.005581
      7 C                    -0.273649
      8 H                     0.101485
      9 H                     0.107095
     10 H                     0.107165
     11 C                    -0.376400
     12 H                     0.128792
     13 H                     0.137409
     14 H                     0.161197
     15 H                     0.195054
  ----------------------------------------
  Sum of atomic charges =     0.000000

                    Cartesian Multipole Moments
 -----------------------------------------------------------------
    Charge (ESU x 10^10)
                -0.0000
    Dipole Moment (Debye)
         X      -0.3947      Y      -0.4725      Z       1.0908
       Tot       1.2526
    Quadrupole Moments (Debye-Ang)
        XX     -53.8876     XY       2.8710     YY     -42.0307
        XZ      -0.2191     YZ       0.9568     ZZ     -48.6305

 Total job time:  19.45s(wall), 748.52s(cpu)
        *  Thank you very much for using Q-Chem.  Have a nice day.  *
