 Q-Chem 5.4, Q-Chem, Inc., Pleasanton, CA (2021)
 Q-Chem 5.4.0 for Intel X86 EM64T Linux

User input:
--------------------------------------------------------------
$molecule
0 1
C	-0.435957	-0.419059	0.005925
C	0.104543	0.229941	1.118925
C	0.995043	1.298441	0.826525
H	-0.143857	-0.068259	2.148825
C	1.154143	1.489041	-0.557675
S	0.185143	0.326841	-1.458775
C	1.676643	2.116341	1.888325
H	1.389843	1.772241	2.900925
H	1.411143	3.191641	1.814025
H	2.782243	2.048841	1.814125
C	-0.435957	-1.869159	0.005925
H	-0.248457	-1.869659	-1.057675
H	0.487943	-2.404259	0.169025
H	-1.256557	-2.556359	-0.138475
H	1.767343	2.225041	-1.091175
$end

$rem
JOBTYPE		SP
EXCHANGE	HF
CORRELATION	pRIMP2
BASIS		cc-pvtz
METHOD		rimp2
AUX_BASIS	rimp2-cc-pvtz
SOLVENT_METHOD	PCM
PURECART	11111
SYMMETRY	false
MEM_TOTAL	110000
SCF_CONVERGENCE = 6
THRESH=10
GUI = 2
$end

$solvent
dielectric 4.90
$end
--------------------------------------------------------------

             Standard Nuclear Orientation (Angstroms)
    I     Atom           X                Y                Z
 ----------------------------------------------------------------
    1      C      -0.4359570000    -0.4190590000     0.0059250000
    2      C       0.1045430000     0.2299410000     1.1189250000
    3      C       0.9950430000     1.2984410000     0.8265250000
    4      H      -0.1438570000    -0.0682590000     2.1488250000
    5      C       1.1541430000     1.4890410000    -0.5576750000
    6      S       0.1851430000     0.3268410000    -1.4587750000
    7      C       1.6766430000     2.1163410000     1.8883250000
    8      H       1.3898430000     1.7722410000     2.9009250000
    9      H       1.4111430000     3.1916410000     1.8140250000
   10      H       2.7822430000     2.0488410000     1.8141250000
   11      C      -0.4359570000    -1.8691590000     0.0059250000
   12      H      -0.2484570000    -1.8696590000    -1.0576750000
   13      H       0.4879430000    -2.4042590000     0.1690250000
   14      H      -1.2565570000    -2.5563590000    -0.1384750000
   15      H       1.7673430000     2.2250410000    -1.0911750000
 ----------------------------------------------------------------

   10    -629.3890805899      5.83e-07  Convergence criterion met
 Total energy in the final basis set =     -629.3890805899
        RIMP2         total energy =      -630.5733950060 a.u.

                    Orbital Energies (a.u.)
 --------------------------------------------------------------

 Alpha MOs
 -- Occupied --
-91.9769 -11.2683 -11.2623 -11.2474 -11.2384 -11.2278 -11.2118  -8.9775
 -6.6584  -6.6577  -6.6572  -1.1660  -1.0544  -0.9940  -0.9443  -0.8808
 -0.7508  -0.7219  -0.6443  -0.5902  -0.5778  -0.5661  -0.5515  -0.5467
 -0.5134  -0.4740  -0.4639  -0.4414  -0.3350  -0.3046

          Ground-State Mulliken Net Atomic Charges

     Atom                 Charge (a.u.)
  ----------------------------------------
      1 C                    -0.020397
      2 C                    -0.218261
      3 C                     0.032864
      4 H                     0.177820
      5 C                    -0.232903
      6 S                    -0.000906
      7 C                    -0.269930
      8 H                     0.102056
      9 H                     0.107115
     10 H                     0.105390
     11 C                    -0.364752
     12 H                     0.119435
     13 H                     0.132781
     14 H                     0.132860
     15 H                     0.196829
  ----------------------------------------
  Sum of atomic charges =     0.000000

                    Cartesian Multipole Moments
 -----------------------------------------------------------------
    Charge (ESU x 10^10)
                -0.0000
    Dipole Moment (Debye)
         X       1.4490      Y       0.1947      Z       1.0231
       Tot       1.7844
    Quadrupole Moments (Debye-Ang)
        XX     -50.5609     XY       4.3158     YY     -46.4707
        XZ       0.3394     YZ       1.3470     ZZ     -48.4534

 Total job time:  15.90s(wall), 753.59s(cpu)
        *  Thank you very much for using Q-Chem.  Have a nice day.  *
