 Q-Chem 5.4, Q-Chem, Inc., Pleasanton, CA (2021)
 Q-Chem 5.4.0 for Intel X86 EM64T Linux

User input:
--------------------------------------------------------------
$molecule
0 1
C	-0.115175	-0.566489	0.006088
C	0.028425	0.265811	1.119088
C	0.265325	1.636511	0.826688
H	-0.037575	-0.116589	2.148988
C	0.307825	1.881011	-0.557512
S	0.049725	0.390011	-1.458612
C	0.446725	2.685511	1.888488
H	0.370325	2.244111	2.901088
H	-0.320875	3.484011	1.814188
H	1.437825	3.179911	1.814288
C	-0.115175	-2.016589	0.006088
H	-0.302775	-2.017089	-1.057512
H	0.808725	-2.551689	-0.156612
H	-0.935675	-2.703789	0.151088
H	0.470925	2.825011	-1.091012
$end

$rem
JOBTYPE		SP
EXCHANGE	HF
CORRELATION	pRIMP2
BASIS		cc-pvtz
METHOD		rimp2
AUX_BASIS	rimp2-cc-pvtz
SOLVENT_METHOD	PCM
PURECART	11111
SYMMETRY	false
MEM_TOTAL	110000
SCF_CONVERGENCE = 6
THRESH=10
GUI = 2
$end

$solvent
dielectric 4.90
$end
--------------------------------------------------------------

             Standard Nuclear Orientation (Angstroms)
    I     Atom           X                Y                Z
 ----------------------------------------------------------------
    1      C      -0.1151750000    -0.5664890000     0.0060880000
    2      C       0.0284250000     0.2658110000     1.1190880000
    3      C       0.2653250000     1.6365110000     0.8266880000
    4      H      -0.0375750000    -0.1165890000     2.1489880000
    5      C       0.3078250000     1.8810110000    -0.5575120000
    6      S       0.0497250000     0.3900110000    -1.4586120000
    7      C       0.4467250000     2.6855110000     1.8884880000
    8      H       0.3703250000     2.2441110000     2.9010880000
    9      H      -0.3208750000     3.4840110000     1.8141880000
   10      H       1.4378250000     3.1799110000     1.8142880000
   11      C      -0.1151750000    -2.0165890000     0.0060880000
   12      H      -0.3027750000    -2.0170890000    -1.0575120000
   13      H       0.8087250000    -2.5516890000    -0.1566120000
   14      H      -0.9356750000    -2.7037890000     0.1510880000
   15      H       0.4709250000     2.8250110000    -1.0910120000
 ----------------------------------------------------------------

   10    -629.4202748669      5.32e-07  Convergence criterion met
 Total energy in the final basis set =     -629.4202748669
        RIMP2         total energy =      -630.5981051323 a.u.

                    Orbital Energies (a.u.)
 --------------------------------------------------------------

 Alpha MOs
 -- Occupied --
-91.9812 -11.2746 -11.2587 -11.2472 -11.2288 -11.2270 -11.2168  -8.9809
 -6.6618  -6.6613  -6.6607  -1.1608  -1.0534  -0.9951  -0.9456  -0.8828
 -0.7477  -0.7183  -0.6470  -0.5910  -0.5752  -0.5658  -0.5537  -0.5463
 -0.5088  -0.4860  -0.4650  -0.4448  -0.3380  -0.3044

          Ground-State Mulliken Net Atomic Charges

     Atom                 Charge (a.u.)
  ----------------------------------------
      1 C                     0.043412
      2 C                    -0.259368
      3 C                     0.039074
      4 H                     0.179081
      5 C                    -0.258064
      6 S                    -0.001940
      7 C                    -0.273035
      8 H                     0.102027
      9 H                     0.106821
     10 H                     0.106867
     11 C                    -0.365895
     12 H                     0.111485
     13 H                     0.125059
     14 H                     0.148617
     15 H                     0.195858
  ----------------------------------------
  Sum of atomic charges =     0.000000

                    Cartesian Multipole Moments
 -----------------------------------------------------------------
    Charge (ESU x 10^10)
                -0.0000
    Dipole Moment (Debye)
         X       0.1664      Y       0.0308      Z       0.8787
       Tot       0.8948
    Quadrupole Moments (Debye-Ang)
        XX     -53.4449     XY       1.8548     YY     -42.3814
        XZ       0.0003     YZ       1.5164     ZZ     -48.8500

 Total job time:  15.77s(wall), 735.91s(cpu)
        *  Thank you very much for using Q-Chem.  Have a nice day.  *
