 Q-Chem 5.4, Q-Chem, Inc., Pleasanton, CA (2021)
 Q-Chem 5.4.0 for Intel X86 EM64T Linux

User input:
--------------------------------------------------------------
$molecule
0 1
C	0.001182	-0.576386	-0.003488
C	-0.001918	0.268214	1.109512
C	-0.006618	1.659214	0.817112
H	-0.000518	-0.119886	2.139412
C	-0.007218	1.907314	-0.567088
S	-0.002518	0.394214	-1.468188
C	-0.010218	2.723814	1.878912
H	-0.008718	2.275814	2.891512
H	-0.904718	3.376814	1.804612
H	0.880082	3.382714	1.804712
C	0.001182	-2.026486	-0.003488
H	0.370582	-2.026986	1.011412
H	-0.880418	-2.561586	0.317212
H	0.783982	-2.713686	-0.288788
H	-0.010518	2.865414	-1.100588
$end

$rem
JOBTYPE		SP
EXCHANGE	HF
CORRELATION	pRIMP2
BASIS		cc-pvtz
METHOD		rimp2
AUX_BASIS	rimp2-cc-pvtz
SOLVENT_METHOD	PCM
PURECART	11111
SYMMETRY	false
MEM_TOTAL	110000
SCF_CONVERGENCE = 6
THRESH=10
GUI = 2
$end

$solvent
dielectric 4.90
$end
--------------------------------------------------------------

             Standard Nuclear Orientation (Angstroms)
    I     Atom           X                Y                Z
 ----------------------------------------------------------------
    1      C       0.0011820000    -0.5763860000    -0.0034880000
    2      C      -0.0019180000     0.2682140000     1.1095120000
    3      C      -0.0066180000     1.6592140000     0.8171120000
    4      H      -0.0005180000    -0.1198860000     2.1394120000
    5      C      -0.0072180000     1.9073140000    -0.5670880000
    6      S      -0.0025180000     0.3942140000    -1.4681880000
    7      C      -0.0102180000     2.7238140000     1.8789120000
    8      H      -0.0087180000     2.2758140000     2.8915120000
    9      H      -0.9047180000     3.3768140000     1.8046120000
   10      H       0.8800820000     3.3827140000     1.8047120000
   11      C       0.0011820000    -2.0264860000    -0.0034880000
   12      H       0.3705820000    -2.0269860000     1.0114120000
   13      H      -0.8804180000    -2.5615860000     0.3172120000
   14      H       0.7839820000    -2.7136860000    -0.2887880000
   15      H      -0.0105180000     2.8654140000    -1.1005880000
 ----------------------------------------------------------------

   10    -629.4259667534      5.02e-07  Convergence criterion met
 Total energy in the final basis set =     -629.4259667534
        RIMP2         total energy =      -630.6034290787 a.u.

                    Orbital Energies (a.u.)
 --------------------------------------------------------------

 Alpha MOs
 -- Occupied --
-91.9759 -11.2791 -11.2565 -11.2473 -11.2324 -11.2275 -11.2178  -8.9759
 -6.6568  -6.6563  -6.6557  -1.1607  -1.0527  -0.9995  -0.9389  -0.8854
 -0.7422  -0.7230  -0.6476  -0.5913  -0.5772  -0.5670  -0.5590  -0.5414
 -0.5098  -0.4866  -0.4676  -0.4409  -0.3374  -0.3028

          Ground-State Mulliken Net Atomic Charges

     Atom                 Charge (a.u.)
  ----------------------------------------
      1 C                     0.060364
      2 C                    -0.266263
      3 C                     0.029528
      4 H                     0.176259
      5 C                    -0.254107
      6 S                    -0.006898
      7 C                    -0.273857
      8 H                     0.101290
      9 H                     0.107385
     10 H                     0.107187
     11 C                    -0.375398
     12 H                     0.123649
     13 H                     0.127447
     14 H                     0.149955
     15 H                     0.193458
  ----------------------------------------
  Sum of atomic charges =     0.000000

                    Cartesian Multipole Moments
 -----------------------------------------------------------------
    Charge (ESU x 10^10)
                -0.0000
    Dipole Moment (Debye)
         X       0.2091      Y      -0.1646      Z       2.1249
       Tot       2.1414
    Quadrupole Moments (Debye-Ang)
        XX     -53.7610     XY      -0.6650     YY     -42.0839
        XZ      -0.2113     YZ      -0.9041     ZZ     -48.9429

 Total job time:  15.70s(wall), 759.03s(cpu)
        *  Thank you very much for using Q-Chem.  Have a nice day.  *
