 Q-Chem 5.4, Q-Chem, Inc., Pleasanton, CA (2021)
 Q-Chem 5.4.0 for Intel X86 EM64T Linux

User input:
--------------------------------------------------------------
$molecule
0 1
C	-0.513790	-0.335659	0.000852
C	0.131210	0.209641	1.113852
C	1.193810	1.107341	0.821452
H	-0.165190	-0.040859	2.143752
C	1.383410	1.267341	-0.562748
S	0.227410	0.291041	-1.463848
C	2.007010	1.794341	1.883252
H	1.664810	1.505341	2.895852
H	1.932210	2.899441	1.808952
H	3.084010	1.535941	1.809052
C	-0.513790	-1.785759	0.000852
H	-1.577390	-1.786259	0.188452
H	-0.676490	-2.320859	-0.923048
H	-0.368790	-2.472959	0.821352
H	2.115210	1.885641	-1.096248
$end

$rem
JOBTYPE		SP
EXCHANGE	HF
CORRELATION	pRIMP2
BASIS		cc-pvtz
METHOD		rimp2
AUX_BASIS	rimp2-cc-pvtz
SOLVENT_METHOD	PCM
PURECART	11111
SYMMETRY	false
MEM_TOTAL	110000
SCF_CONVERGENCE = 6
THRESH=10
GUI = 2
$end

$solvent
dielectric 4.90
$end
--------------------------------------------------------------

             Standard Nuclear Orientation (Angstroms)
    I     Atom           X                Y                Z
 ----------------------------------------------------------------
    1      C      -0.5137900000    -0.3356590000     0.0008520000
    2      C       0.1312100000     0.2096410000     1.1138520000
    3      C       1.1938100000     1.1073410000     0.8214520000
    4      H      -0.1651900000    -0.0408590000     2.1437520000
    5      C       1.3834100000     1.2673410000    -0.5627480000
    6      S       0.2274100000     0.2910410000    -1.4638480000
    7      C       2.0070100000     1.7943410000     1.8832520000
    8      H       1.6648100000     1.5053410000     2.8958520000
    9      H       1.9322100000     2.8994410000     1.8089520000
   10      H       3.0840100000     1.5359410000     1.8090520000
   11      C      -0.5137900000    -1.7857590000     0.0008520000
   12      H      -1.5773900000    -1.7862590000     0.1884520000
   13      H      -0.6764900000    -2.3208590000    -0.9230480000
   14      H      -0.3687900000    -2.4729590000     0.8213520000
   15      H       2.1152100000     1.8856410000    -1.0962480000
 ----------------------------------------------------------------

   11    -629.3638312302      4.10e-07  Convergence criterion met
 Total energy in the final basis set =     -629.3638312302
        RIMP2         total energy =      -630.5530995511 a.u.

                    Orbital Energies (a.u.)
 --------------------------------------------------------------

 Alpha MOs
 -- Occupied --
-91.9731 -11.2700 -11.2561 -11.2482 -11.2422 -11.2279 -11.2088  -8.9738
 -6.6547  -6.6538  -6.6535  -1.1663  -1.0525  -0.9962  -0.9394  -0.8831
 -0.7471  -0.7254  -0.6430  -0.5847  -0.5765  -0.5644  -0.5543  -0.5421
 -0.5158  -0.4937  -0.4580  -0.4309  -0.3358  -0.2862

          Ground-State Mulliken Net Atomic Charges

     Atom                 Charge (a.u.)
  ----------------------------------------
      1 C                    -0.051761
      2 C                    -0.194907
      3 C                     0.014319
      4 H                     0.179162
      5 C                    -0.217858
      6 S                     0.008263
      7 C                    -0.269239
      8 H                     0.101634
      9 H                     0.106948
     10 H                     0.105260
     11 C                    -0.389944
     12 H                     0.126882
     13 H                     0.134948
     14 H                     0.152033
     15 H                     0.194260
  ----------------------------------------
  Sum of atomic charges =     0.000000

                    Cartesian Multipole Moments
 -----------------------------------------------------------------
    Charge (ESU x 10^10)
                -0.0000
    Dipole Moment (Debye)
         X       1.0320      Y      -0.0443      Z       1.7929
       Tot       2.0692
    Quadrupole Moments (Debye-Ang)
        XX     -49.1309     XY       5.7538     YY     -48.1710
        XZ       0.0323     YZ      -0.1360     ZZ     -47.9162

 Total job time:  16.90s(wall), 820.65s(cpu)
        *  Thank you very much for using Q-Chem.  Have a nice day.  *
