 Q-Chem 5.4, Q-Chem, Inc., Pleasanton, CA (2021)
 Q-Chem 5.4.0 for Intel X86 EM64T Linux

User input:
--------------------------------------------------------------
$molecule
0 1
C	0.005876	-0.576386	-0.002181
C	0.002776	0.268214	1.110819
C	-0.001924	1.659214	0.818419
H	0.004176	-0.119886	2.140719
C	-0.002524	1.907314	-0.565781
S	0.002176	0.394214	-1.466881
C	-0.005524	2.723814	1.880219
H	-0.004024	2.275814	2.892819
H	-0.900024	3.376814	1.805919
H	0.884776	3.382714	1.806019
C	0.005876	-2.026486	-0.002181
H	-0.688324	-2.026986	0.825119
H	-0.712624	-2.561586	-0.605381
H	0.644376	-2.713686	0.533119
H	-0.005824	2.865414	-1.099281
$end

$rem
JOBTYPE		SP
EXCHANGE	HF
CORRELATION	pRIMP2
BASIS		cc-pvtz
METHOD		rimp2
AUX_BASIS	rimp2-cc-pvtz
SOLVENT_METHOD	PCM
PURECART	11111
SYMMETRY	false
MEM_TOTAL	110000
SCF_CONVERGENCE = 6
THRESH=10
GUI = 2
$end

$solvent
dielectric 4.90
$end
--------------------------------------------------------------

             Standard Nuclear Orientation (Angstroms)
    I     Atom           X                Y                Z
 ----------------------------------------------------------------
    1      C       0.0058760000    -0.5763860000    -0.0021810000
    2      C       0.0027760000     0.2682140000     1.1108190000
    3      C      -0.0019240000     1.6592140000     0.8184190000
    4      H       0.0041760000    -0.1198860000     2.1407190000
    5      C      -0.0025240000     1.9073140000    -0.5657810000
    6      S       0.0021760000     0.3942140000    -1.4668810000
    7      C      -0.0055240000     2.7238140000     1.8802190000
    8      H      -0.0040240000     2.2758140000     2.8928190000
    9      H      -0.9000240000     3.3768140000     1.8059190000
   10      H       0.8847760000     3.3827140000     1.8060190000
   11      C       0.0058760000    -2.0264860000    -0.0021810000
   12      H      -0.6883240000    -2.0269860000     0.8251190000
   13      H      -0.7126240000    -2.5615860000    -0.6053810000
   14      H       0.6443760000    -2.7136860000     0.5331190000
   15      H      -0.0058240000     2.8654140000    -1.0992810000
 ----------------------------------------------------------------

   10    -629.4252328267      5.45e-07  Convergence criterion met
 Total energy in the final basis set =     -629.4252328267
        RIMP2         total energy =      -630.6022134000 a.u.

                    Orbital Energies (a.u.)
 --------------------------------------------------------------

 Alpha MOs
 -- Occupied --
-91.9776 -11.2811 -11.2538 -11.2474 -11.2286 -11.2272 -11.2190  -8.9774
 -6.6583  -6.6578  -6.6572  -1.1603  -1.0530  -0.9988  -0.9395  -0.8849
 -0.7424  -0.7214  -0.6484  -0.5893  -0.5749  -0.5657  -0.5597  -0.5424
 -0.5088  -0.4894  -0.4669  -0.4472  -0.3371  -0.2977

          Ground-State Mulliken Net Atomic Charges

     Atom                 Charge (a.u.)
  ----------------------------------------
      1 C                     0.060885
      2 C                    -0.273444
      3 C                     0.033680
      4 H                     0.176154
      5 C                    -0.262594
      6 S                    -0.004857
      7 C                    -0.274645
      8 H                     0.101361
      9 H                     0.107186
     10 H                     0.107321
     11 C                    -0.380253
     12 H                     0.131167
     13 H                     0.137954
     14 H                     0.146746
     15 H                     0.193339
  ----------------------------------------
  Sum of atomic charges =     0.000000

                    Cartesian Multipole Moments
 -----------------------------------------------------------------
    Charge (ESU x 10^10)
                -0.0000
    Dipole Moment (Debye)
         X      -0.4581      Y      -0.3430      Z       1.9802
       Tot       2.0612
    Quadrupole Moments (Debye-Ang)
        XX     -53.9834     XY       0.9350     YY     -42.0414
        XZ       0.3103     YZ      -0.7802     ZZ     -48.7639

 Total job time:  16.41s(wall), 770.32s(cpu)
        *  Thank you very much for using Q-Chem.  Have a nice day.  *
