 Q-Chem 5.4, Q-Chem, Inc., Pleasanton, CA (2021)
 Q-Chem 5.4.0 for Intel X86 EM64T Linux

User input:
--------------------------------------------------------------
$molecule
0 1
C	-0.335437	-0.486609	0.005666
C	0.084163	0.246391	1.118666
C	0.775663	1.453391	0.826266
H	-0.108737	-0.090409	2.148566
C	0.899163	1.668591	-0.557934
S	0.146663	0.355791	-1.459034
C	1.304863	2.377091	1.888066
H	1.082063	1.988491	2.900666
H	0.856563	3.389991	1.813766
H	2.405263	2.502691	1.813866
C	-0.335437	-1.936709	0.005666
H	-0.875437	-1.937209	-0.929634
H	0.477163	-2.471809	-0.463234
H	-1.056837	-2.623909	0.422566
H	1.375263	2.499891	-1.091434
$end

$rem
JOBTYPE		SP
EXCHANGE	HF
CORRELATION	pRIMP2
BASIS		cc-pvtz
METHOD		rimp2
AUX_BASIS	rimp2-cc-pvtz
SOLVENT_METHOD	PCM
PURECART	11111
SYMMETRY	false
MEM_TOTAL	110000
SCF_CONVERGENCE = 6
THRESH=10
GUI = 2
$end

$solvent
dielectric 4.90
$end
--------------------------------------------------------------

             Standard Nuclear Orientation (Angstroms)
    I     Atom           X                Y                Z
 ----------------------------------------------------------------
    1      C      -0.3354370000    -0.4866090000     0.0056660000
    2      C       0.0841630000     0.2463910000     1.1186660000
    3      C       0.7756630000     1.4533910000     0.8262660000
    4      H      -0.1087370000    -0.0904090000     2.1485660000
    5      C       0.8991630000     1.6685910000    -0.5579340000
    6      S       0.1466630000     0.3557910000    -1.4590340000
    7      C       1.3048630000     2.3770910000     1.8880660000
    8      H       1.0820630000     1.9884910000     2.9006660000
    9      H       0.8565630000     3.3899910000     1.8137660000
   10      H       2.4052630000     2.5026910000     1.8138660000
   11      C      -0.3354370000    -1.9367090000     0.0056660000
   12      H      -0.8754370000    -1.9372090000    -0.9296340000
   13      H       0.4771630000    -2.4718090000    -0.4632340000
   14      H      -1.0568370000    -2.6239090000     0.4225660000
   15      H       1.3752630000     2.4998910000    -1.0914340000
 ----------------------------------------------------------------

   10    -629.4042257239      5.23e-07  Convergence criterion met
 Total energy in the final basis set =     -629.4042257239
        RIMP2         total energy =      -630.5853288189 a.u.

                    Orbital Energies (a.u.)
 --------------------------------------------------------------

 Alpha MOs
 -- Occupied --
-91.9799 -11.2687 -11.2630 -11.2475 -11.2321 -11.2272 -11.2146  -8.9798
 -6.6607  -6.6602  -6.6596  -1.1626  -1.0531  -0.9948  -0.9446  -0.8825
 -0.7482  -0.7200  -0.6450  -0.5904  -0.5751  -0.5672  -0.5526  -0.5456
 -0.5117  -0.4806  -0.4627  -0.4460  -0.3375  -0.3006

          Ground-State Mulliken Net Atomic Charges

     Atom                 Charge (a.u.)
  ----------------------------------------
      1 C                    -0.009920
      2 C                    -0.228487
      3 C                     0.030221
      4 H                     0.178525
      5 C                    -0.241599
      6 S                     0.001030
      7 C                    -0.271242
      8 H                     0.101958
      9 H                     0.106864
     10 H                     0.106105
     11 C                    -0.364866
     12 H                     0.111807
     13 H                     0.133995
     14 H                     0.150096
     15 H                     0.195514
  ----------------------------------------
  Sum of atomic charges =     0.000000

                    Cartesian Multipole Moments
 -----------------------------------------------------------------
    Charge (ESU x 10^10)
                -0.0000
    Dipole Moment (Debye)
         X       0.5830      Y       0.0879      Z       1.0363
       Tot       1.1923
    Quadrupole Moments (Debye-Ang)
        XX     -51.6606     XY       4.6942     YY     -44.5463
        XZ      -0.0940     YZ       1.0967     ZZ     -48.6404

 Total job time:  18.69s(wall), 734.24s(cpu)
        *  Thank you very much for using Q-Chem.  Have a nice day.  *
