 Q-Chem 5.4, Q-Chem, Inc., Pleasanton, CA (2021)
 Q-Chem 5.4.0 for Intel X86 EM64T Linux

User input:
--------------------------------------------------------------
$molecule
0 1
C	-0.227170	-0.536244	-0.002733
C	0.058830	0.258456	1.110267
C	0.530130	1.567156	0.817867
H	-0.072670	-0.106644	2.140167
C	0.614430	1.800556	-0.566333
S	0.101330	0.377056	-1.467433
C	0.890930	2.568756	1.879667
H	0.739030	2.147356	2.892267
H	0.273630	3.488456	1.805367
H	1.952830	2.883556	1.805467
C	-0.227170	-1.986344	-0.002733
H	-0.767170	-1.986844	0.932567
H	-1.039470	-2.521444	-0.472033
H	0.494530	-2.673544	0.413567
H	0.938930	2.701956	-1.099833
$end

$rem
JOBTYPE		SP
EXCHANGE	HF
CORRELATION	pRIMP2
BASIS		cc-pvtz
METHOD		rimp2
AUX_BASIS	rimp2-cc-pvtz
SOLVENT_METHOD	PCM
PURECART	11111
SYMMETRY	false
MEM_TOTAL	110000
SCF_CONVERGENCE = 6
THRESH=10
GUI = 2
$end

$solvent
dielectric 4.90
$end
--------------------------------------------------------------

             Standard Nuclear Orientation (Angstroms)
    I     Atom           X                Y                Z
 ----------------------------------------------------------------
    1      C      -0.2271700000    -0.5362440000    -0.0027330000
    2      C       0.0588300000     0.2584560000     1.1102670000
    3      C       0.5301300000     1.5671560000     0.8178670000
    4      H      -0.0726700000    -0.1066440000     2.1401670000
    5      C       0.6144300000     1.8005560000    -0.5663330000
    6      S       0.1013300000     0.3770560000    -1.4674330000
    7      C       0.8909300000     2.5687560000     1.8796670000
    8      H       0.7390300000     2.1473560000     2.8922670000
    9      H       0.2736300000     3.4884560000     1.8053670000
   10      H       1.9528300000     2.8835560000     1.8054670000
   11      C      -0.2271700000    -1.9863440000    -0.0027330000
   12      H      -0.7671700000    -1.9868440000     0.9325670000
   13      H      -1.0394700000    -2.5214440000    -0.4720330000
   14      H       0.4945300000    -2.6735440000     0.4135670000
   15      H       0.9389300000     2.7019560000    -1.0998330000
 ----------------------------------------------------------------

   10    -629.4179580183      5.09e-07  Convergence criterion met
 Total energy in the final basis set =     -629.4179580183
        RIMP2         total energy =      -630.5973238251 a.u.

                    Orbital Energies (a.u.)
 --------------------------------------------------------------

 Alpha MOs
 -- Occupied --
-91.9752 -11.2749 -11.2593 -11.2476 -11.2343 -11.2277 -11.2166  -8.9754
 -6.6563  -6.6557  -6.6552  -1.1614  -1.0523  -0.9990  -0.9391  -0.8853
 -0.7429  -0.7233  -0.6476  -0.5881  -0.5774  -0.5661  -0.5588  -0.5417
 -0.5117  -0.4867  -0.4650  -0.4401  -0.3375  -0.3014

          Ground-State Mulliken Net Atomic Charges

     Atom                 Charge (a.u.)
  ----------------------------------------
      1 C                     0.030867
      2 C                    -0.267202
      3 C                     0.036594
      4 H                     0.177561
      5 C                    -0.250463
      6 S                    -0.003687
      7 C                    -0.272113
      8 H                     0.101415
      9 H                     0.106956
     10 H                     0.107182
     11 C                    -0.363990
     12 H                     0.121209
     13 H                     0.134784
     14 H                     0.147165
     15 H                     0.193723
  ----------------------------------------
  Sum of atomic charges =     0.000000

                    Cartesian Multipole Moments
 -----------------------------------------------------------------
    Charge (ESU x 10^10)
                -0.0000
    Dipole Moment (Debye)
         X       0.1950      Y      -0.0676      Z       2.1056
       Tot       2.1157
    Quadrupole Moments (Debye-Ang)
        XX     -52.7567     XY       3.5368     YY     -43.2396
        XZ       0.2610     YZ      -0.9316     ZZ     -48.8061

 Total job time:  19.05s(wall), 756.64s(cpu)
        *  Thank you very much for using Q-Chem.  Have a nice day.  *
