 Q-Chem 5.4, Q-Chem, Inc., Pleasanton, CA (2021)
 Q-Chem 5.4.0 for Intel X86 EM64T Linux

User input:
--------------------------------------------------------------
$molecule
0 1
C	-0.434179	-0.419059	-0.003619
C	0.106321	0.229941	1.109381
C	0.996821	1.298441	0.816981
H	-0.142079	-0.068259	2.139281
C	1.155921	1.489041	-0.567219
S	0.186921	0.326841	-1.468319
C	1.678421	2.116341	1.878781
H	1.391621	1.772241	2.891381
H	1.412921	3.191641	1.804481
H	2.784021	2.048841	1.804581
C	-0.434179	-1.869159	-0.003619
H	-0.434179	-1.869659	1.076381
H	-1.372279	-2.404259	-0.003819
H	0.399021	-2.556359	-0.003919
H	1.769121	2.225041	-1.100719
$end

$rem
JOBTYPE		SP
EXCHANGE	HF
CORRELATION	pRIMP2
BASIS		cc-pvtz
METHOD		rimp2
AUX_BASIS	rimp2-cc-pvtz
SOLVENT_METHOD	PCM
PURECART	11111
SYMMETRY	false
MEM_TOTAL	110000
SCF_CONVERGENCE = 6
THRESH=10
GUI = 2
$end

$solvent
dielectric 4.90
$end
--------------------------------------------------------------

             Standard Nuclear Orientation (Angstroms)
    I     Atom           X                Y                Z
 ----------------------------------------------------------------
    1      C      -0.4341790000    -0.4190590000    -0.0036190000
    2      C       0.1063210000     0.2299410000     1.1093810000
    3      C       0.9968210000     1.2984410000     0.8169810000
    4      H      -0.1420790000    -0.0682590000     2.1392810000
    5      C       1.1559210000     1.4890410000    -0.5672190000
    6      S       0.1869210000     0.3268410000    -1.4683190000
    7      C       1.6784210000     2.1163410000     1.8787810000
    8      H       1.3916210000     1.7722410000     2.8913810000
    9      H       1.4129210000     3.1916410000     1.8044810000
   10      H       2.7840210000     2.0488410000     1.8045810000
   11      C      -0.4341790000    -1.8691590000    -0.0036190000
   12      H      -0.4341790000    -1.8696590000     1.0763810000
   13      H      -1.3722790000    -2.4042590000    -0.0038190000
   14      H       0.3990210000    -2.5563590000    -0.0039190000
   15      H       1.7691210000     2.2250410000    -1.1007190000
 ----------------------------------------------------------------

   10    -629.3918697501      6.45e-07  Convergence criterion met
 Total energy in the final basis set =     -629.3918697501
        RIMP2         total energy =      -630.5767048765 a.u.

                    Orbital Energies (a.u.)
 --------------------------------------------------------------

 Alpha MOs
 -- Occupied --
-91.9740 -11.2691 -11.2625 -11.2481 -11.2426 -11.2285 -11.2114  -8.9744
 -6.6553  -6.6546  -6.6542  -1.1659  -1.0527  -0.9998  -0.9360  -0.8849
 -0.7443  -0.7284  -0.6449  -0.5874  -0.5815  -0.5699  -0.5550  -0.5411
 -0.5162  -0.4722  -0.4657  -0.4331  -0.3353  -0.3062

          Ground-State Mulliken Net Atomic Charges

     Atom                 Charge (a.u.)
  ----------------------------------------
      1 C                    -0.028583
      2 C                    -0.212375
      3 C                     0.021753
      4 H                     0.176005
      5 C                    -0.223881
      6 S                     0.001004
      7 C                    -0.268962
      8 H                     0.101470
      9 H                     0.106994
     10 H                     0.106094
     11 C                    -0.351975
     12 H                     0.113339
     13 H                     0.114651
     14 H                     0.149539
     15 H                     0.194928
  ----------------------------------------
  Sum of atomic charges =     0.000000

                    Cartesian Multipole Moments
 -----------------------------------------------------------------
    Charge (ESU x 10^10)
                -0.0000
    Dipole Moment (Debye)
         X       1.3554      Y       0.2393      Z       2.2655
       Tot       2.6508
    Quadrupole Moments (Debye-Ang)
        XX     -50.4024     XY       4.2849     YY     -46.4734
        XZ      -0.2336     YZ      -1.0462     ZZ     -48.6443

 Total job time:  15.65s(wall), 758.46s(cpu)
        *  Thank you very much for using Q-Chem.  Have a nice day.  *
