 Q-Chem 5.4, Q-Chem, Inc., Pleasanton, CA (2021)
 Q-Chem 5.4.0 for Intel X86 EM64T Linux

User input:
--------------------------------------------------------------
$molecule
0 1
C	-0.338669	-0.486609	-0.003488
C	0.080931	0.246391	1.109512
C	0.772431	1.453391	0.817112
H	-0.111969	-0.090409	2.139412
C	0.895931	1.668591	-0.567088
S	0.143431	0.355791	-1.468188
C	1.301631	2.377091	1.878912
H	1.078831	1.988491	2.891512
H	0.853331	3.389991	1.804612
H	2.402031	2.502691	1.804712
C	-0.338669	-1.936709	-0.003488
H	0.030731	-1.937209	1.011412
H	-1.220269	-2.471809	0.317212
H	0.444131	-2.623909	-0.288788
H	1.372031	2.499891	-1.100588
$end

$rem
JOBTYPE		SP
EXCHANGE	HF
CORRELATION	pRIMP2
BASIS		cc-pvtz
METHOD		rimp2
AUX_BASIS	rimp2-cc-pvtz
SOLVENT_METHOD	PCM
PURECART	11111
SYMMETRY	false
MEM_TOTAL	110000
SCF_CONVERGENCE = 6
THRESH=10
GUI = 2
$end

$solvent
dielectric 4.90
$end
--------------------------------------------------------------

             Standard Nuclear Orientation (Angstroms)
    I     Atom           X                Y                Z
 ----------------------------------------------------------------
    1      C      -0.3386690000    -0.4866090000    -0.0034880000
    2      C       0.0809310000     0.2463910000     1.1095120000
    3      C       0.7724310000     1.4533910000     0.8171120000
    4      H      -0.1119690000    -0.0904090000     2.1394120000
    5      C       0.8959310000     1.6685910000    -0.5670880000
    6      S       0.1434310000     0.3557910000    -1.4681880000
    7      C       1.3016310000     2.3770910000     1.8789120000
    8      H       1.0788310000     1.9884910000     2.8915120000
    9      H       0.8533310000     3.3899910000     1.8046120000
   10      H       2.4020310000     2.5026910000     1.8047120000
   11      C      -0.3386690000    -1.9367090000    -0.0034880000
   12      H       0.0307310000    -1.9372090000     1.0114120000
   13      H      -1.2202690000    -2.4718090000     0.3172120000
   14      H       0.4441310000    -2.6239090000    -0.2887880000
   15      H       1.3720310000     2.4998910000    -1.1005880000
 ----------------------------------------------------------------

   10    -629.4041481294      5.15e-07  Convergence criterion met
 Total energy in the final basis set =     -629.4041481294
        RIMP2         total energy =      -630.5862549693 a.u.

                    Orbital Energies (a.u.)
 --------------------------------------------------------------

 Alpha MOs
 -- Occupied --
-91.9761 -11.2715 -11.2615 -11.2477 -11.2359 -11.2279 -11.2135  -8.9762
 -6.6571  -6.6565  -6.6560  -1.1636  -1.0526  -0.9994  -0.9368  -0.8847
 -0.7431  -0.7255  -0.6456  -0.5890  -0.5784  -0.5703  -0.5560  -0.5414
 -0.5133  -0.4746  -0.4685  -0.4410  -0.3352  -0.3019

          Ground-State Mulliken Net Atomic Charges

     Atom                 Charge (a.u.)
  ----------------------------------------
      1 C                     0.013109
      2 C                    -0.245888
      3 C                     0.028923
      4 H                     0.174973
      5 C                    -0.243262
      6 S                     0.000149
      7 C                    -0.270612
      8 H                     0.101386
      9 H                     0.107127
     10 H                     0.106445
     11 C                    -0.372052
     12 H                     0.129316
     13 H                     0.122594
     14 H                     0.154477
     15 H                     0.193314
  ----------------------------------------
  Sum of atomic charges =     0.000000

                    Cartesian Multipole Moments
 -----------------------------------------------------------------
    Charge (ESU x 10^10)
                -0.0000
    Dipole Moment (Debye)
         X       1.0730      Y       0.0043      Z       2.1671
       Tot       2.4182
    Quadrupole Moments (Debye-Ang)
        XX     -51.9481     XY       3.1838     YY     -44.8000
        XZ      -0.2875     YZ      -0.9410     ZZ     -48.6947

 Total job time:  16.11s(wall), 765.81s(cpu)
        *  Thank you very much for using Q-Chem.  Have a nice day.  *
