 Q-Chem 5.4, Q-Chem, Inc., Pleasanton, CA (2021)
 Q-Chem 5.4.0 for Intel X86 EM64T Linux

User input:
--------------------------------------------------------------
$molecule
0 1
C	-0.340931	-0.486609	0.004642
C	0.078669	0.246391	1.117642
C	0.770169	1.453391	0.825242
H	-0.114231	-0.090409	2.147542
C	0.893669	1.668591	-0.558958
S	0.141169	0.355791	-1.460058
C	1.299369	2.377091	1.887042
H	1.076569	1.988491	2.899642
H	0.851069	3.389991	1.812742
H	2.399769	2.502691	1.812842
C	-0.340931	-1.936709	0.004642
H	0.353269	-1.937209	-0.822658
H	0.377569	-2.471809	0.607842
H	-0.979431	-2.623909	-0.530658
H	1.369769	2.499891	-1.092458
$end

$rem
JOBTYPE		SP
EXCHANGE	HF
CORRELATION	pRIMP2
BASIS		cc-pvtz
METHOD		rimp2
AUX_BASIS	rimp2-cc-pvtz
SOLVENT_METHOD	PCM
PURECART	11111
SYMMETRY	false
MEM_TOTAL	110000
SCF_CONVERGENCE = 6
THRESH=10
GUI = 2
$end

$solvent
dielectric 4.90
$end
--------------------------------------------------------------

             Standard Nuclear Orientation (Angstroms)
    I     Atom           X                Y                Z
 ----------------------------------------------------------------
    1      C      -0.3409310000    -0.4866090000     0.0046420000
    2      C       0.0786690000     0.2463910000     1.1176420000
    3      C       0.7701690000     1.4533910000     0.8252420000
    4      H      -0.1142310000    -0.0904090000     2.1475420000
    5      C       0.8936690000     1.6685910000    -0.5589580000
    6      S       0.1411690000     0.3557910000    -1.4600580000
    7      C       1.2993690000     2.3770910000     1.8870420000
    8      H       1.0765690000     1.9884910000     2.8996420000
    9      H       0.8510690000     3.3899910000     1.8127420000
   10      H       2.3997690000     2.5026910000     1.8128420000
   11      C      -0.3409310000    -1.9367090000     0.0046420000
   12      H       0.3532690000    -1.9372090000    -0.8226580000
   13      H       0.3775690000    -2.4718090000     0.6078420000
   14      H      -0.9794310000    -2.6239090000    -0.5306580000
   15      H       1.3697690000     2.4998910000    -1.0924580000
 ----------------------------------------------------------------

   10    -629.4061090694      5.93e-07  Convergence criterion met
 Total energy in the final basis set =     -629.4061090694
        RIMP2         total energy =      -630.5861746008 a.u.

                    Orbital Energies (a.u.)
 --------------------------------------------------------------

 Alpha MOs
 -- Occupied --
-91.9756 -11.2739 -11.2602 -11.2473 -11.2325 -11.2274 -11.2161  -8.9762
 -6.6571  -6.6565  -6.6559  -1.1638  -1.0545  -0.9946  -0.9435  -0.8817
 -0.7481  -0.7201  -0.6452  -0.5896  -0.5782  -0.5653  -0.5512  -0.5467
 -0.5100  -0.4878  -0.4626  -0.4471  -0.3385  -0.2970

          Ground-State Mulliken Net Atomic Charges

     Atom                 Charge (a.u.)
  ----------------------------------------
      1 C                     0.031266
      2 C                    -0.281072
      3 C                     0.048428
      4 H                     0.178977
      5 C                    -0.250510
      6 S                    -0.005176
      7 C                    -0.270322
      8 H                     0.101748
      9 H                     0.107626
     10 H                     0.106459
     11 C                    -0.374982
     12 H                     0.132242
     13 H                     0.139746
     14 H                     0.141343
     15 H                     0.194227
  ----------------------------------------
  Sum of atomic charges =     0.000000

                    Cartesian Multipole Moments
 -----------------------------------------------------------------
    Charge (ESU x 10^10)
                -0.0000
    Dipole Moment (Debye)
         X       1.2568      Y      -0.1551      Z       1.0769
       Tot       1.6623
    Quadrupole Moments (Debye-Ang)
        XX     -52.2803     XY       3.0015     YY     -44.6059
        XZ       0.5195     YZ       1.3737     ZZ     -48.5691

 Total job time:  15.75s(wall), 760.32s(cpu)
        *  Thank you very much for using Q-Chem.  Have a nice day.  *
