 Q-Chem 5.4, Q-Chem, Inc., Pleasanton, CA (2021)
 Q-Chem 5.4.0 for Intel X86 EM64T Linux

User input:
--------------------------------------------------------------
$molecule
0 1
C	-0.112720	-0.566489	-0.002733
C	0.030880	0.265811	1.110267
C	0.267780	1.636511	0.817867
H	-0.035120	-0.116589	2.140167
C	0.310280	1.881011	-0.566333
S	0.052180	0.390011	-1.467433
C	0.449180	2.685511	1.879667
H	0.372780	2.244111	2.892267
H	-0.318420	3.484011	1.805367
H	1.440280	3.179911	1.805467
C	-0.112720	-2.016589	-0.002733
H	-0.652720	-2.017089	0.932567
H	-0.925020	-2.551689	-0.472033
H	0.608980	-2.703789	0.413567
H	0.473380	2.825011	-1.099833
$end

$rem
JOBTYPE		SP
EXCHANGE	HF
CORRELATION	pRIMP2
BASIS		cc-pvtz
METHOD		rimp2
AUX_BASIS	rimp2-cc-pvtz
SOLVENT_METHOD	PCM
PURECART	11111
SYMMETRY	false
MEM_TOTAL	110000
SCF_CONVERGENCE = 6
THRESH=10
GUI = 2
$end

$solvent
dielectric 4.90
$end
--------------------------------------------------------------

             Standard Nuclear Orientation (Angstroms)
    I     Atom           X                Y                Z
 ----------------------------------------------------------------
    1      C      -0.1127200000    -0.5664890000    -0.0027330000
    2      C       0.0308800000     0.2658110000     1.1102670000
    3      C       0.2677800000     1.6365110000     0.8178670000
    4      H      -0.0351200000    -0.1165890000     2.1401670000
    5      C       0.3102800000     1.8810110000    -0.5663330000
    6      S       0.0521800000     0.3900110000    -1.4674330000
    7      C       0.4491800000     2.6855110000     1.8796670000
    8      H       0.3727800000     2.2441110000     2.8922670000
    9      H      -0.3184200000     3.4840110000     1.8053670000
   10      H       1.4402800000     3.1799110000     1.8054670000
   11      C      -0.1127200000    -2.0165890000    -0.0027330000
   12      H      -0.6527200000    -2.0170890000     0.9325670000
   13      H      -0.9250200000    -2.5516890000    -0.4720330000
   14      H       0.6089800000    -2.7037890000     0.4135670000
   15      H       0.4733800000     2.8250110000    -1.0998330000
 ----------------------------------------------------------------

   10    -629.4238701952      5.12e-07  Convergence criterion met
 Total energy in the final basis set =     -629.4238701952
        RIMP2         total energy =      -630.6017072556 a.u.

                    Orbital Energies (a.u.)
 --------------------------------------------------------------

 Alpha MOs
 -- Occupied --
-91.9761 -11.2781 -11.2567 -11.2474 -11.2320 -11.2274 -11.2178  -8.9761
 -6.6570  -6.6565  -6.6559  -1.1606  -1.0525  -0.9991  -0.9394  -0.8852
 -0.7425  -0.7226  -0.6481  -0.5892  -0.5765  -0.5656  -0.5596  -0.5418
 -0.5102  -0.4880  -0.4663  -0.4425  -0.3374  -0.3010

          Ground-State Mulliken Net Atomic Charges

     Atom                 Charge (a.u.)
  ----------------------------------------
      1 C                     0.050812
      2 C                    -0.270568
      3 C                     0.035007
      4 H                     0.177173
      5 C                    -0.256279
      6 S                    -0.005652
      7 C                    -0.273683
      8 H                     0.101319
      9 H                     0.107069
     10 H                     0.107369
     11 C                    -0.369925
     12 H                     0.123618
     13 H                     0.137390
     14 H                     0.142685
     15 H                     0.193665
  ----------------------------------------
  Sum of atomic charges =     0.000000

                    Cartesian Multipole Moments
 -----------------------------------------------------------------
    Charge (ESU x 10^10)
                -0.0000
    Dipole Moment (Debye)
         X      -0.0995      Y      -0.1674      Z       2.0759
       Tot       2.0850
    Quadrupole Moments (Debye-Ang)
        XX     -53.5410     XY       2.2082     YY     -42.3599
        XZ       0.2817     YZ      -0.9121     ZZ     -48.8489

 Total job time:  15.74s(wall), 748.64s(cpu)
        *  Thank you very much for using Q-Chem.  Have a nice day.  *
