 Q-Chem 5.4, Q-Chem, Inc., Pleasanton, CA (2021)
 Q-Chem 5.4.0 for Intel X86 EM64T Linux

User input:
--------------------------------------------------------------
$molecule
0 1
C	-0.341888	-0.486609	0.003247
C	0.077712	0.246391	1.116247
C	0.769212	1.453391	0.823847
H	-0.115188	-0.090409	2.146147
C	0.892712	1.668591	-0.560353
S	0.140212	0.355791	-1.461453
C	1.298412	2.377091	1.885647
H	1.075612	1.988491	2.898247
H	0.850112	3.389991	1.811347
H	2.398812	2.502691	1.811447
C	-0.341888	-1.936709	0.003247
H	0.593412	-1.937209	-0.536753
H	0.127012	-2.471809	0.815847
H	-0.758788	-2.623909	-0.718153
H	1.368812	2.499891	-1.093853
$end

$rem
JOBTYPE		SP
EXCHANGE	HF
CORRELATION	pRIMP2
BASIS		cc-pvtz
METHOD		rimp2
AUX_BASIS	rimp2-cc-pvtz
SOLVENT_METHOD	PCM
PURECART	11111
SYMMETRY	false
MEM_TOTAL	110000
SCF_CONVERGENCE = 6
THRESH=10
GUI = 2
$end

$solvent
dielectric 4.90
$end
--------------------------------------------------------------

             Standard Nuclear Orientation (Angstroms)
    I     Atom           X                Y                Z
 ----------------------------------------------------------------
    1      C      -0.3418880000    -0.4866090000     0.0032470000
    2      C       0.0777120000     0.2463910000     1.1162470000
    3      C       0.7692120000     1.4533910000     0.8238470000
    4      H      -0.1151880000    -0.0904090000     2.1461470000
    5      C       0.8927120000     1.6685910000    -0.5603530000
    6      S       0.1402120000     0.3557910000    -1.4614530000
    7      C       1.2984120000     2.3770910000     1.8856470000
    8      H       1.0756120000     1.9884910000     2.8982470000
    9      H       0.8501120000     3.3899910000     1.8113470000
   10      H       2.3988120000     2.5026910000     1.8114470000
   11      C      -0.3418880000    -1.9367090000     0.0032470000
   12      H       0.5934120000    -1.9372090000    -0.5367530000
   13      H       0.1270120000    -2.4718090000     0.8158470000
   14      H      -0.7587880000    -2.6239090000    -0.7181530000
   15      H       1.3688120000     2.4998910000    -1.0938530000
 ----------------------------------------------------------------

   10    -629.4094653673      6.47e-07  Convergence criterion met
 Total energy in the final basis set =     -629.4094653673
        RIMP2         total energy =      -630.5884360408 a.u.

                    Orbital Energies (a.u.)
 --------------------------------------------------------------

 Alpha MOs
 -- Occupied --
-91.9751 -11.2783 -11.2574 -11.2476 -11.2299 -11.2273 -11.2195  -8.9756
 -6.6566  -6.6560  -6.6554  -1.1639  -1.0551  -0.9954  -0.9420  -0.8822
 -0.7469  -0.7202  -0.6453  -0.5889  -0.5796  -0.5657  -0.5506  -0.5465
 -0.5083  -0.4936  -0.4623  -0.4511  -0.3395  -0.2923

          Ground-State Mulliken Net Atomic Charges

     Atom                 Charge (a.u.)
  ----------------------------------------
      1 C                     0.044400
      2 C                    -0.306081
      3 C                     0.055190
      4 H                     0.178179
      5 C                    -0.259851
      6 S                    -0.005940
      7 C                    -0.270057
      8 H                     0.101686
      9 H                     0.107790
     10 H                     0.106804
     11 C                    -0.371337
     12 H                     0.140015
     13 H                     0.139521
     14 H                     0.146397
     15 H                     0.193284
  ----------------------------------------
  Sum of atomic charges =     0.000000

                    Cartesian Multipole Moments
 -----------------------------------------------------------------
    Charge (ESU x 10^10)
                -0.0000
    Dipole Moment (Debye)
         X       1.3307      Y      -0.4025      Z       1.2304
       Tot       1.8565
    Quadrupole Moments (Debye-Ang)
        XX     -52.6128     XY       2.7404     YY     -44.3485
        XZ       0.4643     YZ       1.0614     ZZ     -48.5606

 Total job time:  15.67s(wall), 738.65s(cpu)
        *  Thank you very much for using Q-Chem.  Have a nice day.  *
