 Q-Chem 5.4, Q-Chem, Inc., Pleasanton, CA (2021)
 Q-Chem 5.4.0 for Intel X86 EM64T Linux

User input:
--------------------------------------------------------------
$molecule
0 1
C	-0.115931	-0.566489	-0.003627
C	0.027669	0.265811	1.109373
C	0.264569	1.636511	0.816973
H	-0.038331	-0.116589	2.139273
C	0.307069	1.881011	-0.567227
S	0.048969	0.390011	-1.468327
C	0.445969	2.685511	1.878773
H	0.369569	2.244111	2.891373
H	-0.321631	3.484011	1.804473
H	1.437069	3.179911	1.804573
C	-0.115931	-2.016589	-0.003627
H	0.071669	-2.017089	1.059973
H	-1.039831	-2.551689	0.159073
H	0.704569	-2.703789	-0.148627
H	0.470169	2.825011	-1.100727
$end

$rem
JOBTYPE		SP
EXCHANGE	HF
CORRELATION	pRIMP2
BASIS		cc-pvtz
METHOD		rimp2
AUX_BASIS	rimp2-cc-pvtz
SOLVENT_METHOD	PCM
PURECART	11111
SYMMETRY	false
MEM_TOTAL	110000
SCF_CONVERGENCE = 6
THRESH=10
GUI = 2
$end

$solvent
dielectric 4.90
$end
--------------------------------------------------------------

             Standard Nuclear Orientation (Angstroms)
    I     Atom           X                Y                Z
 ----------------------------------------------------------------
    1      C      -0.1159310000    -0.5664890000    -0.0036270000
    2      C       0.0276690000     0.2658110000     1.1093730000
    3      C       0.2645690000     1.6365110000     0.8169730000
    4      H      -0.0383310000    -0.1165890000     2.1392730000
    5      C       0.3070690000     1.8810110000    -0.5672270000
    6      S       0.0489690000     0.3900110000    -1.4683270000
    7      C       0.4459690000     2.6855110000     1.8787730000
    8      H       0.3695690000     2.2441110000     2.8913730000
    9      H      -0.3216310000     3.4840110000     1.8044730000
   10      H       1.4370690000     3.1799110000     1.8045730000
   11      C      -0.1159310000    -2.0165890000    -0.0036270000
   12      H       0.0716690000    -2.0170890000     1.0599730000
   13      H      -1.0398310000    -2.5516890000     0.1590730000
   14      H       0.7045690000    -2.7037890000    -0.1486270000
   15      H       0.4701690000     2.8250110000    -1.1007270000
 ----------------------------------------------------------------

   10    -629.4236676572      4.88e-07  Convergence criterion met
 Total energy in the final basis set =     -629.4236676572
        RIMP2         total energy =      -630.6017099622 a.u.

                    Orbital Energies (a.u.)
 --------------------------------------------------------------

 Alpha MOs
 -- Occupied --
-91.9756 -11.2774 -11.2580 -11.2473 -11.2339 -11.2276 -11.2169  -8.9757
 -6.6566  -6.6560  -6.6555  -1.1611  -1.0525  -0.9996  -0.9386  -0.8854
 -0.7424  -0.7239  -0.6475  -0.5907  -0.5779  -0.5675  -0.5584  -0.5411
 -0.5106  -0.4841  -0.4680  -0.4392  -0.3373  -0.3045

          Ground-State Mulliken Net Atomic Charges

     Atom                 Charge (a.u.)
  ----------------------------------------
      1 C                     0.054483
      2 C                    -0.266041
      3 C                     0.030688
      4 H                     0.175827
      5 C                    -0.250237
      6 S                    -0.006597
      7 C                    -0.273290
      8 H                     0.101228
      9 H                     0.107192
     10 H                     0.107292
     11 C                    -0.369447
     12 H                     0.122434
     13 H                     0.127805
     14 H                     0.145021
     15 H                     0.193642
  ----------------------------------------
  Sum of atomic charges =     0.000000

                    Cartesian Multipole Moments
 -----------------------------------------------------------------
    Charge (ESU x 10^10)
                -0.0000
    Dipole Moment (Debye)
         X       0.3566      Y      -0.0704      Z       2.1595
       Tot       2.1899
    Quadrupole Moments (Debye-Ang)
        XX     -53.4963     XY       1.1162     YY     -42.4257
        XZ      -0.1290     YZ      -0.9877     ZZ     -48.9600

 Total job time:  16.01s(wall), 745.20s(cpu)
        *  Thank you very much for using Q-Chem.  Have a nice day.  *
