 Q-Chem 5.4, Q-Chem, Inc., Pleasanton, CA (2021)
 Q-Chem 5.4.0 for Intel X86 EM64T Linux

User input:
--------------------------------------------------------------
$molecule
0 1
C	-0.280421	-0.513776	0.003333
C	0.073779	0.253024	1.116333
C	0.657379	1.515624	0.823933
H	-0.089121	-0.099276	2.146233
C	0.761579	1.740824	-0.560267
S	0.126479	0.367424	-1.461367
C	1.103979	2.482024	1.885733
H	0.915979	2.075424	2.898333
H	0.569179	3.451924	1.811433
H	2.189379	2.703024	1.811533
C	-0.280421	-1.963876	0.003333
H	-1.295321	-1.964376	-0.366067
H	0.040679	-2.498976	-0.878167
H	-0.565121	-2.651076	0.786333
H	1.163479	2.610424	-1.093767
$end

$rem
JOBTYPE		SP
EXCHANGE	HF
CORRELATION	pRIMP2
BASIS		cc-pvtz
METHOD		rimp2
AUX_BASIS	rimp2-cc-pvtz
SOLVENT_METHOD	PCM
PURECART	11111
SYMMETRY	false
MEM_TOTAL	110000
SCF_CONVERGENCE = 6
THRESH=10
GUI = 2
$end

$solvent
dielectric 4.90
$end
--------------------------------------------------------------

             Standard Nuclear Orientation (Angstroms)
    I     Atom           X                Y                Z
 ----------------------------------------------------------------
    1      C      -0.2804210000    -0.5137760000     0.0033330000
    2      C       0.0737790000     0.2530240000     1.1163330000
    3      C       0.6573790000     1.5156240000     0.8239330000
    4      H      -0.0891210000    -0.0992760000     2.1462330000
    5      C       0.7615790000     1.7408240000    -0.5602670000
    6      S       0.1264790000     0.3674240000    -1.4613670000
    7      C       1.1039790000     2.4820240000     1.8857330000
    8      H       0.9159790000     2.0754240000     2.8983330000
    9      H       0.5691790000     3.4519240000     1.8114330000
   10      H       2.1893790000     2.7030240000     1.8115330000
   11      C      -0.2804210000    -1.9638760000     0.0033330000
   12      H      -1.2953210000    -1.9643760000    -0.3660670000
   13      H       0.0406790000    -2.4989760000    -0.8781670000
   14      H      -0.5651210000    -2.6510760000     0.7863330000
   15      H       1.1634790000     2.6104240000    -1.0937670000
 ----------------------------------------------------------------

   10    -629.4077222958      5.66e-07  Convergence criterion met
 Total energy in the final basis set =     -629.4077222958
        RIMP2         total energy =      -630.5869574292 a.u.

                    Orbital Energies (a.u.)
 --------------------------------------------------------------

 Alpha MOs
 -- Occupied --
-91.9786 -11.2772 -11.2554 -11.2471 -11.2269 -11.2267 -11.2175  -8.9785
 -6.6595  -6.6590  -6.6583  -1.1609  -1.0534  -0.9958  -0.9429  -0.8832
 -0.7453  -0.7191  -0.6460  -0.5869  -0.5732  -0.5681  -0.5527  -0.5451
 -0.5103  -0.4925  -0.4586  -0.4544  -0.3378  -0.2898

          Ground-State Mulliken Net Atomic Charges

     Atom                 Charge (a.u.)
  ----------------------------------------
      1 C                     0.011515
      2 C                    -0.259763
      3 C                     0.040287
      4 H                     0.179168
      5 C                    -0.262786
      6 S                    -0.000641
      7 C                    -0.271707
      8 H                     0.101522
      9 H                     0.107110
     10 H                     0.106490
     11 C                    -0.377875
     12 H                     0.130335
     13 H                     0.142716
     14 H                     0.158647
     15 H                     0.194982
  ----------------------------------------
  Sum of atomic charges =     0.000000

                    Cartesian Multipole Moments
 -----------------------------------------------------------------
    Charge (ESU x 10^10)
                -0.0000
    Dipole Moment (Debye)
         X      -0.0677      Y      -0.3918      Z       1.2446
       Tot       1.3065
    Quadrupole Moments (Debye-Ang)
        XX     -52.5802     XY       4.8171     YY     -43.6165
        XZ      -0.0928     YZ       0.6253     ZZ     -48.4464

 Total job time:  17.03s(wall), 786.00s(cpu)
        *  Thank you very much for using Q-Chem.  Have a nice day.  *
