 Q-Chem 5.4, Q-Chem, Inc., Pleasanton, CA (2021)
 Q-Chem 5.4.0 for Intel X86 EM64T Linux

User input:
--------------------------------------------------------------
$molecule
0 1
C	-0.429932	-0.419059	0.000015
C	0.110568	0.229941	1.113015
C	1.001068	1.298441	0.820615
H	-0.137832	-0.068259	2.142915
C	1.160168	1.489041	-0.563585
S	0.191168	0.326841	-1.464685
C	1.682668	2.116341	1.882415
H	1.395868	1.772241	2.895015
H	1.417168	3.191641	1.808115
H	2.788268	2.048841	1.808215
C	-0.429932	-1.869159	0.000015
H	-1.444832	-1.869659	0.369415
H	-0.750632	-2.404259	-0.881585
H	-0.144632	-2.556359	0.782815
H	1.773368	2.225041	-1.097085
$end

$rem
JOBTYPE		SP
EXCHANGE	HF
CORRELATION	pRIMP2
BASIS		cc-pvtz
METHOD		rimp2
AUX_BASIS	rimp2-cc-pvtz
SOLVENT_METHOD	PCM
PURECART	11111
SYMMETRY	false
MEM_TOTAL	110000
SCF_CONVERGENCE = 6
THRESH=10
GUI = 2
$end

$solvent
dielectric 4.90
$end
--------------------------------------------------------------

             Standard Nuclear Orientation (Angstroms)
    I     Atom           X                Y                Z
 ----------------------------------------------------------------
    1      C      -0.4299320000    -0.4190590000     0.0000150000
    2      C       0.1105680000     0.2299410000     1.1130150000
    3      C       1.0010680000     1.2984410000     0.8206150000
    4      H      -0.1378320000    -0.0682590000     2.1429150000
    5      C       1.1601680000     1.4890410000    -0.5635850000
    6      S       0.1911680000     0.3268410000    -1.4646850000
    7      C       1.6826680000     2.1163410000     1.8824150000
    8      H       1.3958680000     1.7722410000     2.8950150000
    9      H       1.4171680000     3.1916410000     1.8081150000
   10      H       2.7882680000     2.0488410000     1.8082150000
   11      C      -0.4299320000    -1.8691590000     0.0000150000
   12      H      -1.4448320000    -1.8696590000     0.3694150000
   13      H      -0.7506320000    -2.4042590000    -0.8815850000
   14      H      -0.1446320000    -2.5563590000     0.7828150000
   15      H       1.7733680000     2.2250410000    -1.0970850000
 ----------------------------------------------------------------

   10    -629.3865107583      6.32e-07  Convergence criterion met
 Total energy in the final basis set =     -629.3865107583
        RIMP2         total energy =      -630.5717750785 a.u.

                    Orbital Energies (a.u.)
 --------------------------------------------------------------

 Alpha MOs
 -- Occupied --
-91.9744 -11.2664 -11.2629 -11.2480 -11.2362 -11.2276 -11.2129  -8.9748
 -6.6557  -6.6549  -6.6545  -1.1635  -1.0524  -0.9967  -0.9397  -0.8839
 -0.7451  -0.7232  -0.6448  -0.5842  -0.5763  -0.5641  -0.5564  -0.5426
 -0.5142  -0.4934  -0.4584  -0.4391  -0.3366  -0.2892

          Ground-State Mulliken Net Atomic Charges

     Atom                 Charge (a.u.)
  ----------------------------------------
      1 C                    -0.011470
      2 C                    -0.243104
      3 C                     0.032521
      4 H                     0.176303
      5 C                    -0.237656
      6 S                     0.005765
      7 C                    -0.269682
      8 H                     0.101507
      9 H                     0.107105
     10 H                     0.106082
     11 C                    -0.384096
     12 H                     0.130124
     13 H                     0.136144
     14 H                     0.157600
     15 H                     0.192856
  ----------------------------------------
  Sum of atomic charges =     0.000000

                    Cartesian Multipole Moments
 -----------------------------------------------------------------
    Charge (ESU x 10^10)
                -0.0000
    Dipole Moment (Debye)
         X       0.5130      Y      -0.1516      Z       1.8278
       Tot       1.9044
    Quadrupole Moments (Debye-Ang)
        XX     -50.4924     XY       5.7158     YY     -46.2551
        XZ       0.2269     YZ      -0.3124     ZZ     -48.2349

 Total job time:  16.27s(wall), 775.07s(cpu)
        *  Thank you very much for using Q-Chem.  Have a nice day.  *
