 Q-Chem 5.4, Q-Chem, Inc., Pleasanton, CA (2021)
 Q-Chem 5.4.0 for Intel X86 EM64T Linux

User input:
--------------------------------------------------------------
$molecule
0 1
C	-0.457252	-0.421459	0.000759
C	0.083248	0.227541	1.113759
C	0.973748	1.296041	0.821359
H	-0.165152	-0.070659	2.143659
C	1.132848	1.486641	-0.562841
S	0.163848	0.324441	-1.463941
C	1.655348	2.113941	1.883159
H	1.368548	1.769841	2.895759
H	1.389848	3.189241	1.808859
H	2.760948	2.046441	1.808959
C	-0.205452	-1.849559	0.000759
H	0.858248	-1.662459	0.000759
H	-0.112752	-2.376559	0.938859
H	-0.086452	-2.526359	-0.832441
H	1.746048	2.222641	-1.096341
$end

$rem
JOBTYPE		SP
EXCHANGE	HF
CORRELATION	pRIMP2
BASIS		cc-pvtz
METHOD		rimp2
AUX_BASIS	rimp2-cc-pvtz
SOLVENT_METHOD	PCM
PURECART	11111
SYMMETRY	false
MEM_TOTAL	110000
SCF_CONVERGENCE = 6
THRESH=10
GUI = 2
$end

$solvent
dielectric 4.90
$end
--------------------------------------------------------------

             Standard Nuclear Orientation (Angstroms)
    I     Atom           X                Y                Z
 ----------------------------------------------------------------
    1      C      -0.4572520000    -0.4214590000     0.0007590000
    2      C       0.0832480000     0.2275410000     1.1137590000
    3      C       0.9737480000     1.2960410000     0.8213590000
    4      H      -0.1651520000    -0.0706590000     2.1436590000
    5      C       1.1328480000     1.4866410000    -0.5628410000
    6      S       0.1638480000     0.3244410000    -1.4639410000
    7      C       1.6553480000     2.1139410000     1.8831590000
    8      H       1.3685480000     1.7698410000     2.8957590000
    9      H       1.3898480000     3.1892410000     1.8088590000
   10      H       2.7609480000     2.0464410000     1.8089590000
   11      C      -0.2054520000    -1.8495590000     0.0007590000
   12      H       0.8582480000    -1.6624590000     0.0007590000
   13      H      -0.1127520000    -2.3765590000     0.9388590000
   14      H      -0.0864520000    -2.5263590000    -0.8324410000
   15      H       1.7460480000     2.2226410000    -1.0963410000
 ----------------------------------------------------------------

   10    -629.3768941260      6.50e-07  Convergence criterion met
 Total energy in the final basis set =     -629.3768941260
        RIMP2         total energy =      -630.5637974466 a.u.

                    Orbital Energies (a.u.)
 --------------------------------------------------------------

 Alpha MOs
 -- Occupied --
-91.9758 -11.2688 -11.2681 -11.2504 -11.2359 -11.2287 -11.2180  -8.9764
 -6.6573  -6.6566  -6.6562  -1.1717  -1.0568  -0.9974  -0.9376  -0.8824
 -0.7487  -0.7256  -0.6441  -0.5880  -0.5842  -0.5675  -0.5524  -0.5454
 -0.5090  -0.4943  -0.4598  -0.4462  -0.3389  -0.2888

          Ground-State Mulliken Net Atomic Charges

     Atom                 Charge (a.u.)
  ----------------------------------------
      1 C                    -0.024799
      2 C                    -0.217375
      3 C                     0.019254
      4 H                     0.177924
      5 C                    -0.235927
      6 S                     0.007159
      7 C                    -0.267996
      8 H                     0.102414
      9 H                     0.107735
     10 H                     0.105440
     11 C                    -0.367097
     12 H                     0.129083
     13 H                     0.124316
     14 H                     0.144126
     15 H                     0.195745
  ----------------------------------------
  Sum of atomic charges =     0.000000

                    Cartesian Multipole Moments
 -----------------------------------------------------------------
    Charge (ESU x 10^10)
                -0.0000
    Dipole Moment (Debye)
         X       2.1087      Y       0.0932      Z       1.6218
       Tot       2.6619
    Quadrupole Moments (Debye-Ang)
        XX     -51.5434     XY       3.1696     YY     -46.5797
        XZ       0.0607     YZ       0.1558     ZZ     -48.0958

 Total job time:  37.47s(wall), 778.89s(cpu)
        *  Thank you very much for using Q-Chem.  Have a nice day.  *
