 Q-Chem 5.4, Q-Chem, Inc., Pleasanton, CA (2021)
 Q-Chem 5.4.0 for Intel X86 EM64T Linux

User input:
--------------------------------------------------------------
$molecule
0 1
C	-0.119988	-0.566489	0.003247
C	0.023612	0.265811	1.116247
C	0.260512	1.636511	0.823847
H	-0.042388	-0.116589	2.146147
C	0.303012	1.881011	-0.560353
S	0.044912	0.390011	-1.461453
C	0.441912	2.685511	1.885647
H	0.365512	2.244111	2.898247
H	-0.325688	3.484011	1.811347
H	1.433012	3.179911	1.811447
C	-0.119988	-2.016589	0.003247
H	0.815312	-2.017089	-0.536753
H	0.348912	-2.551689	0.815847
H	-0.536888	-2.703789	-0.718153
H	0.466112	2.825011	-1.093853
$end

$rem
JOBTYPE		SP
EXCHANGE	HF
CORRELATION	pRIMP2
BASIS		cc-pvtz
METHOD		rimp2
AUX_BASIS	rimp2-cc-pvtz
SOLVENT_METHOD	PCM
PURECART	11111
SYMMETRY	false
MEM_TOTAL	110000
SCF_CONVERGENCE = 6
THRESH=10
GUI = 2
$end

$solvent
dielectric 4.90
$end
--------------------------------------------------------------

             Standard Nuclear Orientation (Angstroms)
    I     Atom           X                Y                Z
 ----------------------------------------------------------------
    1      C      -0.1199880000    -0.5664890000     0.0032470000
    2      C       0.0236120000     0.2658110000     1.1162470000
    3      C       0.2605120000     1.6365110000     0.8238470000
    4      H      -0.0423880000    -0.1165890000     2.1461470000
    5      C       0.3030120000     1.8810110000    -0.5603530000
    6      S       0.0449120000     0.3900110000    -1.4614530000
    7      C       0.4419120000     2.6855110000     1.8856470000
    8      H       0.3655120000     2.2441110000     2.8982470000
    9      H      -0.3256880000     3.4840110000     1.8113470000
   10      H       1.4330120000     3.1799110000     1.8114470000
   11      C      -0.1199880000    -2.0165890000     0.0032470000
   12      H       0.8153120000    -2.0170890000    -0.5367530000
   13      H       0.3489120000    -2.5516890000     0.8158470000
   14      H      -0.5368880000    -2.7037890000    -0.7181530000
   15      H       0.4661120000     2.8250110000    -1.0938530000
 ----------------------------------------------------------------

   10    -629.4247113662      6.60e-07  Convergence criterion met
 Total energy in the final basis set =     -629.4247113662
        RIMP2         total energy =      -630.6001263695 a.u.

                    Orbital Energies (a.u.)
 --------------------------------------------------------------

 Alpha MOs
 -- Occupied --
-91.9777 -11.2833 -11.2524 -11.2471 -11.2268 -11.2254 -11.2217  -8.9777
 -6.6587  -6.6582  -6.6576  -1.1607  -1.0546  -0.9962  -0.9430  -0.8831
 -0.7455  -0.7182  -0.6468  -0.5899  -0.5766  -0.5670  -0.5505  -0.5467
 -0.5072  -0.4939  -0.4657  -0.4538  -0.3391  -0.2930

          Ground-State Mulliken Net Atomic Charges

     Atom                 Charge (a.u.)
  ----------------------------------------
      1 C                     0.057540
      2 C                    -0.305486
      3 C                     0.052569
      4 H                     0.179461
      5 C                    -0.270934
      6 S                    -0.005160
      7 C                    -0.272599
      8 H                     0.101488
      9 H                     0.107420
     10 H                     0.107304
     11 C                    -0.373717
     12 H                     0.134300
     13 H                     0.141088
     14 H                     0.152933
     15 H                     0.193794
  ----------------------------------------
  Sum of atomic charges =     0.000000

                    Cartesian Multipole Moments
 -----------------------------------------------------------------
    Charge (ESU x 10^10)
                -0.0000
    Dipole Moment (Debye)
         X       0.8260      Y      -0.5359      Z       1.1194
       Tot       1.4909
    Quadrupole Moments (Debye-Ang)
        XX     -54.1529     XY       0.2357     YY     -42.0148
        XZ       0.3719     YZ       1.2026     ZZ     -48.6645

 Total job time:  18.05s(wall), 759.76s(cpu)
        *  Thank you very much for using Q-Chem.  Have a nice day.  *
