 Q-Chem 5.4, Q-Chem, Inc., Pleasanton, CA (2021)
 Q-Chem 5.4.0 for Intel X86 EM64T Linux

User input:
--------------------------------------------------------------
$molecule
0 1
C	-0.119517	-0.566489	-0.001602
C	0.024083	0.265811	1.111398
C	0.260983	1.636511	0.818998
H	-0.041917	-0.116589	2.141298
C	0.303483	1.881011	-0.565202
S	0.045383	0.390011	-1.466302
C	0.442383	2.685511	1.880798
H	0.365983	2.244111	2.893398
H	-0.325217	3.484011	1.806498
H	1.433483	3.179911	1.806598
C	-0.119517	-2.016589	-0.001602
H	0.815783	-2.017089	0.538398
H	-0.588817	-2.551689	0.810698
H	0.296783	-2.703789	-0.723302
H	0.466583	2.825011	-1.098702
$end

$rem
JOBTYPE		SP
EXCHANGE	HF
CORRELATION	pRIMP2
BASIS		cc-pvtz
METHOD		rimp2
AUX_BASIS	rimp2-cc-pvtz
SOLVENT_METHOD	PCM
PURECART	11111
SYMMETRY	false
MEM_TOTAL	110000
SCF_CONVERGENCE = 6
THRESH=10
GUI = 2
$end

$solvent
dielectric 4.90
$end
--------------------------------------------------------------

             Standard Nuclear Orientation (Angstroms)
    I     Atom           X                Y                Z
 ----------------------------------------------------------------
    1      C      -0.1195170000    -0.5664890000    -0.0016020000
    2      C       0.0240830000     0.2658110000     1.1113980000
    3      C       0.2609830000     1.6365110000     0.8189980000
    4      H      -0.0419170000    -0.1165890000     2.1412980000
    5      C       0.3034830000     1.8810110000    -0.5652020000
    6      S       0.0453830000     0.3900110000    -1.4663020000
    7      C       0.4423830000     2.6855110000     1.8807980000
    8      H       0.3659830000     2.2441110000     2.8933980000
    9      H      -0.3252170000     3.4840110000     1.8064980000
   10      H       1.4334830000     3.1799110000     1.8065980000
   11      C      -0.1195170000    -2.0165890000    -0.0016020000
   12      H       0.8157830000    -2.0170890000     0.5383980000
   13      H      -0.5888170000    -2.5516890000     0.8106980000
   14      H       0.2967830000    -2.7037890000    -0.7233020000
   15      H       0.4665830000     2.8250110000    -1.0987020000
 ----------------------------------------------------------------

   10    -629.4233339287      6.29e-07  Convergence criterion met
 Total energy in the final basis set =     -629.4233339287
        RIMP2         total energy =      -630.5998188821 a.u.

                    Orbital Energies (a.u.)
 --------------------------------------------------------------

 Alpha MOs
 -- Occupied --
-91.9786 -11.2848 -11.2501 -11.2476 -11.2269 -11.2245 -11.2212  -8.9783
 -6.6592  -6.6587  -6.6581  -1.1605  -1.0541  -0.9984  -0.9393  -0.8843
 -0.7426  -0.7196  -0.6471  -0.5900  -0.5734  -0.5707  -0.5563  -0.5435
 -0.5084  -0.4895  -0.4672  -0.4534  -0.3371  -0.2916

          Ground-State Mulliken Net Atomic Charges

     Atom                 Charge (a.u.)
  ----------------------------------------
      1 C                     0.058178
      2 C                    -0.286024
      3 C                     0.040930
      4 H                     0.174503
      5 C                    -0.275972
      6 S                    -0.000097
      7 C                    -0.273623
      8 H                     0.101312
      9 H                     0.107336
     10 H                     0.107179
     11 C                    -0.388829
     12 H                     0.144256
     13 H                     0.139873
     14 H                     0.158230
     15 H                     0.192746
  ----------------------------------------
  Sum of atomic charges =     0.000000

                    Cartesian Multipole Moments
 -----------------------------------------------------------------
    Charge (ESU x 10^10)
                -0.0000
    Dipole Moment (Debye)
         X       0.8140      Y      -0.6443      Z       1.7816
       Tot       2.0620
    Quadrupole Moments (Debye-Ang)
        XX     -54.1239     XY       0.0788     YY     -42.1693
        XZ      -0.1954     YZ      -0.2305     ZZ     -48.6389

 Total job time:  18.75s(wall), 767.72s(cpu)
        *  Thank you very much for using Q-Chem.  Have a nice day.  *
