 Q-Chem 5.4, Q-Chem, Inc., Pleasanton, CA (2021)
 Q-Chem 5.4.0 for Intel X86 EM64T Linux

User input:
--------------------------------------------------------------
$molecule
0 1
C	-0.070573	-0.574816	0.000759
C	-0.000073	0.266884	1.113759
C	0.116527	1.652884	0.821359
H	-0.032473	-0.119916	2.143659
C	0.137527	1.900184	-0.562841
S	0.010327	0.392384	-1.463941
C	0.205727	2.713784	1.883159
H	0.168127	2.267384	2.895759
H	-0.628573	3.442284	1.808859
H	1.150027	3.292684	1.808959
C	0.055827	-2.019416	0.000759
H	1.131727	-1.925816	0.000759
H	0.102227	-2.552516	0.938859
H	0.115427	-2.704016	-0.832441
H	0.217727	2.854884	-1.096341
$end

$rem
JOBTYPE		SP
EXCHANGE	HF
CORRELATION	pRIMP2
BASIS		cc-pvtz
METHOD		rimp2
AUX_BASIS	rimp2-cc-pvtz
SOLVENT_METHOD	PCM
PURECART	11111
SYMMETRY	false
MEM_TOTAL	110000
SCF_CONVERGENCE = 6
THRESH=10
GUI = 2
$end

$solvent
dielectric 4.90
$end
--------------------------------------------------------------

             Standard Nuclear Orientation (Angstroms)
    I     Atom           X                Y                Z
 ----------------------------------------------------------------
    1      C      -0.0705730000    -0.5748160000     0.0007590000
    2      C      -0.0000730000     0.2668840000     1.1137590000
    3      C       0.1165270000     1.6528840000     0.8213590000
    4      H      -0.0324730000    -0.1199160000     2.1436590000
    5      C       0.1375270000     1.9001840000    -0.5628410000
    6      S       0.0103270000     0.3923840000    -1.4639410000
    7      C       0.2057270000     2.7137840000     1.8831590000
    8      H       0.1681270000     2.2673840000     2.8957590000
    9      H      -0.6285730000     3.4422840000     1.8088590000
   10      H       1.1500270000     3.2926840000     1.8089590000
   11      C       0.0558270000    -2.0194160000     0.0007590000
   12      H       1.1317270000    -1.9258160000     0.0007590000
   13      H       0.1022270000    -2.5525160000     0.9388590000
   14      H       0.1154270000    -2.7040160000    -0.8324410000
   15      H       0.2177270000     2.8548840000    -1.0963410000
 ----------------------------------------------------------------

   10    -629.4255993666      6.90e-07  Convergence criterion met
 Total energy in the final basis set =     -629.4255993666
        RIMP2         total energy =      -630.6006306193 a.u.

                    Orbital Energies (a.u.)
 --------------------------------------------------------------

 Alpha MOs
 -- Occupied --
-91.9783 -11.2867 -11.2492 -11.2473 -11.2267 -11.2238 -11.2227  -8.9781
 -6.6591  -6.6586  -6.6580  -1.1605  -1.0549  -0.9973  -0.9409  -0.8836
 -0.7438  -0.7184  -0.6469  -0.5891  -0.5760  -0.5687  -0.5523  -0.5455
 -0.5069  -0.4949  -0.4669  -0.4563  -0.3384  -0.2893

          Ground-State Mulliken Net Atomic Charges

     Atom                 Charge (a.u.)
  ----------------------------------------
      1 C                     0.060610
      2 C                    -0.312029
      3 C                     0.052815
      4 H                     0.175163
      5 C                    -0.281386
      6 S                    -0.000061
      7 C                    -0.273219
      8 H                     0.101478
      9 H                     0.107335
     10 H                     0.107410
     11 C                    -0.380479
     12 H                     0.146921
     13 H                     0.143045
     14 H                     0.159329
     15 H                     0.193068
  ----------------------------------------
  Sum of atomic charges =     0.000000

                    Cartesian Multipole Moments
 -----------------------------------------------------------------
    Charge (ESU x 10^10)
                -0.0000
    Dipole Moment (Debye)
         X       0.9821      Y      -0.6996      Z       1.4163
       Tot       1.8601
    Quadrupole Moments (Debye-Ang)
        XX     -54.2461     XY      -1.1136     YY     -42.0066
        XZ       0.0574     YZ       0.5359     ZZ     -48.5983

 Total job time:  25.50s(wall), 756.48s(cpu)
        *  Thank you very much for using Q-Chem.  Have a nice day.  *
