 Q-Chem 5.4, Q-Chem, Inc., Pleasanton, CA (2021)
 Q-Chem 5.4.0 for Intel X86 EM64T Linux

User input:
--------------------------------------------------------------
$molecule
0 1
C	-0.113451	-0.566489	-0.003165
C	0.030149	0.265811	1.109835
C	0.267049	1.636511	0.817435
H	-0.035851	-0.116589	2.139735
C	0.309549	1.881011	-0.566765
S	0.051449	0.390011	-1.467865
C	0.448449	2.685511	1.879235
H	0.372049	2.244111	2.891835
H	-0.319151	3.484011	1.804935
H	1.439549	3.179911	1.805035
C	-0.113451	-2.016589	-0.003165
H	-0.482851	-2.017089	1.011735
H	-0.994951	-2.551689	-0.324265
H	0.669549	-2.703789	0.281535
H	0.472649	2.825011	-1.100265
$end

$rem
JOBTYPE		SP
EXCHANGE	HF
CORRELATION	pRIMP2
BASIS		cc-pvtz
METHOD		rimp2
AUX_BASIS	rimp2-cc-pvtz
SOLVENT_METHOD	PCM
PURECART	11111
SYMMETRY	false
MEM_TOTAL	110000
SCF_CONVERGENCE = 6
THRESH=10
GUI = 2
$end

$solvent
dielectric 4.90
$end
--------------------------------------------------------------

             Standard Nuclear Orientation (Angstroms)
    I     Atom           X                Y                Z
 ----------------------------------------------------------------
    1      C      -0.1134510000    -0.5664890000    -0.0031650000
    2      C       0.0301490000     0.2658110000     1.1098350000
    3      C       0.2670490000     1.6365110000     0.8174350000
    4      H      -0.0358510000    -0.1165890000     2.1397350000
    5      C       0.3095490000     1.8810110000    -0.5667650000
    6      S       0.0514490000     0.3900110000    -1.4678650000
    7      C       0.4484490000     2.6855110000     1.8792350000
    8      H       0.3720490000     2.2441110000     2.8918350000
    9      H      -0.3191510000     3.4840110000     1.8049350000
   10      H       1.4395490000     3.1799110000     1.8050350000
   11      C      -0.1134510000    -2.0165890000    -0.0031650000
   12      H      -0.4828510000    -2.0170890000     1.0117350000
   13      H      -0.9949510000    -2.5516890000    -0.3242650000
   14      H       0.6695490000    -2.7037890000     0.2815350000
   15      H       0.4726490000     2.8250110000    -1.1002650000
 ----------------------------------------------------------------

   10    -629.4242344321      4.96e-07  Convergence criterion met
 Total energy in the final basis set =     -629.4242344321
        RIMP2         total energy =      -630.6021821251 a.u.

                    Orbital Energies (a.u.)
 --------------------------------------------------------------

 Alpha MOs
 -- Occupied --
-91.9756 -11.2772 -11.2580 -11.2473 -11.2335 -11.2276 -11.2173  -8.9757
 -6.6566  -6.6560  -6.6555  -1.1609  -1.0524  -0.9994  -0.9391  -0.8854
 -0.7425  -0.7234  -0.6480  -0.5897  -0.5774  -0.5661  -0.5592  -0.5414
 -0.5105  -0.4865  -0.4670  -0.4400  -0.3376  -0.3035

          Ground-State Mulliken Net Atomic Charges

     Atom                 Charge (a.u.)
  ----------------------------------------
      1 C                     0.049933
      2 C                    -0.266518
      3 C                     0.033381
      4 H                     0.177118
      5 C                    -0.252563
      6 S                    -0.006729
      7 C                    -0.273237
      8 H                     0.101301
      9 H                     0.107077
     10 H                     0.107371
     11 C                    -0.366229
     12 H                     0.120050
     13 H                     0.135070
     14 H                     0.140082
     15 H                     0.193893
  ----------------------------------------
  Sum of atomic charges =     0.000000

                    Cartesian Multipole Moments
 -----------------------------------------------------------------
    Charge (ESU x 10^10)
                -0.0000
    Dipole Moment (Debye)
         X       0.0205      Y      -0.0829      Z       2.1291
       Tot       2.1308
    Quadrupole Moments (Debye-Ang)
        XX     -53.4740     XY       1.9469     YY     -42.3866
        XZ       0.2016     YZ      -0.9928     ZZ     -48.9200

 Total job time:  17.43s(wall), 754.55s(cpu)
        *  Thank you very much for using Q-Chem.  Have a nice day.  *
