 Q-Chem 5.4, Q-Chem, Inc., Pleasanton, CA (2021)
 Q-Chem 5.4.0 for Intel X86 EM64T Linux

User input:
--------------------------------------------------------------
$molecule
0 1
C	-0.177827	-0.553870	-0.000871
C	0.037773	0.262730	1.112129
C	0.393273	1.607530	0.819729
H	-0.061327	-0.112470	2.142029
C	0.456873	1.847430	-0.564471
S	0.069773	0.384630	-1.465571
C	0.665373	2.636830	1.881529
H	0.550773	2.203730	2.894129
H	-0.029727	3.499130	1.807229
H	1.695873	3.042930	1.807329
C	-0.177827	-2.003970	-0.000871
H	0.837073	-2.004470	0.368529
H	-0.498927	-2.539070	0.880629
H	0.106873	-2.691170	-0.783871
H	0.701673	2.773630	-1.097971
$end

$rem
JOBTYPE		SP
EXCHANGE	HF
CORRELATION	pRIMP2
BASIS		cc-pvtz
METHOD		rimp2
AUX_BASIS	rimp2-cc-pvtz
SOLVENT_METHOD	PCM
PURECART	11111
SYMMETRY	false
MEM_TOTAL	110000
SCF_CONVERGENCE = 6
THRESH=10
GUI = 2
$end

$solvent
dielectric 4.90
$end
--------------------------------------------------------------

             Standard Nuclear Orientation (Angstroms)
    I     Atom           X                Y                Z
 ----------------------------------------------------------------
    1      C      -0.1778270000    -0.5538700000    -0.0008710000
    2      C       0.0377730000     0.2627300000     1.1121290000
    3      C       0.3932730000     1.6075300000     0.8197290000
    4      H      -0.0613270000    -0.1124700000     2.1420290000
    5      C       0.4568730000     1.8474300000    -0.5644710000
    6      S       0.0697730000     0.3846300000    -1.4655710000
    7      C       0.6653730000     2.6368300000     1.8815290000
    8      H       0.5507730000     2.2037300000     2.8941290000
    9      H      -0.0297270000     3.4991300000     1.8072290000
   10      H       1.6958730000     3.0429300000     1.8073290000
   11      C      -0.1778270000    -2.0039700000    -0.0008710000
   12      H       0.8370730000    -2.0044700000     0.3685290000
   13      H      -0.4989270000    -2.5390700000     0.8806290000
   14      H       0.1068730000    -2.6911700000    -0.7838710000
   15      H       0.7016730000     2.7736300000    -1.0979710000
 ----------------------------------------------------------------

   10    -629.4218016591      6.55e-07  Convergence criterion met
 Total energy in the final basis set =     -629.4218016591
        RIMP2         total energy =      -630.5982634567 a.u.

                    Orbital Energies (a.u.)
 --------------------------------------------------------------

 Alpha MOs
 -- Occupied --
-91.9788 -11.2854 -11.2498 -11.2477 -11.2269 -11.2234 -11.2222  -8.9785
 -6.6595  -6.6590  -6.6584  -1.1610  -1.0545  -0.9980  -0.9394  -0.8840
 -0.7430  -0.7193  -0.6468  -0.5894  -0.5748  -0.5701  -0.5549  -0.5441
 -0.5080  -0.4906  -0.4670  -0.4555  -0.3375  -0.2898

          Ground-State Mulliken Net Atomic Charges

     Atom                 Charge (a.u.)
  ----------------------------------------
      1 C                     0.052968
      2 C                    -0.293679
      3 C                     0.046510
      4 H                     0.173956
      5 C                    -0.279760
      6 S                     0.002355
      7 C                    -0.272433
      8 H                     0.101401
      9 H                     0.107415
     10 H                     0.107062
     11 C                    -0.386090
     12 H                     0.148879
     13 H                     0.139767
     14 H                     0.158790
     15 H                     0.192861
  ----------------------------------------
  Sum of atomic charges =     0.000000

                    Cartesian Multipole Moments
 -----------------------------------------------------------------
    Charge (ESU x 10^10)
                -0.0000
    Dipole Moment (Debye)
         X       0.9632      Y      -0.7110      Z       1.6638
       Tot       2.0498
    Quadrupole Moments (Debye-Ang)
        XX     -54.0187     XY       0.7307     YY     -42.4470
        XZ      -0.0744     YZ      -0.0132     ZZ     -48.5869

 Total job time:  16.34s(wall), 764.71s(cpu)
        *  Thank you very much for using Q-Chem.  Have a nice day.  *
