 Q-Chem 5.4, Q-Chem, Inc., Pleasanton, CA (2021)
 Q-Chem 5.4.0 for Intel X86 EM64T Linux

User input:
--------------------------------------------------------------
$molecule
0 1
C	-0.515236	-0.335659	0.004709
C	0.129764	0.209641	1.117709
C	1.192364	1.107341	0.825309
H	-0.166636	-0.040859	2.147609
C	1.381964	1.267341	-0.558891
S	0.225964	0.291041	-1.459991
C	2.005564	1.794341	1.887109
H	1.663364	1.505341	2.899709
H	1.930764	2.899441	1.812809
H	3.082564	1.535941	1.812909
C	-0.515236	-1.785759	0.004709
H	-1.342536	-1.786259	-0.689491
H	0.087964	-2.320859	-0.713791
H	-1.050536	-2.472959	0.643209
H	2.113764	1.885641	-1.092391
$end

$rem
JOBTYPE		SP
EXCHANGE	HF
CORRELATION	pRIMP2
BASIS		cc-pvtz
METHOD		rimp2
AUX_BASIS	rimp2-cc-pvtz
SOLVENT_METHOD	PCM
PURECART	11111
SYMMETRY	false
MEM_TOTAL	110000
SCF_CONVERGENCE = 6
THRESH=10
GUI = 2
$end

$solvent
dielectric 4.90
$end
--------------------------------------------------------------

             Standard Nuclear Orientation (Angstroms)
    I     Atom           X                Y                Z
 ----------------------------------------------------------------
    1      C      -0.5152360000    -0.3356590000     0.0047090000
    2      C       0.1297640000     0.2096410000     1.1177090000
    3      C       1.1923640000     1.1073410000     0.8253090000
    4      H      -0.1666360000    -0.0408590000     2.1476090000
    5      C       1.3819640000     1.2673410000    -0.5588910000
    6      S       0.2259640000     0.2910410000    -1.4599910000
    7      C       2.0055640000     1.7943410000     1.8871090000
    8      H       1.6633640000     1.5053410000     2.8997090000
    9      H       1.9307640000     2.8994410000     1.8128090000
   10      H       3.0825640000     1.5359410000     1.8129090000
   11      C      -0.5152360000    -1.7857590000     0.0047090000
   12      H      -1.3425360000    -1.7862590000    -0.6894910000
   13      H       0.0879640000    -2.3208590000    -0.7137910000
   14      H      -1.0505360000    -2.4729590000     0.6432090000
   15      H       2.1137640000     1.8856410000    -1.0923910000
 ----------------------------------------------------------------

   11    -629.3674457422      4.16e-07  Convergence criterion met
 Total energy in the final basis set =     -629.3674457422
        RIMP2         total energy =      -630.5550930583 a.u.

                    Orbital Energies (a.u.)
 --------------------------------------------------------------

 Alpha MOs
 -- Occupied --
-91.9770 -11.2738 -11.2535 -11.2482 -11.2419 -11.2280 -11.2090  -8.9774
 -6.6583  -6.6576  -6.6572  -1.1674  -1.0532  -0.9949  -0.9427  -0.8818
 -0.7503  -0.7246  -0.6420  -0.5898  -0.5757  -0.5685  -0.5517  -0.5441
 -0.5156  -0.4811  -0.4564  -0.4385  -0.3361  -0.2938

          Ground-State Mulliken Net Atomic Charges

     Atom                 Charge (a.u.)
  ----------------------------------------
      1 C                    -0.080305
      2 C                    -0.154167
      3 C                     0.003613
      4 H                     0.181569
      5 C                    -0.206569
      6 S                     0.005593
      7 C                    -0.269517
      8 H                     0.101801
      9 H                     0.106773
     10 H                     0.104755
     11 C                    -0.383677
     12 H                     0.115600
     13 H                     0.135092
     14 H                     0.142122
     15 H                     0.197318
  ----------------------------------------
  Sum of atomic charges =     0.000000

                    Cartesian Multipole Moments
 -----------------------------------------------------------------
    Charge (ESU x 10^10)
                -0.0000
    Dipole Moment (Debye)
         X       1.3773      Y       0.1827      Z       1.3388
       Tot       1.9294
    Quadrupole Moments (Debye-Ang)
        XX     -49.0015     XY       5.6092     YY     -48.1392
        XZ      -0.3750     YZ       0.5427     ZZ     -48.0844

 Total job time:  17.68s(wall), 806.28s(cpu)
        *  Thank you very much for using Q-Chem.  Have a nice day.  *
