 Q-Chem 5.4, Q-Chem, Inc., Pleasanton, CA (2021)
 Q-Chem 5.4.0 for Intel X86 EM64T Linux

User input:
--------------------------------------------------------------
$molecule
0 1
C	-0.056415	-0.574004	0.006088
C	0.014085	0.267696	1.119088
C	0.130685	1.653696	0.826688
H	-0.018315	-0.119104	2.148988
C	0.151685	1.900996	-0.557512
S	0.024485	0.393196	-1.458612
C	0.219885	2.714596	1.888488
H	0.182285	2.268196	2.901088
H	-0.614415	3.443096	1.814188
H	1.164185	3.293496	1.814288
C	-0.056415	-2.024104	0.006088
H	-0.244015	-2.024604	-1.057512
H	0.867485	-2.559204	-0.156612
H	-0.876915	-2.711304	0.151088
H	0.231885	2.855696	-1.091012
$end

$rem
JOBTYPE		SP
EXCHANGE	HF
CORRELATION	pRIMP2
BASIS		cc-pvtz
METHOD		rimp2
AUX_BASIS	rimp2-cc-pvtz
SOLVENT_METHOD	PCM
PURECART	11111
SYMMETRY	false
MEM_TOTAL	110000
SCF_CONVERGENCE = 6
THRESH=10
GUI = 2
$end

$solvent
dielectric 4.90
$end
--------------------------------------------------------------

             Standard Nuclear Orientation (Angstroms)
    I     Atom           X                Y                Z
 ----------------------------------------------------------------
    1      C      -0.0564150000    -0.5740040000     0.0060880000
    2      C       0.0140850000     0.2676960000     1.1190880000
    3      C       0.1306850000     1.6536960000     0.8266880000
    4      H      -0.0183150000    -0.1191040000     2.1489880000
    5      C       0.1516850000     1.9009960000    -0.5575120000
    6      S       0.0244850000     0.3931960000    -1.4586120000
    7      C       0.2198850000     2.7145960000     1.8884880000
    8      H       0.1822850000     2.2681960000     2.9010880000
    9      H      -0.6144150000     3.4430960000     1.8141880000
   10      H       1.1641850000     3.2934960000     1.8142880000
   11      C      -0.0564150000    -2.0241040000     0.0060880000
   12      H      -0.2440150000    -2.0246040000    -1.0575120000
   13      H       0.8674850000    -2.5592040000    -0.1566120000
   14      H      -0.8769150000    -2.7113040000     0.1510880000
   15      H       0.2318850000     2.8556960000    -1.0910120000
 ----------------------------------------------------------------

   10    -629.4216163093      5.38e-07  Convergence criterion met
 Total energy in the final basis set =     -629.4216163093
        RIMP2         total energy =      -630.5991211758 a.u.

                    Orbital Energies (a.u.)
 --------------------------------------------------------------

 Alpha MOs
 -- Occupied --
-91.9812 -11.2752 -11.2583 -11.2472 -11.2285 -11.2270 -11.2169  -8.9810
 -6.6619  -6.6614  -6.6608  -1.1606  -1.0534  -0.9952  -0.9457  -0.8828
 -0.7476  -0.7182  -0.6473  -0.5909  -0.5752  -0.5657  -0.5537  -0.5463
 -0.5086  -0.4867  -0.4650  -0.4449  -0.3381  -0.3044

          Ground-State Mulliken Net Atomic Charges

     Atom                 Charge (a.u.)
  ----------------------------------------
      1 C                     0.048963
      2 C                    -0.259894
      3 C                     0.038519
      4 H                     0.179344
      5 C                    -0.259125
      6 S                    -0.002107
      7 C                    -0.273257
      8 H                     0.102057
      9 H                     0.106840
     10 H                     0.106896
     11 C                    -0.367900
     12 H                     0.111989
     13 H                     0.124703
     14 H                     0.147065
     15 H                     0.195906
  ----------------------------------------
  Sum of atomic charges =     0.000000

                    Cartesian Multipole Moments
 -----------------------------------------------------------------
    Charge (ESU x 10^10)
                -0.0000
    Dipole Moment (Debye)
         X       0.0288      Y       0.0163      Z       0.8681
       Tot       0.8687
    Quadrupole Moments (Debye-Ang)
        XX     -53.6376     XY       1.0981     YY     -42.1600
        XZ      -0.0500     YZ       1.5431     ZZ     -48.8595

 Total job time:  15.41s(wall), 729.07s(cpu)
        *  Thank you very much for using Q-Chem.  Have a nice day.  *
