 Q-Chem 5.4, Q-Chem, Inc., Pleasanton, CA (2021)
 Q-Chem 5.4.0 for Intel X86 EM64T Linux

User input:
--------------------------------------------------------------
$molecule
0 1
C	-0.110859	-0.566489	0.002537
C	0.032741	0.265811	1.115537
C	0.269641	1.636511	0.823137
H	-0.033259	-0.116589	2.145437
C	0.312141	1.881011	-0.561063
S	0.054041	0.390011	-1.462163
C	0.451041	2.685511	1.884937
H	0.374641	2.244111	2.897537
H	-0.316559	3.484011	1.810637
H	1.442141	3.179911	1.810737
C	-0.110859	-2.016589	0.002537
H	-1.174459	-2.017089	-0.184963
H	0.052241	-2.551689	-0.921363
H	-0.255259	-2.703789	0.823137
H	0.475241	2.825011	-1.094563
$end

$rem
JOBTYPE		SP
EXCHANGE	HF
CORRELATION	pRIMP2
BASIS		cc-pvtz
METHOD		rimp2
AUX_BASIS	rimp2-cc-pvtz
SOLVENT_METHOD	PCM
PURECART	11111
SYMMETRY	false
MEM_TOTAL	110000
SCF_CONVERGENCE = 6
THRESH=10
GUI = 2
$end

$solvent
dielectric 4.90
$end
--------------------------------------------------------------

             Standard Nuclear Orientation (Angstroms)
    I     Atom           X                Y                Z
 ----------------------------------------------------------------
    1      C      -0.1108590000    -0.5664890000     0.0025370000
    2      C       0.0327410000     0.2658110000     1.1155370000
    3      C       0.2696410000     1.6365110000     0.8231370000
    4      H      -0.0332590000    -0.1165890000     2.1454370000
    5      C       0.3121410000     1.8810110000    -0.5610630000
    6      S       0.0540410000     0.3900110000    -1.4621630000
    7      C       0.4510410000     2.6855110000     1.8849370000
    8      H       0.3746410000     2.2441110000     2.8975370000
    9      H      -0.3165590000     3.4840110000     1.8106370000
   10      H       1.4421410000     3.1799110000     1.8107370000
   11      C      -0.1108590000    -2.0165890000     0.0025370000
   12      H      -1.1744590000    -2.0170890000    -0.1849630000
   13      H       0.0522410000    -2.5516890000    -0.9213630000
   14      H      -0.2552590000    -2.7037890000     0.8231370000
   15      H       0.4752410000     2.8250110000    -1.0945630000
 ----------------------------------------------------------------

   10    -629.4216232328      6.67e-07  Convergence criterion met
 Total energy in the final basis set =     -629.4216232328
        RIMP2         total energy =      -630.5973254595 a.u.

                    Orbital Energies (a.u.)
 --------------------------------------------------------------

 Alpha MOs
 -- Occupied --
-91.9793 -11.2839 -11.2504 -11.2470 -11.2264 -11.2229 -11.2217  -8.9790
 -6.6600  -6.6595  -6.6588  -1.1598  -1.0542  -0.9966  -0.9425  -0.8835
 -0.7442  -0.7180  -0.6479  -0.5868  -0.5736  -0.5673  -0.5532  -0.5459
 -0.5080  -0.4954  -0.4636  -0.4566  -0.3382  -0.2894

          Ground-State Mulliken Net Atomic Charges

     Atom                 Charge (a.u.)
  ----------------------------------------
      1 C                     0.047605
      2 C                    -0.290146
      3 C                     0.044090
      4 H                     0.177047
      5 C                    -0.276326
      6 S                     0.000261
      7 C                    -0.273457
      8 H                     0.101468
      9 H                     0.107197
     10 H                     0.107196
     11 C                    -0.381172
     12 H                     0.137266
     13 H                     0.141017
     14 H                     0.163670
     15 H                     0.194284
  ----------------------------------------
  Sum of atomic charges =     0.000000

                    Cartesian Multipole Moments
 -----------------------------------------------------------------
    Charge (ESU x 10^10)
                -0.0000
    Dipole Moment (Debye)
         X      -0.5293      Y      -0.6584      Z       1.2809
       Tot       1.5344
    Quadrupole Moments (Debye-Ang)
        XX     -54.0252     XY       3.0503     YY     -41.9647
        XZ      -0.0661     YZ       0.5360     ZZ     -48.5436

 Total job time:  16.07s(wall), 753.31s(cpu)
        *  Thank you very much for using Q-Chem.  Have a nice day.  *
