 Q-Chem 5.4, Q-Chem, Inc., Pleasanton, CA (2021)
 Q-Chem 5.4.0 for Intel X86 EM64T Linux

User input:
--------------------------------------------------------------
$molecule
0 1
C	-0.232836	-0.536244	0.005194
C	0.053164	0.258456	1.118194
C	0.524464	1.567156	0.825794
H	-0.078336	-0.106644	2.148094
C	0.608764	1.800556	-0.558406
S	0.095664	0.377056	-1.459506
C	0.885264	2.568756	1.887594
H	0.733364	2.147356	2.900194
H	0.267964	3.488456	1.813294
H	1.947164	2.883556	1.813394
C	-0.232836	-1.986344	0.005194
H	0.307164	-1.986844	-0.930106
H	0.579464	-2.521444	0.474494
H	-0.954536	-2.673544	-0.411106
H	0.933264	2.701956	-1.091906
$end

$rem
JOBTYPE		SP
EXCHANGE	HF
CORRELATION	pRIMP2
BASIS		cc-pvtz
METHOD		rimp2
AUX_BASIS	rimp2-cc-pvtz
SOLVENT_METHOD	PCM
PURECART	11111
SYMMETRY	false
MEM_TOTAL	110000
SCF_CONVERGENCE = 6
THRESH=10
GUI = 2
$end

$solvent
dielectric 4.90
$end
--------------------------------------------------------------

             Standard Nuclear Orientation (Angstroms)
    I     Atom           X                Y                Z
 ----------------------------------------------------------------
    1      C      -0.2328360000    -0.5362440000     0.0051940000
    2      C       0.0531640000     0.2584560000     1.1181940000
    3      C       0.5244640000     1.5671560000     0.8257940000
    4      H      -0.0783360000    -0.1066440000     2.1480940000
    5      C       0.6087640000     1.8005560000    -0.5584060000
    6      S       0.0956640000     0.3770560000    -1.4595060000
    7      C       0.8852640000     2.5687560000     1.8875940000
    8      H       0.7333640000     2.1473560000     2.9001940000
    9      H       0.2679640000     3.4884560000     1.8132940000
   10      H       1.9471640000     2.8835560000     1.8133940000
   11      C      -0.2328360000    -1.9863440000     0.0051940000
   12      H       0.3071640000    -1.9868440000    -0.9301060000
   13      H       0.5794640000    -2.5214440000     0.4744940000
   14      H      -0.9545360000    -2.6735440000    -0.4111060000
   15      H       0.9332640000     2.7019560000    -1.0919060000
 ----------------------------------------------------------------

   10    -629.4155926884      5.74e-07  Convergence criterion met
 Total energy in the final basis set =     -629.4155926884
        RIMP2         total energy =      -630.5939424088 a.u.

                    Orbital Energies (a.u.)
 --------------------------------------------------------------

 Alpha MOs
 -- Occupied --
-91.9781 -11.2755 -11.2584 -11.2471 -11.2303 -11.2271 -11.2168  -8.9783
 -6.6592  -6.6586  -6.6580  -1.1620  -1.0540  -0.9949  -0.9445  -0.8823
 -0.7477  -0.7190  -0.6462  -0.5904  -0.5767  -0.5656  -0.5521  -0.5466
 -0.5091  -0.4875  -0.4640  -0.4471  -0.3383  -0.3002

          Ground-State Mulliken Net Atomic Charges

     Atom                 Charge (a.u.)
  ----------------------------------------
      1 C                     0.042648
      2 C                    -0.281123
      3 C                     0.049806
      4 H                     0.179042
      5 C                    -0.257200
      6 S                    -0.003596
      7 C                    -0.271527
      8 H                     0.101849
      9 H                     0.107352
     10 H                     0.106714
     11 C                    -0.372313
     12 H                     0.123048
     13 H                     0.137240
     14 H                     0.143109
     15 H                     0.194952
  ----------------------------------------
  Sum of atomic charges =     0.000000

                    Cartesian Multipole Moments
 -----------------------------------------------------------------
    Charge (ESU x 10^10)
                -0.0000
    Dipole Moment (Debye)
         X       0.8685      Y      -0.1074      Z       0.9636
       Tot       1.3017
    Quadrupole Moments (Debye-Ang)
        XX     -53.0957     XY       2.1722     YY     -43.2566
        XZ       0.4634     YZ       1.5153     ZZ     -48.6968

 Total job time:  18.76s(wall), 745.98s(cpu)
        *  Thank you very much for using Q-Chem.  Have a nice day.  *
