 Q-Chem 5.4, Q-Chem, Inc., Pleasanton, CA (2021)
 Q-Chem 5.4.0 for Intel X86 EM64T Linux

User input:
--------------------------------------------------------------
$molecule
0 1
C	-0.051936	-0.574004	0.000852
C	0.018564	0.267696	1.113852
C	0.135164	1.653696	0.821452
H	-0.013836	-0.119104	2.143752
C	0.156164	1.900996	-0.562748
S	0.028964	0.393196	-1.463848
C	0.224364	2.714596	1.883252
H	0.186764	2.268196	2.895852
H	-0.609936	3.443096	1.808952
H	1.168664	3.293496	1.809052
C	-0.051936	-2.024104	0.000852
H	-1.115536	-2.024604	0.188452
H	-0.214636	-2.559204	-0.923048
H	0.093064	-2.711304	0.821352
H	0.236364	2.855696	-1.096248
$end

$rem
JOBTYPE		SP
EXCHANGE	HF
CORRELATION	pRIMP2
BASIS		cc-pvtz
METHOD		rimp2
AUX_BASIS	rimp2-cc-pvtz
SOLVENT_METHOD	PCM
PURECART	11111
SYMMETRY	false
MEM_TOTAL	110000
SCF_CONVERGENCE = 6
THRESH=10
GUI = 2
$end

$solvent
dielectric 4.90
$end
--------------------------------------------------------------

             Standard Nuclear Orientation (Angstroms)
    I     Atom           X                Y                Z
 ----------------------------------------------------------------
    1      C      -0.0519360000    -0.5740040000     0.0008520000
    2      C       0.0185640000     0.2676960000     1.1138520000
    3      C       0.1351640000     1.6536960000     0.8214520000
    4      H      -0.0138360000    -0.1191040000     2.1437520000
    5      C       0.1561640000     1.9009960000    -0.5627480000
    6      S       0.0289640000     0.3931960000    -1.4638480000
    7      C       0.2243640000     2.7145960000     1.8832520000
    8      H       0.1867640000     2.2681960000     2.8958520000
    9      H      -0.6099360000     3.4430960000     1.8089520000
   10      H       1.1686640000     3.2934960000     1.8090520000
   11      C      -0.0519360000    -2.0241040000     0.0008520000
   12      H      -1.1155360000    -2.0246040000     0.1884520000
   13      H      -0.2146360000    -2.5592040000    -0.9230480000
   14      H       0.0930640000    -2.7113040000     0.8213520000
   15      H       0.2363640000     2.8556960000    -1.0962480000
 ----------------------------------------------------------------

   10    -629.4241373764      6.74e-07  Convergence criterion met
 Total energy in the final basis set =     -629.4241373764
        RIMP2         total energy =      -630.5996014568 a.u.

                    Orbital Energies (a.u.)
 --------------------------------------------------------------

 Alpha MOs
 -- Occupied --
-91.9793 -11.2852 -11.2493 -11.2471 -11.2265 -11.2224 -11.2223  -8.9790
 -6.6600  -6.6594  -6.6588  -1.1597  -1.0543  -0.9974  -0.9413  -0.8838
 -0.7433  -0.7184  -0.6485  -0.5867  -0.5730  -0.5673  -0.5556  -0.5450
 -0.5076  -0.4956  -0.4647  -0.4563  -0.3378  -0.2894

          Ground-State Mulliken Net Atomic Charges

     Atom                 Charge (a.u.)
  ----------------------------------------
      1 C                     0.060859
      2 C                    -0.306827
      3 C                     0.049698
      4 H                     0.174072
      5 C                    -0.279902
      6 S                     0.004685
      7 C                    -0.274467
      8 H                     0.101491
      9 H                     0.107315
     10 H                     0.107248
     11 C                    -0.382964
     12 H                     0.142316
     13 H                     0.140276
     14 H                     0.162995
     15 H                     0.193206
  ----------------------------------------
  Sum of atomic charges =     0.000000

                    Cartesian Multipole Moments
 -----------------------------------------------------------------
    Charge (ESU x 10^10)
                -0.0000
    Dipole Moment (Debye)
         X      -0.6450      Y      -0.7208      Z       1.5166
       Tot       1.7988
    Quadrupole Moments (Debye-Ang)
        XX     -54.2648     XY       2.2938     YY     -41.7868
        XZ       0.1059     YZ       0.0477     ZZ     -48.5498

 Total job time:  15.82s(wall), 742.47s(cpu)
        *  Thank you very much for using Q-Chem.  Have a nice day.  *
