 Q-Chem 5.4, Q-Chem, Inc., Pleasanton, CA (2021)
 Q-Chem 5.4.0 for Intel X86 EM64T Linux

User input:
--------------------------------------------------------------
$molecule
0 1
C	-0.058896	-0.574004	0.005627
C	0.011604	0.267696	1.118627
C	0.128204	1.653696	0.826227
H	-0.020796	-0.119104	2.148527
C	0.149204	1.900996	-0.557973
S	0.022004	0.393196	-1.459073
C	0.217404	2.714596	1.888027
H	0.179804	2.268196	2.900627
H	-0.616896	3.443096	1.813727
H	1.161704	3.293496	1.813827
C	-0.058896	-2.024104	0.005627
H	0.310504	-2.024604	-1.009273
H	0.822604	-2.559204	0.326727
H	-0.841896	-2.711304	-0.279073
H	0.229404	2.855696	-1.091473
$end

$rem
JOBTYPE		SP
EXCHANGE	HF
CORRELATION	pRIMP2
BASIS		cc-pvtz
METHOD		rimp2
AUX_BASIS	rimp2-cc-pvtz
SOLVENT_METHOD	PCM
PURECART	11111
SYMMETRY	false
MEM_TOTAL	110000
SCF_CONVERGENCE = 6
THRESH=10
GUI = 2
$end

$solvent
dielectric 4.90
$end
--------------------------------------------------------------

             Standard Nuclear Orientation (Angstroms)
    I     Atom           X                Y                Z
 ----------------------------------------------------------------
    1      C      -0.0588960000    -0.5740040000     0.0056270000
    2      C       0.0116040000     0.2676960000     1.1186270000
    3      C       0.1282040000     1.6536960000     0.8262270000
    4      H      -0.0207960000    -0.1191040000     2.1485270000
    5      C       0.1492040000     1.9009960000    -0.5579730000
    6      S       0.0220040000     0.3931960000    -1.4590730000
    7      C       0.2174040000     2.7145960000     1.8880270000
    8      H       0.1798040000     2.2681960000     2.9006270000
    9      H      -0.6168960000     3.4430960000     1.8137270000
   10      H       1.1617040000     3.2934960000     1.8138270000
   11      C      -0.0588960000    -2.0241040000     0.0056270000
   12      H       0.3105040000    -2.0246040000    -1.0092730000
   13      H       0.8226040000    -2.5592040000     0.3267270000
   14      H      -0.8418960000    -2.7113040000    -0.2790730000
   15      H       0.2294040000     2.8556960000    -1.0914730000
 ----------------------------------------------------------------

   10    -629.4221741631      5.51e-07  Convergence criterion met
 Total energy in the final basis set =     -629.4221741631
        RIMP2         total energy =      -630.5994380330 a.u.

                    Orbital Energies (a.u.)
 --------------------------------------------------------------

 Alpha MOs
 -- Occupied --
-91.9803 -11.2763 -11.2576 -11.2472 -11.2286 -11.2270 -11.2173  -8.9801
 -6.6611  -6.6606  -6.6599  -1.1607  -1.0535  -0.9953  -0.9453  -0.8828
 -0.7474  -0.7182  -0.6470  -0.5909  -0.5755  -0.5662  -0.5528  -0.5464
 -0.5084  -0.4877  -0.4649  -0.4462  -0.3382  -0.3029

          Ground-State Mulliken Net Atomic Charges

     Atom                 Charge (a.u.)
  ----------------------------------------
      1 C                     0.050540
      2 C                    -0.264191
      3 C                     0.039814
      4 H                     0.179516
      5 C                    -0.259784
      6 S                    -0.002040
      7 C                    -0.273020
      8 H                     0.101959
      9 H                     0.107029
     10 H                     0.106923
     11 C                    -0.369778
     12 H                     0.114020
     13 H                     0.132844
     14 H                     0.140597
     15 H                     0.195570
  ----------------------------------------
  Sum of atomic charges =     0.000000

                    Cartesian Multipole Moments
 -----------------------------------------------------------------
    Charge (ESU x 10^10)
                -0.0000
    Dipole Moment (Debye)
         X       0.3627      Y      -0.0458      Z       0.8936
       Tot       0.9654
    Quadrupole Moments (Debye-Ang)
        XX     -53.7458     XY       0.3047     YY     -42.1514
        XZ       0.2720     YZ       1.5855     ZZ     -48.8170

 Total job time:  20.60s(wall), 759.40s(cpu)
        *  Thank you very much for using Q-Chem.  Have a nice day.  *
