 Q-Chem 5.4, Q-Chem, Inc., Pleasanton, CA (2021)
 Q-Chem 5.4.0 for Intel X86 EM64T Linux

User input:
--------------------------------------------------------------
$molecule
0 1
C	-0.334697	-0.486609	0.005249
C	0.084903	0.246391	1.118249
C	0.776403	1.453391	0.825849
H	-0.107997	-0.090409	2.148149
C	0.899903	1.668591	-0.558351
S	0.147403	0.355791	-1.459451
C	1.305603	2.377091	1.887649
H	1.082803	1.988491	2.900249
H	0.857303	3.389991	1.813349
H	2.406003	2.502691	1.813449
C	-0.334697	-1.936709	0.005249
H	-1.028897	-1.937209	-0.822051
H	0.384103	-2.471809	-0.597651
H	-0.972797	-2.623909	0.541049
H	1.376003	2.499891	-1.091851
$end

$rem
JOBTYPE		SP
EXCHANGE	HF
CORRELATION	pRIMP2
BASIS		cc-pvtz
METHOD		rimp2
AUX_BASIS	rimp2-cc-pvtz
SOLVENT_METHOD	PCM
PURECART	11111
SYMMETRY	false
MEM_TOTAL	110000
SCF_CONVERGENCE = 6
THRESH=10
GUI = 2
$end

$solvent
dielectric 4.90
$end
--------------------------------------------------------------

             Standard Nuclear Orientation (Angstroms)
    I     Atom           X                Y                Z
 ----------------------------------------------------------------
    1      C      -0.3346970000    -0.4866090000     0.0052490000
    2      C       0.0849030000     0.2463910000     1.1182490000
    3      C       0.7764030000     1.4533910000     0.8258490000
    4      H      -0.1079970000    -0.0904090000     2.1481490000
    5      C       0.8999030000     1.6685910000    -0.5583510000
    6      S       0.1474030000     0.3557910000    -1.4594510000
    7      C       1.3056030000     2.3770910000     1.8876490000
    8      H       1.0828030000     1.9884910000     2.9002490000
    9      H       0.8573030000     3.3899910000     1.8133490000
   10      H       2.4060030000     2.5026910000     1.8134490000
   11      C      -0.3346970000    -1.9367090000     0.0052490000
   12      H      -1.0288970000    -1.9372090000    -0.8220510000
   13      H       0.3841030000    -2.4718090000    -0.5976510000
   14      H      -0.9727970000    -2.6239090000     0.5410490000
   15      H       1.3760030000     2.4998910000    -1.0918510000
 ----------------------------------------------------------------

   10    -629.4034734650      5.20e-07  Convergence criterion met
 Total energy in the final basis set =     -629.4034734650
        RIMP2         total energy =      -630.5844318383 a.u.

                    Orbital Energies (a.u.)
 --------------------------------------------------------------

 Alpha MOs
 -- Occupied --
-91.9796 -11.2700 -11.2618 -11.2474 -11.2313 -11.2271 -11.2148  -8.9795
 -6.6604  -6.6599  -6.6593  -1.1624  -1.0530  -0.9949  -0.9442  -0.8826
 -0.7476  -0.7199  -0.6449  -0.5897  -0.5746  -0.5676  -0.5525  -0.5453
 -0.5116  -0.4831  -0.4615  -0.4478  -0.3377  -0.2976

          Ground-State Mulliken Net Atomic Charges

     Atom                 Charge (a.u.)
  ----------------------------------------
      1 C                    -0.013485
      2 C                    -0.227216
      3 C                     0.029438
      4 H                     0.178944
      5 C                    -0.241768
      6 S                    -0.000247
      7 C                    -0.271462
      8 H                     0.101813
      9 H                     0.106943
     10 H                     0.106133
     11 C                    -0.369920
     12 H                     0.116263
     13 H                     0.137102
     14 H                     0.152106
     15 H                     0.195357
  ----------------------------------------
  Sum of atomic charges =     0.000000

                    Cartesian Multipole Moments
 -----------------------------------------------------------------
    Charge (ESU x 10^10)
                -0.0000
    Dipole Moment (Debye)
         X       0.4567      Y       0.0026      Z       1.0788
       Tot       1.1715
    Quadrupole Moments (Debye-Ang)
        XX     -51.7209     XY       4.8729     YY     -44.5001
        XZ      -0.1598     YZ       0.9866     ZZ     -48.5832

 Total job time:  16.40s(wall), 754.21s(cpu)
        *  Thank you very much for using Q-Chem.  Have a nice day.  *
