 Q-Chem 5.4, Q-Chem, Inc., Pleasanton, CA (2021)
 Q-Chem 5.4.0 for Intel X86 EM64T Linux

User input:
--------------------------------------------------------------
$molecule
0 1
C	-0.279967	-0.513776	0.001702
C	0.074233	0.253024	1.114702
C	0.657833	1.515624	0.822302
H	-0.088667	-0.099276	2.144602
C	0.762033	1.740824	-0.561898
S	0.126933	0.367424	-1.462998
C	1.104433	2.482024	1.884102
H	0.916433	2.075424	2.896702
H	0.569633	3.451924	1.809802
H	2.189833	2.703024	1.809902
C	-0.279967	-1.963876	0.001702
H	-1.359967	-1.964376	0.001702
H	-0.279767	-2.498976	-0.936398
H	-0.279667	-2.651076	0.834902
H	1.163933	2.610424	-1.095398
$end

$rem
JOBTYPE		SP
EXCHANGE	HF
CORRELATION	pRIMP2
BASIS		cc-pvtz
METHOD		rimp2
AUX_BASIS	rimp2-cc-pvtz
SOLVENT_METHOD	PCM
PURECART	11111
SYMMETRY	false
MEM_TOTAL	110000
SCF_CONVERGENCE = 6
THRESH=10
GUI = 2
$end

$solvent
dielectric 4.90
$end
--------------------------------------------------------------

             Standard Nuclear Orientation (Angstroms)
    I     Atom           X                Y                Z
 ----------------------------------------------------------------
    1      C      -0.2799670000    -0.5137760000     0.0017020000
    2      C       0.0742330000     0.2530240000     1.1147020000
    3      C       0.6578330000     1.5156240000     0.8223020000
    4      H      -0.0886670000    -0.0992760000     2.1446020000
    5      C       0.7620330000     1.7408240000    -0.5618980000
    6      S       0.1269330000     0.3674240000    -1.4629980000
    7      C       1.1044330000     2.4820240000     1.8841020000
    8      H       0.9164330000     2.0754240000     2.8967020000
    9      H       0.5696330000     3.4519240000     1.8098020000
   10      H       2.1898330000     2.7030240000     1.8099020000
   11      C      -0.2799670000    -1.9638760000     0.0017020000
   12      H      -1.3599670000    -1.9643760000     0.0017020000
   13      H      -0.2797670000    -2.4989760000    -0.9363980000
   14      H      -0.2796670000    -2.6510760000     0.8349020000
   15      H       1.1639330000     2.6104240000    -1.0953980000
 ----------------------------------------------------------------

   10    -629.4077176382      5.89e-07  Convergence criterion met
 Total energy in the final basis set =     -629.4077176382
        RIMP2         total energy =      -630.5871727746 a.u.

                    Orbital Energies (a.u.)
 --------------------------------------------------------------

 Alpha MOs
 -- Occupied --
-91.9779 -11.2784 -11.2539 -11.2472 -11.2267 -11.2267 -11.2181  -8.9778
 -6.6587  -6.6582  -6.6576  -1.1607  -1.0533  -0.9964  -0.9417  -0.8836
 -0.7443  -0.7195  -0.6464  -0.5854  -0.5731  -0.5673  -0.5543  -0.5445
 -0.5104  -0.4953  -0.4574  -0.4546  -0.3375  -0.2881

          Ground-State Mulliken Net Atomic Charges

     Atom                 Charge (a.u.)
  ----------------------------------------
      1 C                     0.026852
      2 C                    -0.282784
      3 C                     0.048643
      4 H                     0.176159
      5 C                    -0.270265
      6 S                     0.005402
      7 C                    -0.270934
      8 H                     0.101563
      9 H                     0.107154
     10 H                     0.106647
     11 C                    -0.378796
     12 H                     0.134228
     13 H                     0.141574
     14 H                     0.160989
     15 H                     0.193568
  ----------------------------------------
  Sum of atomic charges =     0.000000

                    Cartesian Multipole Moments
 -----------------------------------------------------------------
    Charge (ESU x 10^10)
                -0.0000
    Dipole Moment (Debye)
         X      -0.1655      Y      -0.4922      Z       1.4647
       Tot       1.5541
    Quadrupole Moments (Debye-Ang)
        XX     -52.6254     XY       4.9010     YY     -43.6261
        XZ       0.1012     YZ       0.2068     ZZ     -48.3946

 Total job time:  16.47s(wall), 760.13s(cpu)
        *  Thank you very much for using Q-Chem.  Have a nice day.  *
