 Q-Chem 5.4, Q-Chem, Inc., Pleasanton, CA (2021)
 Q-Chem 5.4.0 for Intel X86 EM64T Linux

User input:
--------------------------------------------------------------
$molecule
0 1
C	-0.175533	-0.553870	0.005627
C	0.040067	0.262730	1.118627
C	0.395567	1.607530	0.826227
H	-0.059033	-0.112470	2.148527
C	0.459167	1.847430	-0.557973
S	0.072067	0.384630	-1.459073
C	0.667667	2.636830	1.888027
H	0.553067	2.203730	2.900627
H	-0.027433	3.499130	1.813727
H	1.698167	3.042930	1.813827
C	-0.175533	-2.003970	0.005627
H	0.193867	-2.004470	-1.009273
H	0.705967	-2.539070	0.326727
H	-0.958533	-2.691170	-0.279073
H	0.703967	2.773630	-1.091473
$end

$rem
JOBTYPE		SP
EXCHANGE	HF
CORRELATION	pRIMP2
BASIS		cc-pvtz
METHOD		rimp2
AUX_BASIS	rimp2-cc-pvtz
SOLVENT_METHOD	PCM
PURECART	11111
SYMMETRY	false
MEM_TOTAL	110000
SCF_CONVERGENCE = 6
THRESH=10
GUI = 2
$end

$solvent
dielectric 4.90
$end
--------------------------------------------------------------

             Standard Nuclear Orientation (Angstroms)
    I     Atom           X                Y                Z
 ----------------------------------------------------------------
    1      C      -0.1755330000    -0.5538700000     0.0056270000
    2      C       0.0400670000     0.2627300000     1.1186270000
    3      C       0.3955670000     1.6075300000     0.8262270000
    4      H      -0.0590330000    -0.1124700000     2.1485270000
    5      C       0.4591670000     1.8474300000    -0.5579730000
    6      S       0.0720670000     0.3846300000    -1.4590730000
    7      C       0.6676670000     2.6368300000     1.8880270000
    8      H       0.5530670000     2.2037300000     2.9006270000
    9      H      -0.0274330000     3.4991300000     1.8137270000
   10      H       1.6981670000     3.0429300000     1.8138270000
   11      C      -0.1755330000    -2.0039700000     0.0056270000
   12      H       0.1938670000    -2.0044700000    -1.0092730000
   13      H       0.7059670000    -2.5390700000     0.3267270000
   14      H      -0.9585330000    -2.6911700000    -0.2790730000
   15      H       0.7039670000     2.7736300000    -1.0914730000
 ----------------------------------------------------------------

   10    -629.4183772090      5.52e-07  Convergence criterion met
 Total energy in the final basis set =     -629.4183772090
        RIMP2         total energy =      -630.5964316608 a.u.

                    Orbital Energies (a.u.)
 --------------------------------------------------------------

 Alpha MOs
 -- Occupied --
-91.9795 -11.2751 -11.2585 -11.2472 -11.2297 -11.2271 -11.2167  -8.9795
 -6.6604  -6.6599  -6.6593  -1.1613  -1.0537  -0.9950  -0.9451  -0.8825
 -0.7478  -0.7186  -0.6466  -0.5908  -0.5760  -0.5657  -0.5527  -0.5465
 -0.5089  -0.4868  -0.4645  -0.4458  -0.3380  -0.3027

          Ground-State Mulliken Net Atomic Charges

     Atom                 Charge (a.u.)
  ----------------------------------------
      1 C                     0.045010
      2 C                    -0.270772
      3 C                     0.045909
      4 H                     0.178914
      5 C                    -0.258591
      6 S                    -0.002887
      7 C                    -0.272263
      8 H                     0.101925
      9 H                     0.107157
     10 H                     0.106772
     11 C                    -0.369774
     12 H                     0.116879
     13 H                     0.133537
     14 H                     0.142615
     15 H                     0.195570
  ----------------------------------------
  Sum of atomic charges =     0.000000

                    Cartesian Multipole Moments
 -----------------------------------------------------------------
    Charge (ESU x 10^10)
                -0.0000
    Dipole Moment (Debye)
         X       0.6337      Y      -0.0314      Z       0.9099
       Tot       1.1093
    Quadrupole Moments (Debye-Ang)
        XX     -53.3234     XY       1.7714     YY     -42.7806
        XZ       0.3654     YZ       1.5688     ZZ     -48.7717

 Total job time:  31.57s(wall), 732.04s(cpu)
        *  Thank you very much for using Q-Chem.  Have a nice day.  *
