 Q-Chem 5.4, Q-Chem, Inc., Pleasanton, CA (2021)
 Q-Chem 5.4.0 for Intel X86 EM64T Linux

User input:
--------------------------------------------------------------
$molecule
0 1
C	-0.521480	-0.335659	0.005194
C	0.123520	0.209641	1.118194
C	1.186120	1.107341	0.825794
H	-0.172880	-0.040859	2.148094
C	1.375720	1.267341	-0.558406
S	0.219720	0.291041	-1.459506
C	1.999320	1.794341	1.887594
H	1.657120	1.505341	2.900194
H	1.924520	2.899441	1.813294
H	3.076320	1.535941	1.813394
C	-0.521480	-1.785759	0.005194
H	0.018520	-1.786259	-0.930106
H	0.290820	-2.320859	0.474494
H	-1.243180	-2.472959	-0.411106
H	2.107520	1.885641	-1.091906
$end

$rem
JOBTYPE		SP
EXCHANGE	HF
CORRELATION	pRIMP2
BASIS		cc-pvtz
METHOD		rimp2
AUX_BASIS	rimp2-cc-pvtz
SOLVENT_METHOD	PCM
PURECART	11111
SYMMETRY	false
MEM_TOTAL	110000
SCF_CONVERGENCE = 6
THRESH=10
GUI = 2
$end

$solvent
dielectric 4.90
$end
--------------------------------------------------------------

             Standard Nuclear Orientation (Angstroms)
    I     Atom           X                Y                Z
 ----------------------------------------------------------------
    1      C      -0.5214800000    -0.3356590000     0.0051940000
    2      C       0.1235200000     0.2096410000     1.1181940000
    3      C       1.1861200000     1.1073410000     0.8257940000
    4      H      -0.1728800000    -0.0408590000     2.1480940000
    5      C       1.3757200000     1.2673410000    -0.5584060000
    6      S       0.2197200000     0.2910410000    -1.4595060000
    7      C       1.9993200000     1.7943410000     1.8875940000
    8      H       1.6571200000     1.5053410000     2.9001940000
    9      H       1.9245200000     2.8994410000     1.8132940000
   10      H       3.0763200000     1.5359410000     1.8133940000
   11      C      -0.5214800000    -1.7857590000     0.0051940000
   12      H       0.0185200000    -1.7862590000    -0.9301060000
   13      H       0.2908200000    -2.3208590000     0.4744940000
   14      H      -1.2431800000    -2.4729590000    -0.4111060000
   15      H       2.1075200000     1.8856410000    -1.0919060000
 ----------------------------------------------------------------

   10    -629.3673432549      7.49e-07  Convergence criterion met
 Total energy in the final basis set =     -629.3673432549
        RIMP2         total energy =      -630.5549120931 a.u.

                    Orbital Energies (a.u.)
 --------------------------------------------------------------

 Alpha MOs
 -- Occupied --
-91.9724 -11.2734 -11.2578 -11.2479 -11.2447 -11.2284 -11.2086  -8.9738
 -6.6546  -6.6538  -6.6534  -1.1707  -1.0561  -0.9942  -0.9430  -0.8794
 -0.7529  -0.7247  -0.6435  -0.5894  -0.5808  -0.5653  -0.5512  -0.5470
 -0.5145  -0.4782  -0.4620  -0.4374  -0.3345  -0.2988

          Ground-State Mulliken Net Atomic Charges

     Atom                 Charge (a.u.)
  ----------------------------------------
      1 C                    -0.047770
      2 C                    -0.183083
      3 C                     0.008682
      4 H                     0.181459
      5 C                    -0.212266
      6 S                    -0.002131
      7 C                    -0.268442
      8 H                     0.101932
      9 H                     0.107531
     10 H                     0.105178
     11 C                    -0.379201
     12 H                     0.133458
     13 H                     0.131679
     14 H                     0.126212
     15 H                     0.196761
  ----------------------------------------
  Sum of atomic charges =     0.000000

                    Cartesian Multipole Moments
 -----------------------------------------------------------------
    Charge (ESU x 10^10)
                -0.0000
    Dipole Moment (Debye)
         X       2.1197      Y       0.1126      Z       1.1801
       Tot       2.4287
    Quadrupole Moments (Debye-Ang)
        XX     -49.5762     XY       3.9541     YY     -48.4272
        XZ       0.3840     YZ       1.3431     ZZ     -48.1369

 Total job time:  16.72s(wall), 772.99s(cpu)
        *  Thank you very much for using Q-Chem.  Have a nice day.  *
