 Q-Chem 5.4, Q-Chem, Inc., Pleasanton, CA (2021)
 Q-Chem 5.4.0 for Intel X86 EM64T Linux

User input:
--------------------------------------------------------------
$molecule
0 1
C	-0.061229	-0.574004	0.003247
C	0.009271	0.267696	1.116247
C	0.125871	1.653696	0.823847
H	-0.023129	-0.119104	2.146147
C	0.146871	1.900996	-0.560353
S	0.019671	0.393196	-1.461453
C	0.215071	2.714596	1.885647
H	0.177471	2.268196	2.898247
H	-0.619229	3.443096	1.811347
H	1.159371	3.293496	1.811447
C	-0.061229	-2.024104	0.003247
H	0.874071	-2.024604	-0.536753
H	0.407671	-2.559204	0.815847
H	-0.478129	-2.711304	-0.718153
H	0.227071	2.855696	-1.093853
$end

$rem
JOBTYPE		SP
EXCHANGE	HF
CORRELATION	pRIMP2
BASIS		cc-pvtz
METHOD		rimp2
AUX_BASIS	rimp2-cc-pvtz
SOLVENT_METHOD	PCM
PURECART	11111
SYMMETRY	false
MEM_TOTAL	110000
SCF_CONVERGENCE = 6
THRESH=10
GUI = 2
$end

$solvent
dielectric 4.90
$end
--------------------------------------------------------------

             Standard Nuclear Orientation (Angstroms)
    I     Atom           X                Y                Z
 ----------------------------------------------------------------
    1      C      -0.0612290000    -0.5740040000     0.0032470000
    2      C       0.0092710000     0.2676960000     1.1162470000
    3      C       0.1258710000     1.6536960000     0.8238470000
    4      H      -0.0231290000    -0.1191040000     2.1461470000
    5      C       0.1468710000     1.9009960000    -0.5603530000
    6      S       0.0196710000     0.3931960000    -1.4614530000
    7      C       0.2150710000     2.7145960000     1.8856470000
    8      H       0.1774710000     2.2681960000     2.8982470000
    9      H      -0.6192290000     3.4430960000     1.8113470000
   10      H       1.1593710000     3.2934960000     1.8114470000
   11      C      -0.0612290000    -2.0241040000     0.0032470000
   12      H       0.8740710000    -2.0246040000    -0.5367530000
   13      H       0.4076710000    -2.5592040000     0.8158470000
   14      H      -0.4781290000    -2.7113040000    -0.7181530000
   15      H       0.2270710000     2.8556960000    -1.0938530000
 ----------------------------------------------------------------

   10    -629.4255899059      6.52e-07  Convergence criterion met
 Total energy in the final basis set =     -629.4255899059
        RIMP2         total energy =      -630.6008265998 a.u.

                    Orbital Energies (a.u.)
 --------------------------------------------------------------

 Alpha MOs
 -- Occupied --
-91.9781 -11.2835 -11.2521 -11.2470 -11.2267 -11.2251 -11.2217  -8.9781
 -6.6591  -6.6585  -6.6579  -1.1604  -1.0544  -0.9963  -0.9432  -0.8832
 -0.7453  -0.7181  -0.6468  -0.5900  -0.5761  -0.5675  -0.5505  -0.5466
 -0.5074  -0.4935  -0.4659  -0.4540  -0.3389  -0.2930

          Ground-State Mulliken Net Atomic Charges

     Atom                 Charge (a.u.)
  ----------------------------------------
      1 C                     0.054828
      2 C                    -0.295045
      3 C                     0.046435
      4 H                     0.180030
      5 C                    -0.269706
      6 S                    -0.006159
      7 C                    -0.273225
      8 H                     0.101501
      9 H                     0.107356
     10 H                     0.107284
     11 C                    -0.373949
     12 H                     0.132387
     13 H                     0.141181
     14 H                     0.153060
     15 H                     0.194023
  ----------------------------------------
  Sum of atomic charges =     0.000000

                    Cartesian Multipole Moments
 -----------------------------------------------------------------
    Charge (ESU x 10^10)
                -0.0000
    Dipole Moment (Debye)
         X       0.7203      Y      -0.5372      Z       1.1082
       Tot       1.4267
    Quadrupole Moments (Debye-Ang)
        XX     -54.2691     XY      -0.5324     YY     -41.7857
        XZ       0.3304     YZ       1.2107     ZZ     -48.6640

 Total job time:  16.36s(wall), 772.14s(cpu)
        *  Thank you very much for using Q-Chem.  Have a nice day.  *
