 Q-Chem 5.4, Q-Chem, Inc., Pleasanton, CA (2021)
 Q-Chem 5.4.0 for Intel X86 EM64T Linux

User input:
--------------------------------------------------------------
$molecule
0 1
C	-0.332759	-0.486609	0.002537
C	0.086841	0.246391	1.115537
C	0.778341	1.453391	0.823137
H	-0.106059	-0.090409	2.145437
C	0.901841	1.668591	-0.561063
S	0.149341	0.355791	-1.462163
C	1.307541	2.377091	1.884937
H	1.084741	1.988491	2.897537
H	0.859241	3.389991	1.810637
H	2.407941	2.502691	1.810737
C	-0.332759	-1.936709	0.002537
H	-1.396359	-1.937209	-0.184963
H	-0.169659	-2.471809	-0.921363
H	-0.477159	-2.623909	0.823137
H	1.377941	2.499891	-1.094563
$end

$rem
JOBTYPE		SP
EXCHANGE	HF
CORRELATION	pRIMP2
BASIS		cc-pvtz
METHOD		rimp2
AUX_BASIS	rimp2-cc-pvtz
SOLVENT_METHOD	PCM
PURECART	11111
SYMMETRY	false
MEM_TOTAL	110000
SCF_CONVERGENCE = 6
THRESH=10
GUI = 2
$end

$solvent
dielectric 4.90
$end
--------------------------------------------------------------

             Standard Nuclear Orientation (Angstroms)
    I     Atom           X                Y                Z
 ----------------------------------------------------------------
    1      C      -0.3327590000    -0.4866090000     0.0025370000
    2      C       0.0868410000     0.2463910000     1.1155370000
    3      C       0.7783410000     1.4533910000     0.8231370000
    4      H      -0.1060590000    -0.0904090000     2.1454370000
    5      C       0.9018410000     1.6685910000    -0.5610630000
    6      S       0.1493410000     0.3557910000    -1.4621630000
    7      C       1.3075410000     2.3770910000     1.8849370000
    8      H       1.0847410000     1.9884910000     2.8975370000
    9      H       0.8592410000     3.3899910000     1.8106370000
   10      H       2.4079410000     2.5026910000     1.8107370000
   11      C      -0.3327590000    -1.9367090000     0.0025370000
   12      H      -1.3963590000    -1.9372090000    -0.1849630000
   13      H      -0.1696590000    -2.4718090000    -0.9213630000
   14      H      -0.4771590000    -2.6239090000     0.8231370000
   15      H       1.3779410000     2.4998910000    -1.0945630000
 ----------------------------------------------------------------

   10    -629.4006498066      5.51e-07  Convergence criterion met
 Total energy in the final basis set =     -629.4006498066
        RIMP2         total energy =      -630.5816282854 a.u.

                    Orbital Energies (a.u.)
 --------------------------------------------------------------

 Alpha MOs
 -- Occupied --
-91.9777 -11.2750 -11.2564 -11.2472 -11.2284 -11.2268 -11.2163  -8.9777
 -6.6586  -6.6580  -6.6574  -1.1614  -1.0531  -0.9958  -0.9420  -0.8832
 -0.7451  -0.7198  -0.6454  -0.5857  -0.5731  -0.5679  -0.5532  -0.5444
 -0.5111  -0.4938  -0.4569  -0.4524  -0.3373  -0.2880

          Ground-State Mulliken Net Atomic Charges

     Atom                 Charge (a.u.)
  ----------------------------------------
      1 C                     0.008476
      2 C                    -0.262362
      3 C                     0.044044
      4 H                     0.178257
      5 C                    -0.262961
      6 S                     0.003220
      7 C                    -0.270751
      8 H                     0.101524
      9 H                     0.107075
     10 H                     0.106311
     11 C                    -0.379433
     12 H                     0.131054
     13 H                     0.142822
     14 H                     0.158280
     15 H                     0.194446
  ----------------------------------------
  Sum of atomic charges =     0.000000

                    Cartesian Multipole Moments
 -----------------------------------------------------------------
    Charge (ESU x 10^10)
                -0.0000
    Dipole Moment (Debye)
         X       0.0381      Y      -0.3787      Z       1.3801
       Tot       1.4317
    Quadrupole Moments (Debye-Ang)
        XX     -51.9911     XY       5.2938     YY     -44.3987
        XZ      -0.0034     YZ       0.3766     ZZ     -48.3415

 Total job time:  15.74s(wall), 748.41s(cpu)
        *  Thank you very much for using Q-Chem.  Have a nice day.  *
