 Q-Chem 5.4, Q-Chem, Inc., Pleasanton, CA (2021)
 Q-Chem 5.4.0 for Intel X86 EM64T Linux

User input:
--------------------------------------------------------------
$molecule
0 1
C	-0.431894	-0.419059	0.005249
C	0.108606	0.229941	1.118249
C	0.999106	1.298441	0.825849
H	-0.139794	-0.068259	2.148149
C	1.158206	1.489041	-0.558351
S	0.189206	0.326841	-1.459451
C	1.680706	2.116341	1.887649
H	1.393906	1.772241	2.900249
H	1.415206	3.191641	1.813349
H	2.786306	2.048841	1.813449
C	-0.431894	-1.869159	0.005249
H	-1.126094	-1.869659	-0.822051
H	0.286906	-2.404259	-0.597651
H	-1.069994	-2.556359	0.541049
H	1.771406	2.225041	-1.091851
$end

$rem
JOBTYPE		SP
EXCHANGE	HF
CORRELATION	pRIMP2
BASIS		cc-pvtz
METHOD		rimp2
AUX_BASIS	rimp2-cc-pvtz
SOLVENT_METHOD	PCM
PURECART	11111
SYMMETRY	false
MEM_TOTAL	110000
SCF_CONVERGENCE = 6
THRESH=10
GUI = 2
$end

$solvent
dielectric 4.90
$end
--------------------------------------------------------------

             Standard Nuclear Orientation (Angstroms)
    I     Atom           X                Y                Z
 ----------------------------------------------------------------
    1      C      -0.4318940000    -0.4190590000     0.0052490000
    2      C       0.1086060000     0.2299410000     1.1182490000
    3      C       0.9991060000     1.2984410000     0.8258490000
    4      H      -0.1397940000    -0.0682590000     2.1481490000
    5      C       1.1582060000     1.4890410000    -0.5583510000
    6      S       0.1892060000     0.3268410000    -1.4594510000
    7      C       1.6807060000     2.1163410000     1.8876490000
    8      H       1.3939060000     1.7722410000     2.9002490000
    9      H       1.4152060000     3.1916410000     1.8133490000
   10      H       2.7863060000     2.0488410000     1.8134490000
   11      C      -0.4318940000    -1.8691590000     0.0052490000
   12      H      -1.1260940000    -1.8696590000    -0.8220510000
   13      H       0.2869060000    -2.4042590000    -0.5976510000
   14      H      -1.0699940000    -2.5563590000     0.5410490000
   15      H       1.7714060000     2.2250410000    -1.0918510000
 ----------------------------------------------------------------

   10    -629.3886375254      6.11e-07  Convergence criterion met
 Total energy in the final basis set =     -629.3886375254
        RIMP2         total energy =      -630.5727263919 a.u.

                    Orbital Energies (a.u.)
 --------------------------------------------------------------

 Alpha MOs
 -- Occupied --
-91.9787 -11.2674 -11.2626 -11.2478 -11.2359 -11.2275 -11.2123  -8.9788
 -6.6597  -6.6591  -6.6586  -1.1646  -1.0530  -0.9947  -0.9438  -0.8822
 -0.7489  -0.7218  -0.6434  -0.5899  -0.5752  -0.5681  -0.5521  -0.5449
 -0.5137  -0.4798  -0.4589  -0.4448  -0.3370  -0.2975

          Ground-State Mulliken Net Atomic Charges

     Atom                 Charge (a.u.)
  ----------------------------------------
      1 C                    -0.042353
      2 C                    -0.196701
      3 C                     0.020045
      4 H                     0.179284
      5 C                    -0.227102
      6 S                     0.003154
      7 C                    -0.270302
      8 H                     0.101814
      9 H                     0.106946
     10 H                     0.105449
     11 C                    -0.372799
     12 H                     0.113386
     13 H                     0.136939
     14 H                     0.146184
     15 H                     0.196057
  ----------------------------------------
  Sum of atomic charges =     0.000000

                    Cartesian Multipole Moments
 -----------------------------------------------------------------
    Charge (ESU x 10^10)
                -0.0000
    Dipole Moment (Debye)
         X       0.9137      Y       0.1399      Z       1.1703
       Tot       1.4913
    Quadrupole Moments (Debye-Ang)
        XX     -50.3568     XY       5.4310     YY     -46.2431
        XZ      -0.2082     YZ       0.8092     ZZ     -48.4174

 Total job time:  15.90s(wall), 765.37s(cpu)
        *  Thank you very much for using Q-Chem.  Have a nice day.  *
