 Q-Chem 5.4, Q-Chem, Inc., Pleasanton, CA (2021)
 Q-Chem 5.4.0 for Intel X86 EM64T Linux

User input:
--------------------------------------------------------------
$molecule
0 1
C	-0.523083	-0.335659	0.003247
C	0.121917	0.209641	1.116247
C	1.184517	1.107341	0.823847
H	-0.174483	-0.040859	2.146147
C	1.374117	1.267341	-0.560353
S	0.218117	0.291041	-1.461453
C	1.997717	1.794341	1.885647
H	1.655517	1.505341	2.898247
H	1.922917	2.899441	1.811347
H	3.074717	1.535941	1.811447
C	-0.523083	-1.785759	0.003247
H	0.412217	-1.786259	-0.536753
H	-0.054183	-2.320859	0.815847
H	-0.939983	-2.472959	-0.718153
H	2.105917	1.885641	-1.093853
$end

$rem
JOBTYPE		SP
EXCHANGE	HF
CORRELATION	pRIMP2
BASIS		cc-pvtz
METHOD		rimp2
AUX_BASIS	rimp2-cc-pvtz
SOLVENT_METHOD	PCM
PURECART	11111
SYMMETRY	false
MEM_TOTAL	110000
SCF_CONVERGENCE = 6
THRESH=10
GUI = 2
$end

$solvent
dielectric 4.90
$end
--------------------------------------------------------------

             Standard Nuclear Orientation (Angstroms)
    I     Atom           X                Y                Z
 ----------------------------------------------------------------
    1      C      -0.5230830000    -0.3356590000     0.0032470000
    2      C       0.1219170000     0.2096410000     1.1162470000
    3      C       1.1845170000     1.1073410000     0.8238470000
    4      H      -0.1744830000    -0.0408590000     2.1461470000
    5      C       1.3741170000     1.2673410000    -0.5603530000
    6      S       0.2181170000     0.2910410000    -1.4614530000
    7      C       1.9977170000     1.7943410000     1.8856470000
    8      H       1.6555170000     1.5053410000     2.8982470000
    9      H       1.9229170000     2.8994410000     1.8113470000
   10      H       3.0747170000     1.5359410000     1.8114470000
   11      C      -0.5230830000    -1.7857590000     0.0032470000
   12      H       0.4122170000    -1.7862590000    -0.5367530000
   13      H      -0.0541830000    -2.3208590000     0.8158470000
   14      H      -0.9399830000    -2.4729590000    -0.7181530000
   15      H       2.1059170000     1.8856410000    -1.0938530000
 ----------------------------------------------------------------

   10    -629.3737426221      5.82e-07  Convergence criterion met
 Total energy in the final basis set =     -629.3737426221
        RIMP2         total energy =      -630.5602152992 a.u.

                    Orbital Energies (a.u.)
 --------------------------------------------------------------

 Alpha MOs
 -- Occupied --
-91.9714 -11.2703 -11.2654 -11.2493 -11.2409 -11.2286 -11.2143  -8.9728
 -6.6537  -6.6529  -6.6525  -1.1715  -1.0569  -0.9954  -0.9407  -0.8806
 -0.7509  -0.7253  -0.6435  -0.5881  -0.5842  -0.5655  -0.5517  -0.5459
 -0.5111  -0.4924  -0.4603  -0.4396  -0.3395  -0.2913

          Ground-State Mulliken Net Atomic Charges

     Atom                 Charge (a.u.)
  ----------------------------------------
      1 C                    -0.019062
      2 C                    -0.221710
      3 C                     0.017506
      4 H                     0.181421
      5 C                    -0.223018
      6 S                    -0.005971
      7 C                    -0.268540
      8 H                     0.102006
      9 H                     0.107961
     10 H                     0.106112
     11 C                    -0.370033
     12 H                     0.132886
     13 H                     0.131590
     14 H                     0.133371
     15 H                     0.195479
  ----------------------------------------
  Sum of atomic charges =     0.000000

                    Cartesian Multipole Moments
 -----------------------------------------------------------------
    Charge (ESU x 10^10)
                -0.0000
    Dipole Moment (Debye)
         X       2.1655      Y      -0.1644      Z       1.4473
       Tot       2.6098
    Quadrupole Moments (Debye-Ang)
        XX     -50.0349     XY       3.7488     YY     -48.0567
        XZ       0.3385     YZ       0.8763     ZZ     -48.2067

 Total job time:  16.51s(wall), 780.91s(cpu)
        *  Thank you very much for using Q-Chem.  Have a nice day.  *
