 Q-Chem 5.4, Q-Chem, Inc., Pleasanton, CA (2021)
 Q-Chem 5.4.0 for Intel X86 EM64T Linux

User input:
--------------------------------------------------------------
$molecule
0 1
C	-0.432634	-0.419059	0.005666
C	0.107866	0.229941	1.118666
C	0.998366	1.298441	0.826266
H	-0.140534	-0.068259	2.148566
C	1.157466	1.489041	-0.557934
S	0.188466	0.326841	-1.459034
C	1.679966	2.116341	1.888066
H	1.393166	1.772241	2.900666
H	1.414466	3.191641	1.813766
H	2.785566	2.048841	1.813866
C	-0.432634	-1.869159	0.005666
H	-0.972634	-1.869659	-0.929634
H	0.379966	-2.404259	-0.463234
H	-1.154034	-2.556359	0.422566
H	1.770666	2.225041	-1.091434
$end

$rem
JOBTYPE		SP
EXCHANGE	HF
CORRELATION	pRIMP2
BASIS		cc-pvtz
METHOD		rimp2
AUX_BASIS	rimp2-cc-pvtz
SOLVENT_METHOD	PCM
PURECART	11111
SYMMETRY	false
MEM_TOTAL	110000
SCF_CONVERGENCE = 6
THRESH=10
GUI = 2
$end

$solvent
dielectric 4.90
$end
--------------------------------------------------------------

             Standard Nuclear Orientation (Angstroms)
    I     Atom           X                Y                Z
 ----------------------------------------------------------------
    1      C      -0.4326340000    -0.4190590000     0.0056660000
    2      C       0.1078660000     0.2299410000     1.1186660000
    3      C       0.9983660000     1.2984410000     0.8262660000
    4      H      -0.1405340000    -0.0682590000     2.1485660000
    5      C       1.1574660000     1.4890410000    -0.5579340000
    6      S       0.1884660000     0.3268410000    -1.4590340000
    7      C       1.6799660000     2.1163410000     1.8880660000
    8      H       1.3931660000     1.7722410000     2.9006660000
    9      H       1.4144660000     3.1916410000     1.8137660000
   10      H       2.7855660000     2.0488410000     1.8138660000
   11      C      -0.4326340000    -1.8691590000     0.0056660000
   12      H      -0.9726340000    -1.8696590000    -0.9296340000
   13      H       0.3799660000    -2.4042590000    -0.4632340000
   14      H      -1.1540340000    -2.5563590000     0.4225660000
   15      H       1.7706660000     2.2250410000    -1.0914340000
 ----------------------------------------------------------------

   10    -629.3899501056      6.06e-07  Convergence criterion met
 Total energy in the final basis set =     -629.3899501056
        RIMP2         total energy =      -630.5740037955 a.u.

                    Orbital Energies (a.u.)
 --------------------------------------------------------------

 Alpha MOs
 -- Occupied --
-91.9790 -11.2684 -11.2616 -11.2479 -11.2367 -11.2276 -11.2124  -8.9791
 -6.6600  -6.6594  -6.6589  -1.1649  -1.0532  -0.9945  -0.9442  -0.8819
 -0.7496  -0.7219  -0.6436  -0.5906  -0.5758  -0.5678  -0.5521  -0.5454
 -0.5138  -0.4764  -0.4603  -0.4439  -0.3367  -0.3009

          Ground-State Mulliken Net Atomic Charges

     Atom                 Charge (a.u.)
  ----------------------------------------
      1 C                    -0.039785
      2 C                    -0.196925
      3 C                     0.019769
      4 H                     0.178793
      5 C                    -0.226924
      6 S                     0.004099
      7 C                    -0.270142
      8 H                     0.101959
      9 H                     0.106884
     10 H                     0.105427
     11 C                    -0.366276
     12 H                     0.109076
     13 H                     0.133742
     14 H                     0.143993
     15 H                     0.196311
  ----------------------------------------
  Sum of atomic charges =     0.000000

                    Cartesian Multipole Moments
 -----------------------------------------------------------------
    Charge (ESU x 10^10)
                -0.0000
    Dipole Moment (Debye)
         X       1.0356      Y       0.2062      Z       1.1249
       Tot       1.5428
    Quadrupole Moments (Debye-Ang)
        XX     -50.3159     XY       5.2787     YY     -46.2684
        XZ      -0.1321     YZ       0.9216     ZZ     -48.4775

 Total job time:  15.91s(wall), 761.13s(cpu)
        *  Thank you very much for using Q-Chem.  Have a nice day.  *
