 Q-Chem 5.4, Q-Chem, Inc., Pleasanton, CA (2021)
 Q-Chem 5.4.0 for Intel X86 EM64T Linux

User input:
--------------------------------------------------------------
$molecule
0 1
C	-0.283510	-0.513776	-0.003463
C	0.070690	0.253024	1.109537
C	0.654290	1.515624	0.817137
H	-0.092210	-0.099276	2.139437
C	0.758490	1.740824	-0.567063
S	0.123390	0.367424	-1.468163
C	1.100890	2.482024	1.878937
H	0.912890	2.075424	2.891537
H	0.566090	3.451924	1.804637
H	2.186290	2.703024	1.804737
C	-0.283510	-1.963876	-0.003463
H	-0.471010	-1.964376	1.060137
H	-1.207410	-2.498976	-0.166563
H	0.537090	-2.651076	0.140937
H	1.160390	2.610424	-1.100563
$end

$rem
JOBTYPE		SP
EXCHANGE	HF
CORRELATION	pRIMP2
BASIS		cc-pvtz
METHOD		rimp2
AUX_BASIS	rimp2-cc-pvtz
SOLVENT_METHOD	PCM
PURECART	11111
SYMMETRY	false
MEM_TOTAL	110000
SCF_CONVERGENCE = 6
THRESH=10
GUI = 2
$end

$solvent
dielectric 4.90
$end
--------------------------------------------------------------

             Standard Nuclear Orientation (Angstroms)
    I     Atom           X                Y                Z
 ----------------------------------------------------------------
    1      C      -0.2835100000    -0.5137760000    -0.0034630000
    2      C       0.0706900000     0.2530240000     1.1095370000
    3      C       0.6542900000     1.5156240000     0.8171370000
    4      H      -0.0922100000    -0.0992760000     2.1394370000
    5      C       0.7584900000     1.7408240000    -0.5670630000
    6      S       0.1233900000     0.3674240000    -1.4681630000
    7      C       1.1008900000     2.4820240000     1.8789370000
    8      H       0.9128900000     2.0754240000     2.8915370000
    9      H       0.5660900000     3.4519240000     1.8046370000
   10      H       2.1862900000     2.7030240000     1.8047370000
   11      C      -0.2835100000    -1.9638760000    -0.0034630000
   12      H      -0.4710100000    -1.9643760000     1.0601370000
   13      H      -1.2074100000    -2.4989760000    -0.1665630000
   14      H       0.5370900000    -2.6510760000     0.1409370000
   15      H       1.1603900000     2.6104240000    -1.1005630000
 ----------------------------------------------------------------

   10    -629.4135746514      4.97e-07  Convergence criterion met
 Total energy in the final basis set =     -629.4135746514
        RIMP2         total energy =      -630.5940726470 a.u.

                    Orbital Energies (a.u.)
 --------------------------------------------------------------

 Alpha MOs
 -- Occupied --
-91.9745 -11.2716 -11.2624 -11.2476 -11.2375 -11.2280 -11.2150  -8.9748
 -6.6557  -6.6551  -6.6546  -1.1625  -1.0522  -0.9995  -0.9381  -0.8854
 -0.7431  -0.7253  -0.6468  -0.5885  -0.5793  -0.5680  -0.5573  -0.5410
 -0.5131  -0.4810  -0.4665  -0.4359  -0.3374  -0.3055

          Ground-State Mulliken Net Atomic Charges

     Atom                 Charge (a.u.)
  ----------------------------------------
      1 C                     0.016653
      2 C                    -0.255063
      3 C                     0.035591
      4 H                     0.176678
      5 C                    -0.242724
      6 S                    -0.004160
      7 C                    -0.270628
      8 H                     0.101442
      9 H                     0.106990
     10 H                     0.106934
     11 C                    -0.353867
     12 H                     0.115054
     13 H                     0.126349
     14 H                     0.146540
     15 H                     0.194211
  ----------------------------------------
  Sum of atomic charges =     0.000000

                    Cartesian Multipole Moments
 -----------------------------------------------------------------
    Charge (ESU x 10^10)
                -0.0000
    Dipole Moment (Debye)
         X       0.6137      Y       0.0945      Z       2.1995
       Tot       2.2855
    Quadrupole Moments (Debye-Ang)
        XX     -52.2041     XY       3.5489     YY     -43.9448
        XZ       0.0277     YZ      -1.0529     ZZ     -48.8677

 Total job time:  22.86s(wall), 742.38s(cpu)
        *  Thank you very much for using Q-Chem.  Have a nice day.  *
