 Q-Chem 5.4, Q-Chem, Inc., Pleasanton, CA (2021)
 Q-Chem 5.4.0 for Intel X86 EM64T Linux

User input:
--------------------------------------------------------------
$molecule
0 1
C	0.002020	-0.576386	-0.003627
C	-0.001080	0.268214	1.109373
C	-0.005780	1.659214	0.816973
H	0.000320	-0.119886	2.139273
C	-0.006380	1.907314	-0.567227
S	-0.001680	0.394214	-1.468327
C	-0.009380	2.723814	1.878773
H	-0.007880	2.275814	2.891373
H	-0.903880	3.376814	1.804473
H	0.880920	3.382714	1.804573
C	0.002020	-2.026486	-0.003627
H	0.189620	-2.026986	1.059973
H	-0.921880	-2.561586	0.159073
H	0.822520	-2.713686	-0.148627
H	-0.009680	2.865414	-1.100727
$end

$rem
JOBTYPE		SP
EXCHANGE	HF
CORRELATION	pRIMP2
BASIS		cc-pvtz
METHOD		rimp2
AUX_BASIS	rimp2-cc-pvtz
SOLVENT_METHOD	PCM
PURECART	11111
SYMMETRY	false
MEM_TOTAL	110000
SCF_CONVERGENCE = 6
THRESH=10
GUI = 2
$end

$solvent
dielectric 4.90
$end
--------------------------------------------------------------

             Standard Nuclear Orientation (Angstroms)
    I     Atom           X                Y                Z
 ----------------------------------------------------------------
    1      C       0.0020200000    -0.5763860000    -0.0036270000
    2      C      -0.0010800000     0.2682140000     1.1093730000
    3      C      -0.0057800000     1.6592140000     0.8169730000
    4      H       0.0003200000    -0.1198860000     2.1392730000
    5      C      -0.0063800000     1.9073140000    -0.5672270000
    6      S      -0.0016800000     0.3942140000    -1.4683270000
    7      C      -0.0093800000     2.7238140000     1.8787730000
    8      H      -0.0078800000     2.2758140000     2.8913730000
    9      H      -0.9038800000     3.3768140000     1.8044730000
   10      H       0.8809200000     3.3827140000     1.8045730000
   11      C       0.0020200000    -2.0264860000    -0.0036270000
   12      H       0.1896200000    -2.0269860000     1.0599730000
   13      H      -0.9218800000    -2.5615860000     0.1590730000
   14      H       0.8225200000    -2.7136860000    -0.1486270000
   15      H      -0.0096800000     2.8654140000    -1.1007270000
 ----------------------------------------------------------------

   10    -629.4263134736      4.89e-07  Convergence criterion met
 Total energy in the final basis set =     -629.4263134736
        RIMP2         total energy =      -630.6038163990 a.u.

                    Orbital Energies (a.u.)
 --------------------------------------------------------------

 Alpha MOs
 -- Occupied --
-91.9755 -11.2783 -11.2575 -11.2472 -11.2336 -11.2276 -11.2175  -8.9756
 -6.6565  -6.6560  -6.6554  -1.1609  -1.0525  -0.9997  -0.9389  -0.8855
 -0.7423  -0.7236  -0.6477  -0.5913  -0.5778  -0.5667  -0.5591  -0.5411
 -0.5100  -0.4860  -0.4679  -0.4391  -0.3377  -0.3046

          Ground-State Mulliken Net Atomic Charges

     Atom                 Charge (a.u.)
  ----------------------------------------
      1 C                     0.061442
      2 C                    -0.266879
      3 C                     0.029307
      4 H                     0.176324
      5 C                    -0.250715
      6 S                    -0.007611
      7 C                    -0.273716
      8 H                     0.101279
      9 H                     0.107360
     10 H                     0.107224
     11 C                    -0.371462
     12 H                     0.120920
     13 H                     0.126643
     14 H                     0.146143
     15 H                     0.193742
  ----------------------------------------
  Sum of atomic charges =     0.000000

                    Cartesian Multipole Moments
 -----------------------------------------------------------------
    Charge (ESU x 10^10)
                -0.0000
    Dipole Moment (Debye)
         X       0.0944      Y      -0.0939      Z       2.1546
       Tot       2.1587
    Quadrupole Moments (Debye-Ang)
        XX     -53.7037     XY      -0.3967     YY     -42.0972
        XZ      -0.1116     YZ      -0.9824     ZZ     -48.9890

 Total job time:  16.43s(wall), 796.82s(cpu)
        *  Thank you very much for using Q-Chem.  Have a nice day.  *
