 Q-Chem 5.4, Q-Chem, Inc., Pleasanton, CA (2021)
 Q-Chem 5.4.0 for Intel X86 EM64T Linux

User input:
--------------------------------------------------------------
$molecule
0 1
C	-0.112075	-0.566489	-0.002181
C	0.031525	0.265811	1.110819
C	0.268425	1.636511	0.818419
H	-0.034475	-0.116589	2.140719
C	0.310925	1.881011	-0.565781
S	0.052825	0.390011	-1.466881
C	0.449825	2.685511	1.880219
H	0.373425	2.244111	2.892819
H	-0.317775	3.484011	1.805919
H	1.440925	3.179911	1.806019
C	-0.112075	-2.016589	-0.002181
H	-0.806275	-2.017089	0.825119
H	-0.830575	-2.551689	-0.605381
H	0.526425	-2.703789	0.533119
H	0.474025	2.825011	-1.099281
$end

$rem
JOBTYPE		SP
EXCHANGE	HF
CORRELATION	pRIMP2
BASIS		cc-pvtz
METHOD		rimp2
AUX_BASIS	rimp2-cc-pvtz
SOLVENT_METHOD	PCM
PURECART	11111
SYMMETRY	false
MEM_TOTAL	110000
SCF_CONVERGENCE = 6
THRESH=10
GUI = 2
$end

$solvent
dielectric 4.90
$end
--------------------------------------------------------------

             Standard Nuclear Orientation (Angstroms)
    I     Atom           X                Y                Z
 ----------------------------------------------------------------
    1      C      -0.1120750000    -0.5664890000    -0.0021810000
    2      C       0.0315250000     0.2658110000     1.1108190000
    3      C       0.2684250000     1.6365110000     0.8184190000
    4      H      -0.0344750000    -0.1165890000     2.1407190000
    5      C       0.3109250000     1.8810110000    -0.5657810000
    6      S       0.0528250000     0.3900110000    -1.4668810000
    7      C       0.4498250000     2.6855110000     1.8802190000
    8      H       0.3734250000     2.2441110000     2.8928190000
    9      H      -0.3177750000     3.4840110000     1.8059190000
   10      H       1.4409250000     3.1799110000     1.8060190000
   11      C      -0.1120750000    -2.0165890000    -0.0021810000
   12      H      -0.8062750000    -2.0170890000     0.8251190000
   13      H      -0.8305750000    -2.5516890000    -0.6053810000
   14      H       0.5264250000    -2.7037890000     0.5331190000
   15      H       0.4740250000     2.8250110000    -1.0992810000
 ----------------------------------------------------------------

   10    -629.4233423147      5.37e-07  Convergence criterion met
 Total energy in the final basis set =     -629.4233423147
        RIMP2         total energy =      -630.6009818997 a.u.

                    Orbital Energies (a.u.)
 --------------------------------------------------------------

 Alpha MOs
 -- Occupied --
-91.9768 -11.2794 -11.2551 -11.2475 -11.2301 -11.2273 -11.2185  -8.9767
 -6.6576  -6.6571  -6.6565  -1.1604  -1.0528  -0.9987  -0.9397  -0.8850
 -0.7425  -0.7216  -0.6482  -0.5886  -0.5755  -0.5652  -0.5598  -0.5423
 -0.5098  -0.4898  -0.4655  -0.4456  -0.3373  -0.2981

          Ground-State Mulliken Net Atomic Charges

     Atom                 Charge (a.u.)
  ----------------------------------------
      1 C                     0.053617
      2 C                    -0.278737
      3 C                     0.038196
      4 H                     0.176748
      5 C                    -0.260711
      6 S                    -0.004009
      7 C                    -0.274253
      8 H                     0.101323
      9 H                     0.107078
     10 H                     0.107366
     11 C                    -0.373613
     12 H                     0.128276
     13 H                     0.138540
     14 H                     0.146822
     15 H                     0.193358
  ----------------------------------------
  Sum of atomic charges =     0.000000

                    Cartesian Multipole Moments
 -----------------------------------------------------------------
    Charge (ESU x 10^10)
                -0.0000
    Dipole Moment (Debye)
         X      -0.2188      Y      -0.2786      Z       2.0001
       Tot       2.0312
    Quadrupole Moments (Debye-Ang)
        XX     -53.6327     XY       2.4480     YY     -42.3207
        XZ       0.3263     YZ      -0.7890     ZZ     -48.7657

 Total job time:  16.43s(wall), 750.03s(cpu)
        *  Thank you very much for using Q-Chem.  Have a nice day.  *
