 Q-Chem 5.4, Q-Chem, Inc., Pleasanton, CA (2021)
 Q-Chem 5.4.0 for Intel X86 EM64T Linux

User input:
--------------------------------------------------------------
$molecule
0 1
C	-0.287573	-0.513776	-0.002787
C	0.066627	0.253024	1.110213
C	0.650227	1.515624	0.817813
H	-0.096273	-0.099276	2.140113
C	0.754427	1.740824	-0.566387
S	0.119327	0.367424	-1.467487
C	1.096827	2.482024	1.879613
H	0.908827	2.075424	2.892213
H	0.562027	3.451924	1.805313
H	2.182227	2.703024	1.805413
C	-0.287573	-1.963876	-0.002787
H	0.406627	-1.964376	0.824513
H	-1.006373	-2.498976	0.600113
H	0.350527	-2.651076	-0.538587
H	1.156327	2.610424	-1.099887
$end

$rem
JOBTYPE		SP
EXCHANGE	HF
CORRELATION	pRIMP2
BASIS		cc-pvtz
METHOD		rimp2
AUX_BASIS	rimp2-cc-pvtz
SOLVENT_METHOD	PCM
PURECART	11111
SYMMETRY	false
MEM_TOTAL	110000
SCF_CONVERGENCE = 6
THRESH=10
GUI = 2
$end

$solvent
dielectric 4.90
$end
--------------------------------------------------------------

             Standard Nuclear Orientation (Angstroms)
    I     Atom           X                Y                Z
 ----------------------------------------------------------------
    1      C      -0.2875730000    -0.5137760000    -0.0027870000
    2      C       0.0666270000     0.2530240000     1.1102130000
    3      C       0.6502270000     1.5156240000     0.8178130000
    4      H      -0.0962730000    -0.0992760000     2.1401130000
    5      C       0.7544270000     1.7408240000    -0.5663870000
    6      S       0.1193270000     0.3674240000    -1.4674870000
    7      C       1.0968270000     2.4820240000     1.8796130000
    8      H       0.9088270000     2.0754240000     2.8922130000
    9      H       0.5620270000     3.4519240000     1.8053130000
   10      H       2.1822270000     2.7030240000     1.8054130000
   11      C      -0.2875730000    -1.9638760000    -0.0027870000
   12      H       0.4066270000    -1.9643760000     0.8245130000
   13      H      -1.0063730000    -2.4989760000     0.6001130000
   14      H       0.3505270000    -2.6510760000    -0.5385870000
   15      H       1.1563270000     2.6104240000    -1.0998870000
 ----------------------------------------------------------------

   10    -629.4097516229      5.29e-07  Convergence criterion met
 Total energy in the final basis set =     -629.4097516229
        RIMP2         total energy =      -630.5901057738 a.u.

                    Orbital Energies (a.u.)
 --------------------------------------------------------------

 Alpha MOs
 -- Occupied --
-91.9780 -11.2777 -11.2559 -11.2478 -11.2300 -11.2275 -11.2163  -8.9778
 -6.6587  -6.6582  -6.6576  -1.1625  -1.0533  -0.9989  -0.9375  -0.8844
 -0.7427  -0.7227  -0.6460  -0.5896  -0.5754  -0.5713  -0.5563  -0.5423
 -0.5111  -0.4800  -0.4676  -0.4485  -0.3357  -0.2957

          Ground-State Mulliken Net Atomic Charges

     Atom                 Charge (a.u.)
  ----------------------------------------
      1 C                     0.029128
      2 C                    -0.258140
      3 C                     0.031942
      4 H                     0.174907
      5 C                    -0.259197
      6 S                     0.001814
      7 C                    -0.271118
      8 H                     0.101441
      9 H                     0.107358
     10 H                     0.106464
     11 C                    -0.388003
     12 H                     0.141516
     13 H                     0.131404
     14 H                     0.157593
     15 H                     0.192890
  ----------------------------------------
  Sum of atomic charges =     0.000000

                    Cartesian Multipole Moments
 -----------------------------------------------------------------
    Charge (ESU x 10^10)
                -0.0000
    Dipole Moment (Debye)
         X       1.0346      Y      -0.2918      Z       2.0072
       Tot       2.2769
    Quadrupole Moments (Debye-Ang)
        XX     -52.8215     XY       2.3061     YY     -43.9663
        XZ      -0.2719     YZ      -0.6800     ZZ     -48.6113

 Total job time:  16.08s(wall), 761.34s(cpu)
        *  Thank you very much for using Q-Chem.  Have a nice day.  *
