 Q-Chem 5.4, Q-Chem, Inc., Pleasanton, CA (2021)
 Q-Chem 5.4.0 for Intel X86 EM64T Linux

User input:
--------------------------------------------------------------
$molecule
0 1
C	-0.439046	-0.419059	-0.000871
C	0.101454	0.229941	1.112129
C	0.991954	1.298441	0.819729
H	-0.146946	-0.068259	2.142029
C	1.151054	1.489041	-0.564471
S	0.182054	0.326841	-1.465571
C	1.673554	2.116341	1.881529
H	1.386754	1.772241	2.894129
H	1.408054	3.191641	1.807229
H	2.779154	2.048841	1.807329
C	-0.439046	-1.869159	-0.000871
H	0.575854	-1.869659	0.368529
H	-0.760146	-2.404259	0.880629
H	-0.154346	-2.556359	-0.783871
H	1.764254	2.225041	-1.097971
$end

$rem
JOBTYPE		SP
EXCHANGE	HF
CORRELATION	pRIMP2
BASIS		cc-pvtz
METHOD		rimp2
AUX_BASIS	rimp2-cc-pvtz
SOLVENT_METHOD	PCM
PURECART	11111
SYMMETRY	false
MEM_TOTAL	110000
SCF_CONVERGENCE = 6
THRESH=10
GUI = 2
$end

$solvent
dielectric 4.90
$end
--------------------------------------------------------------

             Standard Nuclear Orientation (Angstroms)
    I     Atom           X                Y                Z
 ----------------------------------------------------------------
    1      C      -0.4390460000    -0.4190590000    -0.0008710000
    2      C       0.1014540000     0.2299410000     1.1121290000
    3      C       0.9919540000     1.2984410000     0.8197290000
    4      H      -0.1469460000    -0.0682590000     2.1420290000
    5      C       1.1510540000     1.4890410000    -0.5644710000
    6      S       0.1820540000     0.3268410000    -1.4655710000
    7      C       1.6735540000     2.1163410000     1.8815290000
    8      H       1.3867540000     1.7722410000     2.8941290000
    9      H       1.4080540000     3.1916410000     1.8072290000
   10      H       2.7791540000     2.0488410000     1.8073290000
   11      C      -0.4390460000    -1.8691590000    -0.0008710000
   12      H       0.5758540000    -1.8696590000     0.3685290000
   13      H      -0.7601460000    -2.4042590000     0.8806290000
   14      H      -0.1543460000    -2.5563590000    -0.7838710000
   15      H       1.7642540000     2.2250410000    -1.0979710000
 ----------------------------------------------------------------

   10    -629.3918831224      5.77e-07  Convergence criterion met
 Total energy in the final basis set =     -629.3918831224
        RIMP2         total energy =      -630.5757716897 a.u.

                    Orbital Energies (a.u.)
 --------------------------------------------------------------

 Alpha MOs
 -- Occupied --
-91.9787 -11.2753 -11.2593 -11.2492 -11.2295 -11.2279 -11.2178  -8.9786
 -6.6595  -6.6589  -6.6584  -1.1668  -1.0551  -0.9979  -0.9369  -0.8832
 -0.7452  -0.7230  -0.6446  -0.5883  -0.5791  -0.5698  -0.5538  -0.5445
 -0.5103  -0.4865  -0.4585  -0.4569  -0.3369  -0.2882

          Ground-State Mulliken Net Atomic Charges

     Atom                 Charge (a.u.)
  ----------------------------------------
      1 C                    -0.001938
      2 C                    -0.241552
      3 C                     0.030435
      4 H                     0.175321
      5 C                    -0.258160
      6 S                     0.010535
      7 C                    -0.268994
      8 H                     0.101923
      9 H                     0.107657
     10 H                     0.105571
     11 C                    -0.381730
     12 H                     0.146072
     13 H                     0.125915
     14 H                     0.154563
     15 H                     0.194381
  ----------------------------------------
  Sum of atomic charges =     0.000000

                    Cartesian Multipole Moments
 -----------------------------------------------------------------
    Charge (ESU x 10^10)
                -0.0000
    Dipole Moment (Debye)
         X       1.6278      Y      -0.3984      Z       1.7168
       Tot       2.3991
    Quadrupole Moments (Debye-Ang)
        XX     -51.5855     XY       3.3235     YY     -46.1197
        XZ      -0.0495     YZ      -0.2001     ZZ     -48.2639

 Total job time:  16.60s(wall), 764.82s(cpu)
        *  Thank you very much for using Q-Chem.  Have a nice day.  *
