 Q-Chem 5.4, Q-Chem, Inc., Pleasanton, CA (2021)
 Q-Chem 5.4.0 for Intel X86 EM64T Linux

User input:
--------------------------------------------------------------
$molecule
0 1
C	-0.582912	-0.238938	0.004064
C	0.146988	0.186062	1.117064
C	1.349288	0.885562	0.824664
H	-0.188412	-0.009138	2.146964
C	1.563888	1.010262	-0.559536
S	0.255788	0.249562	-1.460636
C	2.269488	1.420962	1.886464
H	1.882188	1.195762	2.899064
H	2.387688	2.522262	1.812164
H	3.285288	0.979462	1.812264
C	-0.582912	-1.689038	0.004064
H	-1.518212	-1.689538	-0.535936
H	-0.113612	-2.224138	-0.808236
H	-0.999212	-2.376238	0.725764
H	2.391888	1.492062	-1.093036
$end

$rem
JOBTYPE		SP
EXCHANGE	HF
CORRELATION	pRIMP2
BASIS		cc-pvtz
METHOD		rimp2
AUX_BASIS	rimp2-cc-pvtz
SOLVENT_METHOD	PCM
PURECART	11111
SYMMETRY	false
MEM_TOTAL	110000
SCF_CONVERGENCE = 6
THRESH=10
GUI = 2
$end

$solvent
dielectric 4.90
$end
--------------------------------------------------------------

             Standard Nuclear Orientation (Angstroms)
    I     Atom           X                Y                Z
 ----------------------------------------------------------------
    1      C      -0.5829120000    -0.2389380000     0.0040640000
    2      C       0.1469880000     0.1860620000     1.1170640000
    3      C       1.3492880000     0.8855620000     0.8246640000
    4      H      -0.1884120000    -0.0091380000     2.1469640000
    5      C       1.5638880000     1.0102620000    -0.5595360000
    6      S       0.2557880000     0.2495620000    -1.4606360000
    7      C       2.2694880000     1.4209620000     1.8864640000
    8      H       1.8821880000     1.1957620000     2.8990640000
    9      H       2.3876880000     2.5222620000     1.8121640000
   10      H       3.2852880000     0.9794620000     1.8122640000
   11      C      -0.5829120000    -1.6890380000     0.0040640000
   12      H      -1.5182120000    -1.6895380000    -0.5359360000
   13      H      -0.1136120000    -2.2241380000    -0.8082360000
   14      H      -0.9992120000    -2.3762380000     0.7257640000
   15      H       2.3918880000     1.4920620000    -1.0930360000
 ----------------------------------------------------------------

   11    -629.3407542257      6.10e-07  Convergence criterion met
 Total energy in the final basis set =     -629.3407542257
        RIMP2         total energy =      -630.5317362751 a.u.

                    Orbital Energies (a.u.)
 --------------------------------------------------------------

 Alpha MOs
 -- Occupied --
-91.9750 -11.2825 -11.2511 -11.2485 -11.2406 -11.2286 -11.2054  -8.9758
 -6.6567  -6.6559  -6.6556  -1.1717  -1.0540  -0.9958  -0.9414  -0.8812
 -0.7526  -0.7285  -0.6410  -0.5907  -0.5767  -0.5684  -0.5514  -0.5430
 -0.5176  -0.4837  -0.4565  -0.4266  -0.3346  -0.2898

          Ground-State Mulliken Net Atomic Charges

     Atom                 Charge (a.u.)
  ----------------------------------------
      1 C                    -0.129122
      2 C                    -0.098166
      3 C                    -0.021772
      4 H                     0.185568
      5 C                    -0.179777
      6 S                     0.009368
      7 C                    -0.268809
      8 H                     0.101924
      9 H                     0.106452
     10 H                     0.103949
     11 C                    -0.395888
     12 H                     0.119113
     13 H                     0.129114
     14 H                     0.138859
     15 H                     0.199187
  ----------------------------------------
  Sum of atomic charges =     0.000000

                    Cartesian Multipole Moments
 -----------------------------------------------------------------
    Charge (ESU x 10^10)
                -0.0000
    Dipole Moment (Debye)
         X       1.9961      Y       0.1573      Z       1.5312
       Tot       2.5207
    Quadrupole Moments (Debye-Ang)
        XX     -47.7667     XY       5.2620     YY     -50.0255
        XZ      -0.5801     YZ       0.3734     ZZ     -47.6232

 Total job time:  17.43s(wall), 816.33s(cpu)
        *  Thank you very much for using Q-Chem.  Have a nice day.  *
