 Q-Chem 5.4, Q-Chem, Inc., Pleasanton, CA (2021)
 Q-Chem 5.4.0 for Intel X86 EM64T Linux

User input:
--------------------------------------------------------------
$molecule
0 1
C	-0.521404	-0.335659	-0.002787
C	0.123596	0.209641	1.110213
C	1.186196	1.107341	0.817813
H	-0.172804	-0.040859	2.140113
C	1.375796	1.267341	-0.566387
S	0.219796	0.291041	-1.467487
C	1.999396	1.794341	1.879613
H	1.657196	1.505341	2.892213
H	1.924596	2.899441	1.805313
H	3.076396	1.535941	1.805413
C	-0.521404	-1.785759	-0.002787
H	0.172796	-1.786259	0.824513
H	-1.240204	-2.320859	0.600113
H	0.116696	-2.472959	-0.538587
H	2.107596	1.885641	-1.099887
$end

$rem
JOBTYPE		SP
EXCHANGE	HF
CORRELATION	pRIMP2
BASIS		cc-pvtz
METHOD		rimp2
AUX_BASIS	rimp2-cc-pvtz
SOLVENT_METHOD	PCM
PURECART	11111
SYMMETRY	false
MEM_TOTAL	110000
SCF_CONVERGENCE = 6
THRESH=10
GUI = 2
$end

$solvent
dielectric 4.90
$end
--------------------------------------------------------------

             Standard Nuclear Orientation (Angstroms)
    I     Atom           X                Y                Z
 ----------------------------------------------------------------
    1      C      -0.5214040000    -0.3356590000    -0.0027870000
    2      C       0.1235960000     0.2096410000     1.1102130000
    3      C       1.1861960000     1.1073410000     0.8178130000
    4      H      -0.1728040000    -0.0408590000     2.1401130000
    5      C       1.3757960000     1.2673410000    -0.5663870000
    6      S       0.2197960000     0.2910410000    -1.4674870000
    7      C       1.9993960000     1.7943410000     1.8796130000
    8      H       1.6571960000     1.5053410000     2.8922130000
    9      H       1.9245960000     2.8994410000     1.8053130000
   10      H       3.0763960000     1.5359410000     1.8054130000
   11      C      -0.5214040000    -1.7857590000    -0.0027870000
   12      H       0.1727960000    -1.7862590000     0.8245130000
   13      H      -1.2402040000    -2.3208590000     0.6001130000
   14      H       0.1166960000    -2.4729590000    -0.5385870000
   15      H       2.1075960000     1.8856410000    -1.0998870000
 ----------------------------------------------------------------

   11    -629.3631346909      4.71e-07  Convergence criterion met
 Total energy in the final basis set =     -629.3631346909
        RIMP2         total energy =      -630.5533980510 a.u.

                    Orbital Energies (a.u.)
 --------------------------------------------------------------

 Alpha MOs
 -- Occupied --
-91.9783 -11.2703 -11.2596 -11.2490 -11.2407 -11.2287 -11.2087  -8.9784
 -6.6592  -6.6585  -6.6582  -1.1705  -1.0546  -1.0001  -0.9338  -0.8833
 -0.7459  -0.7290  -0.6433  -0.5888  -0.5785  -0.5730  -0.5538  -0.5435
 -0.5158  -0.4741  -0.4559  -0.4489  -0.3319  -0.2928

          Ground-State Mulliken Net Atomic Charges

     Atom                 Charge (a.u.)
  ----------------------------------------
      1 C                    -0.061049
      2 C                    -0.166883
      3 C                    -0.005845
      4 H                     0.179872
      5 C                    -0.221276
      6 S                     0.017223
      7 C                    -0.268243
      8 H                     0.101793
      9 H                     0.107160
     10 H                     0.104612
     11 C                    -0.382729
     12 H                     0.133917
     13 H                     0.112752
     14 H                     0.152834
     15 H                     0.195862
  ----------------------------------------
  Sum of atomic charges =     0.000000

                    Cartesian Multipole Moments
 -----------------------------------------------------------------
    Charge (ESU x 10^10)
                -0.0000
    Dipole Moment (Debye)
         X       2.0959      Y       0.0237      Z       2.0631
       Tot       2.9410
    Quadrupole Moments (Debye-Ang)
        XX     -49.8511     XY       3.6110     YY     -48.4266
        XZ      -0.5079     YZ      -0.7158     ZZ     -48.0158

 Total job time:  17.91s(wall), 844.66s(cpu)
        *  Thank you very much for using Q-Chem.  Have a nice day.  *
