 Q-Chem 5.4, Q-Chem, Inc., Pleasanton, CA (2021)
 Q-Chem 5.4.0 for Intel X86 EM64T Linux

User input:
--------------------------------------------------------------
$molecule
0 1
C	-0.168737	-0.553870	0.002537
C	0.046863	0.262730	1.115537
C	0.402363	1.607530	0.823137
H	-0.052237	-0.112470	2.145437
C	0.465963	1.847430	-0.561063
S	0.078863	0.384630	-1.462163
C	0.674463	2.636830	1.884937
H	0.559863	2.203730	2.897537
H	-0.020637	3.499130	1.810637
H	1.704963	3.042930	1.810737
C	-0.168737	-2.003970	0.002537
H	-1.232337	-2.004470	-0.184963
H	-0.005637	-2.539070	-0.921363
H	-0.313137	-2.691170	0.823137
H	0.710763	2.773630	-1.094563
$end

$rem
JOBTYPE		SP
EXCHANGE	HF
CORRELATION	pRIMP2
BASIS		cc-pvtz
METHOD		rimp2
AUX_BASIS	rimp2-cc-pvtz
SOLVENT_METHOD	PCM
PURECART	11111
SYMMETRY	false
MEM_TOTAL	110000
SCF_CONVERGENCE = 6
THRESH=10
GUI = 2
$end

$solvent
dielectric 4.90
$end
--------------------------------------------------------------

             Standard Nuclear Orientation (Angstroms)
    I     Atom           X                Y                Z
 ----------------------------------------------------------------
    1      C      -0.1687370000    -0.5538700000     0.0025370000
    2      C       0.0468630000     0.2627300000     1.1155370000
    3      C       0.4023630000     1.6075300000     0.8231370000
    4      H      -0.0522370000    -0.1124700000     2.1454370000
    5      C       0.4659630000     1.8474300000    -0.5610630000
    6      S       0.0788630000     0.3846300000    -1.4621630000
    7      C       0.6744630000     2.6368300000     1.8849370000
    8      H       0.5598630000     2.2037300000     2.8975370000
    9      H      -0.0206370000     3.4991300000     1.8106370000
   10      H       1.7049630000     3.0429300000     1.8107370000
   11      C      -0.1687370000    -2.0039700000     0.0025370000
   12      H      -1.2323370000    -2.0044700000    -0.1849630000
   13      H      -0.0056370000    -2.5390700000    -0.9213630000
   14      H      -0.3131370000    -2.6911700000     0.8231370000
   15      H       0.7107630000     2.7736300000    -1.0945630000
 ----------------------------------------------------------------

   10    -629.4180362539      6.46e-07  Convergence criterion met
 Total energy in the final basis set =     -629.4180362539
        RIMP2         total energy =      -630.5946714786 a.u.

                    Orbital Energies (a.u.)
 --------------------------------------------------------------

 Alpha MOs
 -- Occupied --
-91.9791 -11.2825 -11.2514 -11.2470 -11.2265 -11.2238 -11.2207  -8.9788
 -6.6598  -6.6593  -6.6586  -1.1600  -1.0540  -0.9965  -0.9425  -0.8835
 -0.7443  -0.7183  -0.6474  -0.5866  -0.5733  -0.5677  -0.5532  -0.5456
 -0.5087  -0.4951  -0.4615  -0.4566  -0.3381  -0.2892

          Ground-State Mulliken Net Atomic Charges

     Atom                 Charge (a.u.)
  ----------------------------------------
      1 C                     0.039691
      2 C                    -0.284969
      3 C                     0.044176
      4 H                     0.177253
      5 C                    -0.274506
      6 S                     0.000903
      7 C                    -0.272723
      8 H                     0.101463
      9 H                     0.107168
     10 H                     0.107041
     11 C                    -0.379727
     12 H                     0.135718
     13 H                     0.141535
     14 H                     0.162682
     15 H                     0.194296
  ----------------------------------------
  Sum of atomic charges =     0.000000

                    Cartesian Multipole Moments
 -----------------------------------------------------------------
    Charge (ESU x 10^10)
                -0.0000
    Dipole Moment (Debye)
         X      -0.4144      Y      -0.6046      Z       1.2963
       Tot       1.4892
    Quadrupole Moments (Debye-Ang)
        XX     -53.6544     XY       3.7431     YY     -42.3760
        XZ      -0.0356     YZ       0.5077     ZZ     -48.5089

 Total job time:  18.68s(wall), 762.27s(cpu)
        *  Thank you very much for using Q-Chem.  Have a nice day.  *
