 Q-Chem 5.4, Q-Chem, Inc., Pleasanton, CA (2021)
 Q-Chem 5.4.0 for Intel X86 EM64T Linux

User input:
--------------------------------------------------------------
$molecule
0 1
C	-0.187211	-0.554682	0.000759
C	0.028389	0.261918	1.113759
C	0.383889	1.606718	0.821359
H	-0.070711	-0.113282	2.143659
C	0.447489	1.846618	-0.562841
S	0.060389	0.383818	-1.463941
C	0.655989	2.636018	1.883159
H	0.541389	2.202918	2.895759
H	-0.039111	3.498318	1.808859
H	1.686489	3.042118	1.808959
C	-0.060811	-1.999282	0.000759
H	1.015089	-1.905682	0.000759
H	-0.014411	-2.532382	0.938859
H	-0.001211	-2.683882	-0.832441
H	0.692289	2.772818	-1.096341
$end

$rem
JOBTYPE		SP
EXCHANGE	HF
CORRELATION	pRIMP2
BASIS		cc-pvtz
METHOD		rimp2
AUX_BASIS	rimp2-cc-pvtz
SOLVENT_METHOD	PCM
PURECART	11111
SYMMETRY	false
MEM_TOTAL	110000
SCF_CONVERGENCE = 6
THRESH=10
GUI = 2
$end

$solvent
dielectric 4.90
$end
--------------------------------------------------------------

             Standard Nuclear Orientation (Angstroms)
    I     Atom           X                Y                Z
 ----------------------------------------------------------------
    1      C      -0.1872110000    -0.5546820000     0.0007590000
    2      C       0.0283890000     0.2619180000     1.1137590000
    3      C       0.3838890000     1.6067180000     0.8213590000
    4      H      -0.0707110000    -0.1132820000     2.1436590000
    5      C       0.4474890000     1.8466180000    -0.5628410000
    6      S       0.0603890000     0.3838180000    -1.4639410000
    7      C       0.6559890000     2.6360180000     1.8831590000
    8      H       0.5413890000     2.2029180000     2.8957590000
    9      H      -0.0391110000     3.4983180000     1.8088590000
   10      H       1.6864890000     3.0421180000     1.8089590000
   11      C      -0.0608110000    -1.9992820000     0.0007590000
   12      H       1.0150890000    -1.9056820000     0.0007590000
   13      H      -0.0144110000    -2.5323820000     0.9388590000
   14      H      -0.0012110000    -2.6838820000    -0.8324410000
   15      H       0.6922890000     2.7728180000    -1.0963410000
 ----------------------------------------------------------------

   10    -629.4205692003      6.81e-07  Convergence criterion met
 Total energy in the final basis set =     -629.4205692003
        RIMP2         total energy =      -630.5969024294 a.u.

                    Orbital Energies (a.u.)
 --------------------------------------------------------------

 Alpha MOs
 -- Occupied --
-91.9780 -11.2852 -11.2508 -11.2477 -11.2269 -11.2237 -11.2233  -8.9779
 -6.6589  -6.6583  -6.6577  -1.1618  -1.0551  -0.9971  -0.9404  -0.8834
 -0.7442  -0.7191  -0.6464  -0.5887  -0.5777  -0.5680  -0.5522  -0.5455
 -0.5069  -0.4947  -0.4658  -0.4563  -0.3386  -0.2890

          Ground-State Mulliken Net Atomic Charges

     Atom                 Charge (a.u.)
  ----------------------------------------
      1 C                     0.054616
      2 C                    -0.313810
      3 C                     0.057632
      4 H                     0.174734
      5 C                    -0.280419
      6 S                     0.000490
      7 C                    -0.271343
      8 H                     0.101558
      9 H                     0.107572
     10 H                     0.107078
     11 C                    -0.376205
     12 H                     0.149119
     13 H                     0.139440
     14 H                     0.156505
     15 H                     0.193034
  ----------------------------------------
  Sum of atomic charges =     0.000000

                    Cartesian Multipole Moments
 -----------------------------------------------------------------
    Charge (ESU x 10^10)
                -0.0000
    Dipole Moment (Debye)
         X       1.1666      Y      -0.6245      Z       1.4441
       Tot       1.9586
    Quadrupole Moments (Debye-Ang)
        XX     -53.9587     XY       0.4307     YY     -42.6397
        XZ       0.1329     YZ       0.4751     ZZ     -48.5729

 Total job time:  18.64s(wall), 763.74s(cpu)
        *  Thank you very much for using Q-Chem.  Have a nice day.  *
