 Q-Chem 5.4, Q-Chem, Inc., Pleasanton, CA (2021)
 Q-Chem 5.4.0 for Intel X86 EM64T Linux

User input:
--------------------------------------------------------------
$molecule
0 1
C	-0.437483	-0.419059	0.005194
C	0.103017	0.229941	1.118194
C	0.993517	1.298441	0.825794
H	-0.145383	-0.068259	2.148094
C	1.152617	1.489041	-0.558406
S	0.183617	0.326841	-1.459506
C	1.675117	2.116341	1.887594
H	1.388317	1.772241	2.900194
H	1.409617	3.191641	1.813294
H	2.780717	2.048841	1.813394
C	-0.437483	-1.869159	0.005194
H	0.102517	-1.869659	-0.930106
H	0.374817	-2.404259	0.474494
H	-1.159183	-2.556359	-0.411106
H	1.765817	2.225041	-1.091906
$end

$rem
JOBTYPE		SP
EXCHANGE	HF
CORRELATION	pRIMP2
BASIS		cc-pvtz
METHOD		rimp2
AUX_BASIS	rimp2-cc-pvtz
SOLVENT_METHOD	PCM
PURECART	11111
SYMMETRY	false
MEM_TOTAL	110000
SCF_CONVERGENCE = 6
THRESH=10
GUI = 2
$end

$solvent
dielectric 4.90
$end
--------------------------------------------------------------

             Standard Nuclear Orientation (Angstroms)
    I     Atom           X                Y                Z
 ----------------------------------------------------------------
    1      C      -0.4374830000    -0.4190590000     0.0051940000
    2      C       0.1030170000     0.2299410000     1.1181940000
    3      C       0.9935170000     1.2984410000     0.8257940000
    4      H      -0.1453830000    -0.0682590000     2.1480940000
    5      C       1.1526170000     1.4890410000    -0.5584060000
    6      S       0.1836170000     0.3268410000    -1.4595060000
    7      C       1.6751170000     2.1163410000     1.8875940000
    8      H       1.3883170000     1.7722410000     2.9001940000
    9      H       1.4096170000     3.1916410000     1.8132940000
   10      H       2.7807170000     2.0488410000     1.8133940000
   11      C      -0.4374830000    -1.8691590000     0.0051940000
   12      H       0.1025170000    -1.8696590000    -0.9301060000
   13      H       0.3748170000    -2.4042590000     0.4744940000
   14      H      -1.1591830000    -2.5563590000    -0.4111060000
   15      H       1.7658170000     2.2250410000    -1.0919060000
 ----------------------------------------------------------------

   10    -629.3889701424      5.81e-07  Convergence criterion met
 Total energy in the final basis set =     -629.3889701424
        RIMP2         total energy =      -630.5727774602 a.u.

                    Orbital Energies (a.u.)
 --------------------------------------------------------------

 Alpha MOs
 -- Occupied --
-91.9745 -11.2664 -11.2659 -11.2475 -11.2381 -11.2278 -11.2121  -8.9754
 -6.6563  -6.6556  -6.6551  -1.1665  -1.0549  -0.9940  -0.9435  -0.8806
 -0.7503  -0.7220  -0.6442  -0.5893  -0.5790  -0.5653  -0.5511  -0.5470
 -0.5125  -0.4814  -0.4623  -0.4422  -0.3366  -0.2993

          Ground-State Mulliken Net Atomic Charges

     Atom                 Charge (a.u.)
  ----------------------------------------
      1 C                    -0.006365
      2 C                    -0.234281
      3 C                     0.032486
      4 H                     0.179207
      5 C                    -0.233521
      6 S                    -0.004077
      7 C                    -0.269509
      8 H                     0.101814
      9 H                     0.107570
     10 H                     0.105722
     11 C                    -0.376109
     12 H                     0.131172
     13 H                     0.137122
     14 H                     0.133249
     15 H                     0.195520
  ----------------------------------------
  Sum of atomic charges =     0.000000

                    Cartesian Multipole Moments
 -----------------------------------------------------------------
    Charge (ESU x 10^10)
                -0.0000
    Dipole Moment (Debye)
         X       1.6042      Y       0.0450      Z       1.0901
       Tot       1.9401
    Quadrupole Moments (Debye-Ang)
        XX     -50.8808     XY       3.8092     YY     -46.4766
        XZ       0.4757     YZ       1.3795     ZZ     -48.4010

 Total job time:  15.77s(wall), 749.63s(cpu)
        *  Thank you very much for using Q-Chem.  Have a nice day.  *
