 Q-Chem 5.4, Q-Chem, Inc., Pleasanton, CA (2021)
 Q-Chem 5.4.0 for Intel X86 EM64T Linux

User input:
--------------------------------------------------------------
$molecule
0 1
C	-0.227247	-0.536244	0.005249
C	0.058753	0.258456	1.118249
C	0.530053	1.567156	0.825849
H	-0.072747	-0.106644	2.148149
C	0.614353	1.800556	-0.558351
S	0.101253	0.377056	-1.459451
C	0.890853	2.568756	1.887649
H	0.738953	2.147356	2.900249
H	0.273553	3.488456	1.813349
H	1.952753	2.883556	1.813449
C	-0.227247	-1.986344	0.005249
H	-0.921447	-1.986844	-0.822051
H	0.491553	-2.521444	-0.597651
H	-0.865347	-2.673544	0.541049
H	0.938853	2.701956	-1.091851
$end

$rem
JOBTYPE		SP
EXCHANGE	HF
CORRELATION	pRIMP2
BASIS		cc-pvtz
METHOD		rimp2
AUX_BASIS	rimp2-cc-pvtz
SOLVENT_METHOD	PCM
PURECART	11111
SYMMETRY	false
MEM_TOTAL	110000
SCF_CONVERGENCE = 6
THRESH=10
GUI = 2
$end

$solvent
dielectric 4.90
$end
--------------------------------------------------------------

             Standard Nuclear Orientation (Angstroms)
    I     Atom           X                Y                Z
 ----------------------------------------------------------------
    1      C      -0.2272470000    -0.5362440000     0.0052490000
    2      C       0.0587530000     0.2584560000     1.1182490000
    3      C       0.5300530000     1.5671560000     0.8258490000
    4      H      -0.0727470000    -0.1066440000     2.1481490000
    5      C       0.6143530000     1.8005560000    -0.5583510000
    6      S       0.1012530000     0.3770560000    -1.4594510000
    7      C       0.8908530000     2.5687560000     1.8876490000
    8      H       0.7389530000     2.1473560000     2.9002490000
    9      H       0.2735530000     3.4884560000     1.8133490000
   10      H       1.9527530000     2.8835560000     1.8134490000
   11      C      -0.2272470000    -1.9863440000     0.0052490000
   12      H      -0.9214470000    -1.9868440000    -0.8220510000
   13      H       0.4915530000    -2.5214440000    -0.5976510000
   14      H      -0.8653470000    -2.6735440000     0.5410490000
   15      H       0.9388530000     2.7019560000    -1.0918510000
 ----------------------------------------------------------------

   10    -629.4142595967      5.36e-07  Convergence criterion met
 Total energy in the final basis set =     -629.4142595967
        RIMP2         total energy =      -630.5927013449 a.u.

                    Orbital Energies (a.u.)
 --------------------------------------------------------------

 Alpha MOs
 -- Occupied --
-91.9802 -11.2752 -11.2581 -11.2472 -11.2283 -11.2269 -11.2170  -8.9800
 -6.6609  -6.6604  -6.6598  -1.1611  -1.0533  -0.9953  -0.9446  -0.8829
 -0.7468  -0.7187  -0.6463  -0.5899  -0.5745  -0.5669  -0.5530  -0.5457
 -0.5099  -0.4864  -0.4636  -0.4496  -0.3382  -0.2977

          Ground-State Mulliken Net Atomic Charges

     Atom                 Charge (a.u.)
  ----------------------------------------
      1 C                     0.010253
      2 C                    -0.245727
      3 C                     0.031572
      4 H                     0.179309
      5 C                    -0.250104
      6 S                    -0.002892
      7 C                    -0.272669
      8 H                     0.101775
      9 H                     0.106966
     10 H                     0.106700
     11 C                    -0.368695
     12 H                     0.117950
     13 H                     0.133848
     14 H                     0.156516
     15 H                     0.195200
  ----------------------------------------
  Sum of atomic charges =     0.000000

                    Cartesian Multipole Moments
 -----------------------------------------------------------------
    Charge (ESU x 10^10)
                -0.0000
    Dipole Moment (Debye)
         X       0.1019      Y      -0.1235      Z       1.0105
       Tot       1.0231
    Quadrupole Moments (Debye-Ang)
        XX     -52.8709     XY       3.8813     YY     -43.0883
        XZ      -0.1769     YZ       1.1410     ZZ     -48.6842

 Total job time:  16.20s(wall), 743.22s(cpu)
        *  Thank you very much for using Q-Chem.  Have a nice day.  *
