 Q-Chem 5.4, Q-Chem, Inc., Pleasanton, CA (2021)
 Q-Chem 5.4.0 for Intel X86 EM64T Linux

User input:
--------------------------------------------------------------
$molecule
0 1
C	-0.110703	-0.566489	0.001702
C	0.032897	0.265811	1.114702
C	0.269797	1.636511	0.822302
H	-0.033103	-0.116589	2.144602
C	0.312297	1.881011	-0.561898
S	0.054197	0.390011	-1.462998
C	0.451197	2.685511	1.884102
H	0.374797	2.244111	2.896702
H	-0.316403	3.484011	1.809802
H	1.442297	3.179911	1.809902
C	-0.110703	-2.016589	0.001702
H	-1.190703	-2.017089	0.001702
H	-0.110503	-2.551689	-0.936398
H	-0.110403	-2.703789	0.834902
H	0.475397	2.825011	-1.095398
$end

$rem
JOBTYPE		SP
EXCHANGE	HF
CORRELATION	pRIMP2
BASIS		cc-pvtz
METHOD		rimp2
AUX_BASIS	rimp2-cc-pvtz
SOLVENT_METHOD	PCM
PURECART	11111
SYMMETRY	false
MEM_TOTAL	110000
SCF_CONVERGENCE = 6
THRESH=10
GUI = 2
$end

$solvent
dielectric 4.90
$end
--------------------------------------------------------------

             Standard Nuclear Orientation (Angstroms)
    I     Atom           X                Y                Z
 ----------------------------------------------------------------
    1      C      -0.1107030000    -0.5664890000     0.0017020000
    2      C       0.0328970000     0.2658110000     1.1147020000
    3      C       0.2697970000     1.6365110000     0.8223020000
    4      H      -0.0331030000    -0.1165890000     2.1446020000
    5      C       0.3122970000     1.8810110000    -0.5618980000
    6      S       0.0541970000     0.3900110000    -1.4629980000
    7      C       0.4511970000     2.6855110000     1.8841020000
    8      H       0.3747970000     2.2441110000     2.8967020000
    9      H      -0.3164030000     3.4840110000     1.8098020000
   10      H       1.4422970000     3.1799110000     1.8099020000
   11      C      -0.1107030000    -2.0165890000     0.0017020000
   12      H      -1.1907030000    -2.0170890000     0.0017020000
   13      H      -0.1105030000    -2.5516890000    -0.9363980000
   14      H      -0.1104030000    -2.7037890000     0.8349020000
   15      H       0.4753970000     2.8250110000    -1.0953980000
 ----------------------------------------------------------------

   10    -629.4217141228      6.71e-07  Convergence criterion met
 Total energy in the final basis set =     -629.4217141228
        RIMP2         total energy =      -630.5975344580 a.u.

                    Orbital Energies (a.u.)
 --------------------------------------------------------------

 Alpha MOs
 -- Occupied --
-91.9792 -11.2843 -11.2499 -11.2471 -11.2265 -11.2228 -11.2218  -8.9789
 -6.6599  -6.6594  -6.6587  -1.1597  -1.0542  -0.9970  -0.9419  -0.8837
 -0.7437  -0.7182  -0.6481  -0.5865  -0.5731  -0.5675  -0.5543  -0.5455
 -0.5081  -0.4959  -0.4632  -0.4568  -0.3380  -0.2890

          Ground-State Mulliken Net Atomic Charges

     Atom                 Charge (a.u.)
  ----------------------------------------
      1 C                     0.052838
      2 C                    -0.299790
      3 C                     0.048231
      4 H                     0.175298
      5 C                    -0.279086
      6 S                     0.003635
      7 C                    -0.273534
      8 H                     0.101482
      9 H                     0.107239
     10 H                     0.107223
     11 C                    -0.381770
     12 H                     0.139642
     13 H                     0.141043
     14 H                     0.163891
     15 H                     0.193658
  ----------------------------------------
  Sum of atomic charges =     0.000000

                    Cartesian Multipole Moments
 -----------------------------------------------------------------
    Charge (ESU x 10^10)
                -0.0000
    Dipole Moment (Debye)
         X      -0.5532      Y      -0.6922      Z       1.3998
       Tot       1.6567
    Quadrupole Moments (Debye-Ang)
        XX     -54.0358     XY       3.0716     YY     -41.9841
        XZ       0.0367     YZ       0.2915     ZZ     -48.5258

 Total job time:  19.78s(wall), 742.82s(cpu)
        *  Thank you very much for using Q-Chem.  Have a nice day.  *
