 Q-Chem 5.4, Q-Chem, Inc., Pleasanton, CA (2021)
 Q-Chem 5.4.0 for Intel X86 EM64T Linux

User input:
--------------------------------------------------------------
$molecule
0 1
C	-0.431239	-0.419059	0.004709
C	0.109261	0.229941	1.117709
C	0.999761	1.298441	0.825309
H	-0.139139	-0.068259	2.147609
C	1.158861	1.489041	-0.558891
S	0.189861	0.326841	-1.459991
C	1.681361	2.116341	1.887109
H	1.394561	1.772241	2.899709
H	1.415861	3.191641	1.812809
H	2.786961	2.048841	1.812909
C	-0.431239	-1.869159	0.004709
H	-1.258539	-1.869659	-0.689491
H	0.171961	-2.404259	-0.713791
H	-0.966539	-2.556359	0.643209
H	1.772061	2.225041	-1.092391
$end

$rem
JOBTYPE		SP
EXCHANGE	HF
CORRELATION	pRIMP2
BASIS		cc-pvtz
METHOD		rimp2
AUX_BASIS	rimp2-cc-pvtz
SOLVENT_METHOD	PCM
PURECART	11111
SYMMETRY	false
MEM_TOTAL	110000
SCF_CONVERGENCE = 6
THRESH=10
GUI = 2
$end

$solvent
dielectric 4.90
$end
--------------------------------------------------------------

             Standard Nuclear Orientation (Angstroms)
    I     Atom           X                Y                Z
 ----------------------------------------------------------------
    1      C      -0.4312390000    -0.4190590000     0.0047090000
    2      C       0.1092610000     0.2299410000     1.1177090000
    3      C       0.9997610000     1.2984410000     0.8253090000
    4      H      -0.1391390000    -0.0682590000     2.1476090000
    5      C       1.1588610000     1.4890410000    -0.5588910000
    6      S       0.1898610000     0.3268410000    -1.4599910000
    7      C       1.6813610000     2.1163410000     1.8871090000
    8      H       1.3945610000     1.7722410000     2.8997090000
    9      H       1.4158610000     3.1916410000     1.8128090000
   10      H       2.7869610000     2.0488410000     1.8129090000
   11      C      -0.4312390000    -1.8691590000     0.0047090000
   12      H      -1.2585390000    -1.8696590000    -0.6894910000
   13      H       0.1719610000    -2.4042590000    -0.7137910000
   14      H      -0.9665390000    -2.5563590000     0.6432090000
   15      H       1.7720610000     2.2250410000    -1.0923910000
 ----------------------------------------------------------------

   10    -629.3869873290      6.05e-07  Convergence criterion met
 Total energy in the final basis set =     -629.3869873290
        RIMP2         total energy =      -630.5712019846 a.u.

                    Orbital Energies (a.u.)
 --------------------------------------------------------------

 Alpha MOs
 -- Occupied --
-91.9782 -11.2660 -11.2639 -11.2477 -11.2351 -11.2274 -11.2122  -8.9783
 -6.6593  -6.6587  -6.6581  -1.1642  -1.0528  -0.9948  -0.9433  -0.8824
 -0.7482  -0.7217  -0.6433  -0.5889  -0.5746  -0.5684  -0.5521  -0.5445
 -0.5134  -0.4835  -0.4579  -0.4454  -0.3371  -0.2940

          Ground-State Mulliken Net Atomic Charges

     Atom                 Charge (a.u.)
  ----------------------------------------
      1 C                    -0.041905
      2 C                    -0.200760
      3 C                     0.022897
      4 H                     0.179849
      5 C                    -0.229829
      6 S                     0.001836
      7 C                    -0.270481
      8 H                     0.101659
      9 H                     0.106998
     10 H                     0.105464
     11 C                    -0.378344
     12 H                     0.118802
     13 H                     0.139735
     14 H                     0.148100
     15 H                     0.195980
  ----------------------------------------
  Sum of atomic charges =     0.000000

                    Cartesian Multipole Moments
 -----------------------------------------------------------------
    Charge (ESU x 10^10)
                -0.0000
    Dipole Moment (Debye)
         X       0.7869      Y       0.0518      Z       1.2229
       Tot       1.4551
    Quadrupole Moments (Debye-Ang)
        XX     -50.4243     XY       5.5503     YY     -46.2242
        XZ      -0.2388     YZ       0.6946     ZZ     -48.3404

 Total job time:  16.74s(wall), 750.91s(cpu)
        *  Thank you very much for using Q-Chem.  Have a nice day.  *
