 Q-Chem 5.4, Q-Chem, Inc., Pleasanton, CA (2021)
 Q-Chem 5.4.0 for Intel X86 EM64T Linux

User input:
--------------------------------------------------------------
$molecule
0 1
C	-0.225309	-0.536244	0.002537
C	0.060691	0.258456	1.115537
C	0.531991	1.567156	0.823137
H	-0.070809	-0.106644	2.145437
C	0.616291	1.800556	-0.561063
S	0.103191	0.377056	-1.462163
C	0.892791	2.568756	1.884937
H	0.740891	2.147356	2.897537
H	0.275491	3.488456	1.810637
H	1.954691	2.883556	1.810737
C	-0.225309	-1.986344	0.002537
H	-1.288909	-1.986844	-0.184963
H	-0.062209	-2.521444	-0.921363
H	-0.369709	-2.673544	0.823137
H	0.940791	2.701956	-1.094563
$end

$rem
JOBTYPE		SP
EXCHANGE	HF
CORRELATION	pRIMP2
BASIS		cc-pvtz
METHOD		rimp2
AUX_BASIS	rimp2-cc-pvtz
SOLVENT_METHOD	PCM
PURECART	11111
SYMMETRY	false
MEM_TOTAL	110000
SCF_CONVERGENCE = 6
THRESH=10
GUI = 2
$end

$solvent
dielectric 4.90
$end
--------------------------------------------------------------

             Standard Nuclear Orientation (Angstroms)
    I     Atom           X                Y                Z
 ----------------------------------------------------------------
    1      C      -0.2253090000    -0.5362440000     0.0025370000
    2      C       0.0606910000     0.2584560000     1.1155370000
    3      C       0.5319910000     1.5671560000     0.8231370000
    4      H      -0.0708090000    -0.1066440000     2.1454370000
    5      C       0.6162910000     1.8005560000    -0.5610630000
    6      S       0.1031910000     0.3770560000    -1.4621630000
    7      C       0.8927910000     2.5687560000     1.8849370000
    8      H       0.7408910000     2.1473560000     2.8975370000
    9      H       0.2754910000     3.4884560000     1.8106370000
   10      H       1.9546910000     2.8835560000     1.8107370000
   11      C      -0.2253090000    -1.9863440000     0.0025370000
   12      H      -1.2889090000    -1.9868440000    -0.1849630000
   13      H      -0.0622090000    -2.5214440000    -0.9213630000
   14      H      -0.3697090000    -2.6735440000     0.8231370000
   15      H       0.9407910000     2.7019560000    -1.0945630000
 ----------------------------------------------------------------

   10    -629.4133475861      6.17e-07  Convergence criterion met
 Total energy in the final basis set =     -629.4133475861
        RIMP2         total energy =      -630.5911855020 a.u.

                    Orbital Energies (a.u.)
 --------------------------------------------------------------

 Alpha MOs
 -- Occupied --
-91.9787 -11.2805 -11.2527 -11.2471 -11.2266 -11.2250 -11.2194  -8.9785
 -6.6595  -6.6590  -6.6584  -1.1603  -1.0537  -0.9963  -0.9424  -0.8834
 -0.7445  -0.7187  -0.6469  -0.5863  -0.5730  -0.5679  -0.5533  -0.5453
 -0.5095  -0.4947  -0.4591  -0.4566  -0.3379  -0.2889

          Ground-State Mulliken Net Atomic Charges

     Atom                 Charge (a.u.)
  ----------------------------------------
      1 C                     0.030409
      2 C                    -0.279424
      3 C                     0.044754
      4 H                     0.177548
      5 C                    -0.271991
      6 S                     0.001836
      7 C                    -0.271923
      8 H                     0.101514
      9 H                     0.107098
     10 H                     0.106865
     11 C                    -0.378752
     12 H                     0.134192
     13 H                     0.142149
     14 H                     0.161422
     15 H                     0.194303
  ----------------------------------------
  Sum of atomic charges =     0.000000

                    Cartesian Multipole Moments
 -----------------------------------------------------------------
    Charge (ESU x 10^10)
                -0.0000
    Dipole Moment (Debye)
         X      -0.2845      Y      -0.5389      Z       1.3179
       Tot       1.4520
    Quadrupole Moments (Debye-Ang)
        XX     -53.1814     XY       4.3598     YY     -42.9286
        XZ      -0.0127     YZ       0.4710     ZZ     -48.4622

 Total job time:  19.69s(wall), 771.92s(cpu)
        *  Thank you very much for using Q-Chem.  Have a nice day.  *
