 Q-Chem 5.4, Q-Chem, Inc., Pleasanton, CA (2021)
 Q-Chem 5.4.0 for Intel X86 EM64T Linux

User input:
--------------------------------------------------------------
$molecule
0 1
C	-0.588892	-0.238938	-0.003205
C	0.141008	0.186062	1.109795
C	1.343308	0.885562	0.817395
H	-0.194392	-0.009138	2.139695
C	1.557908	1.010262	-0.566805
S	0.249808	0.249562	-1.467905
C	2.263508	1.420962	1.879195
H	1.876208	1.195762	2.891795
H	2.381708	2.522262	1.804895
H	3.279308	0.979462	1.804995
C	-0.588892	-1.689038	-0.003205
H	-0.048892	-1.689538	0.932095
H	-1.401492	-2.224138	0.465695
H	0.132508	-2.376238	-0.420105
H	2.385908	1.492062	-1.100305
$end

$rem
JOBTYPE		SP
EXCHANGE	HF
CORRELATION	pRIMP2
BASIS		cc-pvtz
METHOD		rimp2
AUX_BASIS	rimp2-cc-pvtz
SOLVENT_METHOD	PCM
PURECART	11111
SYMMETRY	false
MEM_TOTAL	110000
SCF_CONVERGENCE = 6
THRESH=10
GUI = 2
$end

$solvent
dielectric 4.90
$end
--------------------------------------------------------------

             Standard Nuclear Orientation (Angstroms)
    I     Atom           X                Y                Z
 ----------------------------------------------------------------
    1      C      -0.5888920000    -0.2389380000    -0.0032050000
    2      C       0.1410080000     0.1860620000     1.1097950000
    3      C       1.3433080000     0.8855620000     0.8173950000
    4      H      -0.1943920000    -0.0091380000     2.1396950000
    5      C       1.5579080000     1.0102620000    -0.5668050000
    6      S       0.2498080000     0.2495620000    -1.4679050000
    7      C       2.2635080000     1.4209620000     1.8791950000
    8      H       1.8762080000     1.1957620000     2.8917950000
    9      H       2.3817080000     2.5222620000     1.8048950000
   10      H       3.2793080000     0.9794620000     1.8049950000
   11      C      -0.5888920000    -1.6890380000    -0.0032050000
   12      H      -0.0488920000    -1.6895380000     0.9320950000
   13      H      -1.4014920000    -2.2241380000     0.4656950000
   14      H       0.1325080000    -2.3762380000    -0.4201050000
   15      H       2.3859080000     1.4920620000    -1.1003050000
 ----------------------------------------------------------------

   11    -629.3358471932      6.75e-07  Convergence criterion met
 Total energy in the final basis set =     -629.3358471932
        RIMP2         total energy =      -630.5296861455 a.u.

                    Orbital Energies (a.u.)
 --------------------------------------------------------------

 Alpha MOs
 -- Occupied --
-91.9770 -11.2820 -11.2523 -11.2489 -11.2443 -11.2295 -11.2050  -8.9773
 -6.6581  -6.6573  -6.6571  -1.1763  -1.0561  -1.0024  -0.9320  -0.8829
 -0.7487  -0.7349  -0.6429  -0.5905  -0.5822  -0.5720  -0.5524  -0.5440
 -0.5191  -0.4740  -0.4492  -0.4419  -0.3278  -0.2958

          Ground-State Mulliken Net Atomic Charges

     Atom                 Charge (a.u.)
  ----------------------------------------
      1 C                    -0.118710
      2 C                    -0.100953
      3 C                    -0.034641
      4 H                     0.184338
      5 C                    -0.187697
      6 S                     0.021358
      7 C                    -0.267385
      8 H                     0.101998
      9 H                     0.107013
     10 H                     0.103706
     11 C                    -0.373163
     12 H                     0.120016
     13 H                     0.102651
     14 H                     0.142823
     15 H                     0.198645
  ----------------------------------------
  Sum of atomic charges =     0.000000

                    Cartesian Multipole Moments
 -----------------------------------------------------------------
    Charge (ESU x 10^10)
                -0.0000
    Dipole Moment (Debye)
         X       2.7502      Y       0.1415      Z       2.2236
       Tot       3.5395
    Quadrupole Moments (Debye-Ang)
        XX     -48.4358     XY       3.4688     YY     -50.3031
        XZ      -0.8070     YZ      -0.7271     ZZ     -47.7284

 Total job time:  21.39s(wall), 858.00s(cpu)
        *  Thank you very much for using Q-Chem.  Have a nice day.  *
