 Q-Chem 5.4, Q-Chem, Inc., Pleasanton, CA (2021)
 Q-Chem 5.4.0 for Intel X86 EM64T Linux

User input:
--------------------------------------------------------------
$molecule
0 1
C	-0.522059	-0.335659	-0.002247
C	0.122941	0.209641	1.110753
C	1.185541	1.107341	0.818353
H	-0.173459	-0.040859	2.140653
C	1.375141	1.267341	-0.565847
S	0.219141	0.291041	-1.466947
C	1.998741	1.794341	1.880153
H	1.656541	1.505341	2.892753
H	1.923941	2.899441	1.805853
H	3.075741	1.535941	1.805953
C	-0.522059	-1.785759	-0.002247
H	0.305241	-1.786259	0.691953
H	-1.125259	-2.320859	0.716253
H	0.013241	-2.472959	-0.640747
H	2.106941	1.885641	-1.099347
$end

$rem
JOBTYPE		SP
EXCHANGE	HF
CORRELATION	pRIMP2
BASIS		cc-pvtz
METHOD		rimp2
AUX_BASIS	rimp2-cc-pvtz
SOLVENT_METHOD	PCM
PURECART	11111
SYMMETRY	false
MEM_TOTAL	110000
SCF_CONVERGENCE = 6
THRESH=10
GUI = 2
$end

$solvent
dielectric 4.90
$end
--------------------------------------------------------------

             Standard Nuclear Orientation (Angstroms)
    I     Atom           X                Y                Z
 ----------------------------------------------------------------
    1      C      -0.5220590000    -0.3356590000    -0.0022470000
    2      C       0.1229410000     0.2096410000     1.1107530000
    3      C       1.1855410000     1.1073410000     0.8183530000
    4      H      -0.1734590000    -0.0408590000     2.1406530000
    5      C       1.3751410000     1.2673410000    -0.5658470000
    6      S       0.2191410000     0.2910410000    -1.4669470000
    7      C       1.9987410000     1.7943410000     1.8801530000
    8      H       1.6565410000     1.5053410000     2.8927530000
    9      H       1.9239410000     2.8994410000     1.8058530000
   10      H       3.0757410000     1.5359410000     1.8059530000
   11      C      -0.5220590000    -1.7857590000    -0.0022470000
   12      H       0.3052410000    -1.7862590000     0.6919530000
   13      H      -1.1252590000    -2.3208590000     0.7162530000
   14      H       0.0132410000    -2.4729590000    -0.6407470000
   15      H       2.1069410000     1.8856410000    -1.0993470000
 ----------------------------------------------------------------

   11    -629.3644372032      4.46e-07  Convergence criterion met
 Total energy in the final basis set =     -629.3644372032
        RIMP2         total energy =      -630.5545521623 a.u.

                    Orbital Energies (a.u.)
 --------------------------------------------------------------

 Alpha MOs
 -- Occupied --
-91.9791 -11.2690 -11.2621 -11.2494 -11.2383 -11.2286 -11.2104  -8.9791
 -6.6600  -6.6593  -6.6589  -1.1708  -1.0550  -0.9997  -0.9342  -0.8831
 -0.7462  -0.7278  -0.6435  -0.5891  -0.5781  -0.5729  -0.5539  -0.5441
 -0.5145  -0.4773  -0.4546  -0.4527  -0.3332  -0.2899

          Ground-State Mulliken Net Atomic Charges

     Atom                 Charge (a.u.)
  ----------------------------------------
      1 C                    -0.058231
      2 C                    -0.170786
      3 C                    -0.003520
      4 H                     0.179852
      5 C                    -0.227977
      6 S                     0.019651
      7 C                    -0.268050
      8 H                     0.101973
      9 H                     0.107266
     10 H                     0.104567
     11 C                    -0.384314
     12 H                     0.135653
     13 H                     0.114664
     14 H                     0.153191
     15 H                     0.196061
  ----------------------------------------
  Sum of atomic charges =     0.000000

                    Cartesian Multipole Moments
 -----------------------------------------------------------------
    Charge (ESU x 10^10)
                -0.0000
    Dipole Moment (Debye)
         X       2.0993      Y      -0.0687      Z       1.9450
       Tot       2.8626
    Quadrupole Moments (Debye-Ang)
        XX     -50.0337     XY       3.5891     YY     -48.3284
        XZ      -0.4171     YZ      -0.5858     ZZ     -47.9538

 Total job time:  20.65s(wall), 818.67s(cpu)
        *  Thank you very much for using Q-Chem.  Have a nice day.  *
