 Q-Chem 5.4, Q-Chem, Inc., Pleasanton, CA (2021)
 Q-Chem 5.4.0 for Intel X86 EM64T Linux

User input:
--------------------------------------------------------------
$molecule
0 1
C	-0.517432	-0.335659	0.005949
C	0.127568	0.209641	1.118949
C	1.190168	1.107341	0.826549
H	-0.168832	-0.040859	2.148849
C	1.379768	1.267341	-0.557651
S	0.223768	0.291041	-1.458751
C	2.003368	1.794341	1.888349
H	1.661168	1.505341	2.900949
H	1.928568	2.899441	1.814049
H	3.080368	1.535941	1.814149
C	-0.517432	-1.785759	0.005949
H	-0.886832	-1.786259	-1.008951
H	0.364168	-2.320859	-0.314751
H	-1.300232	-2.472959	0.291249
H	2.111568	1.885641	-1.091151
$end

$rem
JOBTYPE		SP
EXCHANGE	HF
CORRELATION	pRIMP2
BASIS		cc-pvtz
METHOD		rimp2
AUX_BASIS	rimp2-cc-pvtz
SOLVENT_METHOD	PCM
PURECART	11111
SYMMETRY	false
MEM_TOTAL	110000
SCF_CONVERGENCE = 6
THRESH=10
GUI = 2
$end

$solvent
dielectric 4.90
$end
--------------------------------------------------------------

             Standard Nuclear Orientation (Angstroms)
    I     Atom           X                Y                Z
 ----------------------------------------------------------------
    1      C      -0.5174320000    -0.3356590000     0.0059490000
    2      C       0.1275680000     0.2096410000     1.1189490000
    3      C       1.1901680000     1.1073410000     0.8265490000
    4      H      -0.1688320000    -0.0408590000     2.1488490000
    5      C       1.3797680000     1.2673410000    -0.5576510000
    6      S       0.2237680000     0.2910410000    -1.4587510000
    7      C       2.0033680000     1.7943410000     1.8883490000
    8      H       1.6611680000     1.5053410000     2.9009490000
    9      H       1.9285680000     2.8994410000     1.8140490000
   10      H       3.0803680000     1.5359410000     1.8141490000
   11      C      -0.5174320000    -1.7857590000     0.0059490000
   12      H      -0.8868320000    -1.7862590000    -1.0089510000
   13      H       0.3641680000    -2.3208590000    -0.3147510000
   14      H      -1.3002320000    -2.4729590000     0.2912490000
   15      H       2.1115680000     1.8856410000    -1.0911510000
 ----------------------------------------------------------------

   10    -629.3725558820      9.30e-07  Convergence criterion met
 Total energy in the final basis set =     -629.3725558820
        RIMP2         total energy =      -630.5596198657 a.u.

                    Orbital Energies (a.u.)
 --------------------------------------------------------------

 Alpha MOs
 -- Occupied --
-91.9776 -11.2762 -11.2520 -11.2482 -11.2436 -11.2282 -11.2105  -8.9781
 -6.6589  -6.6582  -6.6578  -1.1687  -1.0544  -0.9946  -0.9439  -0.8808
 -0.7523  -0.7246  -0.6429  -0.5919  -0.5778  -0.5676  -0.5514  -0.5458
 -0.5161  -0.4700  -0.4571  -0.4414  -0.3345  -0.3045

          Ground-State Mulliken Net Atomic Charges

     Atom                 Charge (a.u.)
  ----------------------------------------
      1 C                    -0.075162
      2 C                    -0.153266
      3 C                     0.001796
      4 H                     0.180044
      5 C                    -0.206622
      6 S                     0.007261
      7 C                    -0.269268
      8 H                     0.102188
      9 H                     0.106751
     10 H                     0.104685
     11 C                    -0.362194
     12 H                     0.105673
     13 H                     0.125240
     14 H                     0.134841
     15 H                     0.198033
  ----------------------------------------
  Sum of atomic charges =     0.000000

                    Cartesian Multipole Moments
 -----------------------------------------------------------------
    Charge (ESU x 10^10)
                -0.0000
    Dipole Moment (Debye)
         X       1.6961      Y       0.3116      Z       1.1863
       Tot       2.0932
    Quadrupole Moments (Debye-Ang)
        XX     -48.9378     XY       5.2368     YY     -48.1594
        XZ      -0.1249     YZ       0.8922     ZZ     -48.2648

 Total job time:  15.93s(wall), 745.80s(cpu)
        *  Thank you very much for using Q-Chem.  Have a nice day.  *
