 Q-Chem 5.4, Q-Chem, Inc., Pleasanton, CA (2021)
 Q-Chem 5.4.0 for Intel X86 EM64T Linux

User input:
--------------------------------------------------------------
$molecule
0 1
C	-0.519863	-0.335659	-0.003488
C	0.125137	0.209641	1.109512
C	1.187737	1.107341	0.817112
H	-0.171263	-0.040859	2.139412
C	1.377337	1.267341	-0.567088
S	0.221337	0.291041	-1.468188
C	2.000937	1.794341	1.878912
H	1.658737	1.505341	2.891512
H	1.926137	2.899441	1.804612
H	3.077937	1.535941	1.804712
C	-0.519863	-1.785759	-0.003488
H	-0.150463	-1.786259	1.011412
H	-1.401463	-2.320859	0.317212
H	0.262937	-2.472959	-0.288788
H	2.109137	1.885641	-1.100588
$end

$rem
JOBTYPE		SP
EXCHANGE	HF
CORRELATION	pRIMP2
BASIS		cc-pvtz
METHOD		rimp2
AUX_BASIS	rimp2-cc-pvtz
SOLVENT_METHOD	PCM
PURECART	11111
SYMMETRY	false
MEM_TOTAL	110000
SCF_CONVERGENCE = 6
THRESH=10
GUI = 2
$end

$solvent
dielectric 4.90
$end
--------------------------------------------------------------

             Standard Nuclear Orientation (Angstroms)
    I     Atom           X                Y                Z
 ----------------------------------------------------------------
    1      C      -0.5198630000    -0.3356590000    -0.0034880000
    2      C       0.1251370000     0.2096410000     1.1095120000
    3      C       1.1877370000     1.1073410000     0.8171120000
    4      H      -0.1712630000    -0.0408590000     2.1394120000
    5      C       1.3773370000     1.2673410000    -0.5670880000
    6      S       0.2213370000     0.2910410000    -1.4681880000
    7      C       2.0009370000     1.7943410000     1.8789120000
    8      H       1.6587370000     1.5053410000     2.8915120000
    9      H       1.9261370000     2.8994410000     1.8046120000
   10      H       3.0779370000     1.5359410000     1.8047120000
   11      C      -0.5198630000    -1.7857590000    -0.0034880000
   12      H      -0.1504630000    -1.7862590000     1.0114120000
   13      H      -1.4014630000    -2.3208590000     0.3172120000
   14      H       0.2629370000    -2.4729590000    -0.2887880000
   15      H       2.1091370000     1.8856410000    -1.1005880000
 ----------------------------------------------------------------

   10    -629.3659892808      9.93e-07  Convergence criterion met
 Total energy in the final basis set =     -629.3659892808
        RIMP2         total energy =      -630.5553928367 a.u.

                    Orbital Energies (a.u.)
 --------------------------------------------------------------

 Alpha MOs
 -- Occupied --
-91.9757 -11.2735 -11.2556 -11.2485 -11.2453 -11.2289 -11.2077  -8.9760
 -6.6569  -6.6562  -6.6558  -1.1701  -1.0540  -1.0006  -0.9337  -0.8838
 -0.7458  -0.7310  -0.6433  -0.5883  -0.5814  -0.5716  -0.5534  -0.5422
 -0.5176  -0.4703  -0.4588  -0.4391  -0.3310  -0.3013

          Ground-State Mulliken Net Atomic Charges

     Atom                 Charge (a.u.)
  ----------------------------------------
      1 C                    -0.063690
      2 C                    -0.164622
      3 C                    -0.004033
      4 H                     0.178195
      5 C                    -0.209404
      6 S                     0.010599
      7 C                    -0.268582
      8 H                     0.101615
      9 H                     0.106973
     10 H                     0.104981
     11 C                    -0.368331
     12 H                     0.123591
     13 H                     0.108544
     14 H                     0.148480
     15 H                     0.195685
  ----------------------------------------
  Sum of atomic charges =     0.000000

                    Cartesian Multipole Moments
 -----------------------------------------------------------------
    Charge (ESU x 10^10)
                -0.0000
    Dipole Moment (Debye)
         X       2.0356      Y       0.1992      Z       2.2507
       Tot       3.0413
    Quadrupole Moments (Debye-Ang)
        XX     -49.4236     XY       3.8897     YY     -48.4615
        XZ      -0.5468     YZ      -0.9086     ZZ     -48.2297

 Total job time:  20.07s(wall), 763.18s(cpu)
        *  Thank you very much for using Q-Chem.  Have a nice day.  *
