 Q-Chem 5.4, Q-Chem, Inc., Pleasanton, CA (2021)
 Q-Chem 5.4.0 for Intel X86 EM64T Linux

User input:
--------------------------------------------------------------
$molecule
0 1
C	-0.230381	-0.536244	-0.003627
C	0.055619	0.258456	1.109373
C	0.526919	1.567156	0.816973
H	-0.075881	-0.106644	2.139273
C	0.611219	1.800556	-0.567227
S	0.098119	0.377056	-1.468327
C	0.887719	2.568756	1.878773
H	0.735819	2.147356	2.891373
H	0.270419	3.488456	1.804473
H	1.949619	2.883556	1.804573
C	-0.230381	-1.986344	-0.003627
H	-0.042781	-1.986844	1.059973
H	-1.154281	-2.521444	0.159073
H	0.590119	-2.673544	-0.148627
H	0.935719	2.701956	-1.100727
$end

$rem
JOBTYPE		SP
EXCHANGE	HF
CORRELATION	pRIMP2
BASIS		cc-pvtz
METHOD		rimp2
AUX_BASIS	rimp2-cc-pvtz
SOLVENT_METHOD	PCM
PURECART	11111
SYMMETRY	false
MEM_TOTAL	110000
SCF_CONVERGENCE = 6
THRESH=10
GUI = 2
$end

$solvent
dielectric 4.90
$end
--------------------------------------------------------------

             Standard Nuclear Orientation (Angstroms)
    I     Atom           X                Y                Z
 ----------------------------------------------------------------
    1      C      -0.2303810000    -0.5362440000    -0.0036270000
    2      C       0.0556190000     0.2584560000     1.1093730000
    3      C       0.5269190000     1.5671560000     0.8169730000
    4      H      -0.0758810000    -0.1066440000     2.1392730000
    5      C       0.6112190000     1.8005560000    -0.5672270000
    6      S       0.0981190000     0.3770560000    -1.4683270000
    7      C       0.8877190000     2.5687560000     1.8787730000
    8      H       0.7358190000     2.1473560000     2.8913730000
    9      H       0.2704190000     3.4884560000     1.8044730000
   10      H       1.9496190000     2.8835560000     1.8045730000
   11      C      -0.2303810000    -1.9863440000    -0.0036270000
   12      H      -0.0427810000    -1.9868440000     1.0599730000
   13      H      -1.1542810000    -2.5214440000     0.1590730000
   14      H       0.5901190000    -2.6735440000    -0.1486270000
   15      H       0.9357190000     2.7019560000    -1.1007270000
 ----------------------------------------------------------------

   10    -629.4167845506      4.89e-07  Convergence criterion met
 Total energy in the final basis set =     -629.4167845506
        RIMP2         total energy =      -630.5963421123 a.u.

                    Orbital Energies (a.u.)
 --------------------------------------------------------------

 Alpha MOs
 -- Occupied --
-91.9755 -11.2747 -11.2599 -11.2474 -11.2352 -11.2278 -11.2155  -8.9756
 -6.6565  -6.6560  -6.6555  -1.1620  -1.0524  -0.9996  -0.9380  -0.8853
 -0.7427  -0.7247  -0.6469  -0.5898  -0.5785  -0.5686  -0.5574  -0.5411
 -0.5120  -0.4804  -0.4681  -0.4387  -0.3368  -0.3045

          Ground-State Mulliken Net Atomic Charges

     Atom                 Charge (a.u.)
  ----------------------------------------
      1 C                     0.035162
      2 C                    -0.261828
      3 C                     0.033532
      4 H                     0.175426
      5 C                    -0.247462
      6 S                    -0.004203
      7 C                    -0.271794
      8 H                     0.101322
      9 H                     0.107093
     10 H                     0.107057
     11 C                    -0.364773
     12 H                     0.122910
     13 H                     0.125807
     14 H                     0.148229
     15 H                     0.193524
  ----------------------------------------
  Sum of atomic charges =     0.000000

                    Cartesian Multipole Moments
 -----------------------------------------------------------------
    Charge (ESU x 10^10)
                -0.0000
    Dipole Moment (Debye)
         X       0.6481      Y      -0.0057      Z       2.1760
       Tot       2.2705
    Quadrupole Moments (Debye-Ang)
        XX     -52.8287     XY       2.4470     YY     -43.3532
        XZ      -0.1615     YZ      -1.0017     ZZ     -48.8835

 Total job time:  16.05s(wall), 751.60s(cpu)
        *  Thank you very much for using Q-Chem.  Have a nice day.  *
