 Q-Chem 5.4, Q-Chem, Inc., Pleasanton, CA (2021)
 Q-Chem 5.4.0 for Intel X86 EM64T Linux

User input:
--------------------------------------------------------------
$molecule
0 1
C	-0.582480	-0.238938	0.003333
C	0.147420	0.186062	1.116333
C	1.349720	0.885562	0.823933
H	-0.187980	-0.009138	2.146233
C	1.564320	1.010262	-0.560267
S	0.256220	0.249562	-1.461367
C	2.269920	1.420962	1.885733
H	1.882620	1.195762	2.898333
H	2.388120	2.522262	1.811433
H	3.285720	0.979462	1.811533
C	-0.582480	-1.689038	0.003333
H	-1.597380	-1.689538	-0.366067
H	-0.261380	-2.224138	-0.878167
H	-0.867180	-2.376238	0.786333
H	2.392320	1.492062	-1.093767
$end

$rem
JOBTYPE		SP
EXCHANGE	HF
CORRELATION	pRIMP2
BASIS		cc-pvtz
METHOD		rimp2
AUX_BASIS	rimp2-cc-pvtz
SOLVENT_METHOD	PCM
PURECART	11111
SYMMETRY	false
MEM_TOTAL	110000
SCF_CONVERGENCE = 6
THRESH=10
GUI = 2
$end

$solvent
dielectric 4.90
$end
--------------------------------------------------------------

             Standard Nuclear Orientation (Angstroms)
    I     Atom           X                Y                Z
 ----------------------------------------------------------------
    1      C      -0.5824800000    -0.2389380000     0.0033330000
    2      C       0.1474200000     0.1860620000     1.1163330000
    3      C       1.3497200000     0.8855620000     0.8239330000
    4      H      -0.1879800000    -0.0091380000     2.1462330000
    5      C       1.5643200000     1.0102620000    -0.5602670000
    6      S       0.2562200000     0.2495620000    -1.4613670000
    7      C       2.2699200000     1.4209620000     1.8857330000
    8      H       1.8826200000     1.1957620000     2.8983330000
    9      H       2.3881200000     2.5222620000     1.8114330000
   10      H       3.2857200000     0.9794620000     1.8115330000
   11      C      -0.5824800000    -1.6890380000     0.0033330000
   12      H      -1.5973800000    -1.6895380000    -0.3660670000
   13      H      -0.2613800000    -2.2241380000    -0.8781670000
   14      H      -0.8671800000    -2.3762380000     0.7863330000
   15      H       2.3923200000     1.4920620000    -1.0937670000
 ----------------------------------------------------------------

   11    -629.3380504897      6.43e-07  Convergence criterion met
 Total energy in the final basis set =     -629.3380504897
        RIMP2         total energy =      -630.5297471264 a.u.

                    Orbital Energies (a.u.)
 --------------------------------------------------------------

 Alpha MOs
 -- Occupied --
-91.9741 -11.2814 -11.2509 -11.2483 -11.2410 -11.2285 -11.2047  -8.9750
 -6.6558  -6.6549  -6.6547  -1.1712  -1.0536  -0.9959  -0.9406  -0.8815
 -0.7518  -0.7285  -0.6411  -0.5894  -0.5760  -0.5678  -0.5516  -0.5424
 -0.5173  -0.4877  -0.4573  -0.4244  -0.3345  -0.2865

          Ground-State Mulliken Net Atomic Charges

     Atom                 Charge (a.u.)
  ----------------------------------------
      1 C                    -0.123776
      2 C                    -0.108113
      3 C                    -0.017848
      4 H                     0.185675
      5 C                    -0.184356
      6 S                     0.009699
      7 C                    -0.268993
      8 H                     0.101838
      9 H                     0.106432
     10 H                     0.103954
     11 C                    -0.398059
     12 H                     0.122589
     13 H                     0.130913
     14 H                     0.141424
     15 H                     0.198621
  ----------------------------------------
  Sum of atomic charges =     0.000000

                    Cartesian Multipole Moments
 -----------------------------------------------------------------
    Charge (ESU x 10^10)
                -0.0000
    Dipole Moment (Debye)
         X       1.8926      Y       0.0937      Z       1.6014
       Tot       2.4810
    Quadrupole Moments (Debye-Ang)
        XX     -47.8403     XY       5.2770     YY     -50.0430
        XZ      -0.5190     YZ       0.2781     ZZ     -47.5389

 Total job time:  20.40s(wall), 834.19s(cpu)
        *  Thank you very much for using Q-Chem.  Have a nice day.  *
