 Q-Chem 5.4, Q-Chem, Inc., Pleasanton, CA (2021)
 Q-Chem 5.4.0 for Intel X86 EM64T Linux

User input:
--------------------------------------------------------------
$molecule
0 1
C	-0.337924	-0.486609	0.006080
C	0.081676	0.246391	1.119080
C	0.773176	1.453391	0.826680
H	-0.111224	-0.090409	2.148980
C	0.896676	1.668591	-0.557520
S	0.144176	0.355791	-1.458620
C	1.302376	2.377091	1.888480
H	1.079576	1.988491	2.901080
H	0.854076	3.389991	1.814180
H	2.402776	2.502691	1.814280
C	-0.337924	-1.936709	0.006080
H	-0.337924	-1.937209	-1.073920
H	0.600176	-2.471809	0.006280
H	-1.171124	-2.623909	0.006380
H	1.372776	2.499891	-1.091020
$end

$rem
JOBTYPE		SP
EXCHANGE	HF
CORRELATION	pRIMP2
BASIS		cc-pvtz
METHOD		rimp2
AUX_BASIS	rimp2-cc-pvtz
SOLVENT_METHOD	PCM
PURECART	11111
SYMMETRY	false
MEM_TOTAL	110000
SCF_CONVERGENCE = 6
THRESH=10
GUI = 2
$end

$solvent
dielectric 4.90
$end
--------------------------------------------------------------

             Standard Nuclear Orientation (Angstroms)
    I     Atom           X                Y                Z
 ----------------------------------------------------------------
    1      C      -0.3379240000    -0.4866090000     0.0060800000
    2      C       0.0816760000     0.2463910000     1.1190800000
    3      C       0.7731760000     1.4533910000     0.8266800000
    4      H      -0.1112240000    -0.0904090000     2.1489800000
    5      C       0.8966760000     1.6685910000    -0.5575200000
    6      S       0.1441760000     0.3557910000    -1.4586200000
    7      C       1.3023760000     2.3770910000     1.8884800000
    8      H       1.0795760000     1.9884910000     2.9010800000
    9      H       0.8540760000     3.3899910000     1.8141800000
   10      H       2.4027760000     2.5026910000     1.8142800000
   11      C      -0.3379240000    -1.9367090000     0.0060800000
   12      H      -0.3379240000    -1.9372090000    -1.0739200000
   13      H       0.6001760000    -2.4718090000     0.0062800000
   14      H      -1.1711240000    -2.6239090000     0.0063800000
   15      H       1.3727760000     2.4998910000    -1.0910200000
 ----------------------------------------------------------------

   10    -629.4043596389      5.35e-07  Convergence criterion met
 Total energy in the final basis set =     -629.4043596389
        RIMP2         total energy =      -630.5858024939 a.u.

                    Orbital Energies (a.u.)
 --------------------------------------------------------------

 Alpha MOs
 -- Occupied --
-91.9794 -11.2676 -11.2639 -11.2474 -11.2336 -11.2274 -11.2142  -8.9795
 -6.6604  -6.6598  -6.6592  -1.1633  -1.0536  -0.9944  -0.9450  -0.8818
 -0.7492  -0.7201  -0.6453  -0.5907  -0.5763  -0.5662  -0.5525  -0.5464
 -0.5116  -0.4784  -0.4645  -0.4428  -0.3366  -0.3052

          Ground-State Mulliken Net Atomic Charges

     Atom                 Charge (a.u.)
  ----------------------------------------
      1 C                     0.006958
      2 C                    -0.243457
      3 C                     0.040841
      4 H                     0.177515
      5 C                    -0.246386
      6 S                    -0.001213
      7 C                    -0.271041
      8 H                     0.102156
      9 H                     0.106880
     10 H                     0.106047
     11 C                    -0.360030
     12 H                     0.112450
     13 H                     0.132126
     14 H                     0.140856
     15 H                     0.196298
  ----------------------------------------
  Sum of atomic charges =     0.000000

                    Cartesian Multipole Moments
 -----------------------------------------------------------------
    Charge (ESU x 10^10)
                -0.0000
    Dipole Moment (Debye)
         X       0.9263      Y       0.1604      Z       0.9585
       Tot       1.3426
    Quadrupole Moments (Debye-Ang)
        XX     -51.7068     XY       3.9831     YY     -44.6953
        XZ       0.2450     YZ       1.3814     ZZ     -48.6706

 Total job time:  19.10s(wall), 736.88s(cpu)
        *  Thank you very much for using Q-Chem.  Have a nice day.  *
