 Q-Chem 5.4, Q-Chem, Inc., Pleasanton, CA (2021)
 Q-Chem 5.4.0 for Intel X86 EM64T Linux

User input:
--------------------------------------------------------------
$molecule
0 1
C	-0.436752	-0.419059	0.005627
C	0.103748	0.229941	1.118627
C	0.994248	1.298441	0.826227
H	-0.144652	-0.068259	2.148527
C	1.153348	1.489041	-0.557973
S	0.184348	0.326841	-1.459073
C	1.675848	2.116341	1.888027
H	1.389048	1.772241	2.900627
H	1.410348	3.191641	1.813727
H	2.781448	2.048841	1.813827
C	-0.436752	-1.869159	0.005627
H	-0.067352	-1.869659	-1.009273
H	0.444748	-2.404259	0.326727
H	-1.219752	-2.556359	-0.279073
H	1.766548	2.225041	-1.091473
$end

$rem
JOBTYPE		SP
EXCHANGE	HF
CORRELATION	pRIMP2
BASIS		cc-pvtz
METHOD		rimp2
AUX_BASIS	rimp2-cc-pvtz
SOLVENT_METHOD	PCM
PURECART	11111
SYMMETRY	false
MEM_TOTAL	110000
SCF_CONVERGENCE = 6
THRESH=10
GUI = 2
$end

$solvent
dielectric 4.90
$end
--------------------------------------------------------------

             Standard Nuclear Orientation (Angstroms)
    I     Atom           X                Y                Z
 ----------------------------------------------------------------
    1      C      -0.4367520000    -0.4190590000     0.0056270000
    2      C       0.1037480000     0.2299410000     1.1186270000
    3      C       0.9942480000     1.2984410000     0.8262270000
    4      H      -0.1446520000    -0.0682590000     2.1485270000
    5      C       1.1533480000     1.4890410000    -0.5579730000
    6      S       0.1843480000     0.3268410000    -1.4590730000
    7      C       1.6758480000     2.1163410000     1.8880270000
    8      H       1.3890480000     1.7722410000     2.9006270000
    9      H       1.4103480000     3.1916410000     1.8137270000
   10      H       2.7814480000     2.0488410000     1.8138270000
   11      C      -0.4367520000    -1.8691590000     0.0056270000
   12      H      -0.0673520000    -1.8696590000    -1.0092730000
   13      H       0.4447480000    -2.4042590000     0.3267270000
   14      H      -1.2197520000    -2.5563590000    -0.2790730000
   15      H       1.7665480000     2.2250410000    -1.0914730000
 ----------------------------------------------------------------

   10    -629.3886344264      5.87e-07  Convergence criterion met
 Total energy in the final basis set =     -629.3886344264
        RIMP2         total energy =      -630.5727874112 a.u.

                    Orbital Energies (a.u.)
 --------------------------------------------------------------

 Alpha MOs
 -- Occupied --
-91.9757 -11.2675 -11.2638 -11.2474 -11.2384 -11.2278 -11.2117  -8.9765
 -6.6573  -6.6566  -6.6561  -1.1663  -1.0546  -0.9939  -0.9440  -0.8806
 -0.7507  -0.7219  -0.6443  -0.5897  -0.5783  -0.5657  -0.5513  -0.5469
 -0.5131  -0.4774  -0.4632  -0.4416  -0.3355  -0.3023

          Ground-State Mulliken Net Atomic Charges

     Atom                 Charge (a.u.)
  ----------------------------------------
      1 C                    -0.013997
      2 C                    -0.225180
      3 C                     0.033241
      4 H                     0.178441
      5 C                    -0.233172
      6 S                    -0.002646
      7 C                    -0.269719
      8 H                     0.101941
      9 H                     0.107336
     10 H                     0.105512
     11 C                    -0.371356
     12 H                     0.125755
     13 H                     0.135299
     14 H                     0.132251
     15 H                     0.196294
  ----------------------------------------
  Sum of atomic charges =     0.000000

                    Cartesian Multipole Moments
 -----------------------------------------------------------------
    Charge (ESU x 10^10)
                -0.0000
    Dipole Moment (Debye)
         X       1.5343      Y       0.1319      Z       1.0441
       Tot       1.8605
    Quadrupole Moments (Debye-Ang)
        XX     -50.7110     XY       4.0452     YY     -46.4986
        XZ       0.4236     YZ       1.3919     ZZ     -48.4196

 Total job time:  16.52s(wall), 747.82s(cpu)
        *  Thank you very much for using Q-Chem.  Have a nice day.  *
