 Q-Chem 5.4, Q-Chem, Inc., Pleasanton, CA (2021)
 Q-Chem 5.4.0 for Intel X86 EM64T Linux

User input:
--------------------------------------------------------------
$molecule
0 1
C	0.007248	-0.576386	0.001702
C	0.004148	0.268214	1.114702
C	-0.000552	1.659214	0.822302
H	0.005548	-0.119886	2.144602
C	-0.001152	1.907314	-0.561898
S	0.003548	0.394214	-1.462998
C	-0.004152	2.723814	1.884102
H	-0.002652	2.275814	2.896702
H	-0.898652	3.376814	1.809802
H	0.886148	3.382714	1.809902
C	0.007248	-2.026486	0.001702
H	-1.072752	-2.026986	0.001702
H	0.007448	-2.561586	-0.936398
H	0.007548	-2.713686	0.834902
H	-0.004452	2.865414	-1.095398
$end

$rem
JOBTYPE		SP
EXCHANGE	HF
CORRELATION	pRIMP2
BASIS		cc-pvtz
METHOD		rimp2
AUX_BASIS	rimp2-cc-pvtz
SOLVENT_METHOD	PCM
PURECART	11111
SYMMETRY	false
MEM_TOTAL	110000
SCF_CONVERGENCE = 6
THRESH=10
GUI = 2
$end

$solvent
dielectric 4.90
$end
--------------------------------------------------------------

             Standard Nuclear Orientation (Angstroms)
    I     Atom           X                Y                Z
 ----------------------------------------------------------------
    1      C       0.0072480000    -0.5763860000     0.0017020000
    2      C       0.0041480000     0.2682140000     1.1147020000
    3      C      -0.0005520000     1.6592140000     0.8223020000
    4      H       0.0055480000    -0.1198860000     2.1446020000
    5      C      -0.0011520000     1.9073140000    -0.5618980000
    6      S       0.0035480000     0.3942140000    -1.4629980000
    7      C      -0.0041520000     2.7238140000     1.8841020000
    8      H      -0.0026520000     2.2758140000     2.8967020000
    9      H      -0.8986520000     3.3768140000     1.8098020000
   10      H       0.8861480000     3.3827140000     1.8099020000
   11      C       0.0072480000    -2.0264860000     0.0017020000
   12      H      -1.0727520000    -2.0269860000     0.0017020000
   13      H       0.0074480000    -2.5615860000    -0.9363980000
   14      H       0.0075480000    -2.7136860000     0.8349020000
   15      H      -0.0044520000     2.8654140000    -1.0953980000
 ----------------------------------------------------------------

   10    -629.4254968112      6.91e-07  Convergence criterion met
 Total energy in the final basis set =     -629.4254968112
        RIMP2         total energy =      -630.6002894193 a.u.

                    Orbital Energies (a.u.)
 --------------------------------------------------------------

 Alpha MOs
 -- Occupied --
-91.9796 -11.2860 -11.2490 -11.2470 -11.2264 -11.2232 -11.2216  -8.9792
 -6.6602  -6.6597  -6.6591  -1.1599  -1.0546  -0.9971  -0.9418  -0.8836
 -0.7437  -0.7180  -0.6486  -0.5868  -0.5741  -0.5669  -0.5541  -0.5458
 -0.5069  -0.4960  -0.4661  -0.4569  -0.3382  -0.2892

          Ground-State Mulliken Net Atomic Charges

     Atom                 Charge (a.u.)
  ----------------------------------------
      1 C                     0.059354
      2 C                    -0.306044
      3 C                     0.049490
      4 H                     0.174902
      5 C                    -0.281348
      6 S                     0.003329
      7 C                    -0.274266
      8 H                     0.101542
      9 H                     0.107419
     10 H                     0.107209
     11 C                    -0.383435
     12 H                     0.143313
     13 H                     0.140430
     14 H                     0.164445
     15 H                     0.193660
  ----------------------------------------
  Sum of atomic charges =     0.000000

                    Cartesian Multipole Moments
 -----------------------------------------------------------------
    Charge (ESU x 10^10)
                -0.0000
    Dipole Moment (Debye)
         X      -0.7477      Y      -0.7593      Z       1.3842
       Tot       1.7469
    Quadrupole Moments (Debye-Ang)
        XX     -54.4324     XY       1.5420     YY     -41.6345
        XZ      -0.0386     YZ       0.3039     ZZ     -48.5644

 Total job time:  15.75s(wall), 750.30s(cpu)
        *  Thank you very much for using Q-Chem.  Have a nice day.  *
