 Q-Chem 5.4, Q-Chem, Inc., Pleasanton, CA (2021)
 Q-Chem 5.4.0 for Intel X86 EM64T Linux

User input:
--------------------------------------------------------------
$molecule
0 1
C	-0.233967	-0.536244	-0.001602
C	0.052033	0.258456	1.111398
C	0.523333	1.567156	0.818998
H	-0.079467	-0.106644	2.141298
C	0.607633	1.800556	-0.565202
S	0.094533	0.377056	-1.466302
C	0.884133	2.568756	1.880798
H	0.732233	2.147356	2.893398
H	0.266833	3.488456	1.806498
H	1.946033	2.883556	1.806598
C	-0.233967	-1.986344	-0.001602
H	0.701333	-1.986844	0.538398
H	-0.703267	-2.521444	0.810698
H	0.182333	-2.673544	-0.723302
H	0.932133	2.701956	-1.098702
$end

$rem
JOBTYPE		SP
EXCHANGE	HF
CORRELATION	pRIMP2
BASIS		cc-pvtz
METHOD		rimp2
AUX_BASIS	rimp2-cc-pvtz
SOLVENT_METHOD	PCM
PURECART	11111
SYMMETRY	false
MEM_TOTAL	110000
SCF_CONVERGENCE = 6
THRESH=10
GUI = 2
$end

$solvent
dielectric 4.90
$end
--------------------------------------------------------------

             Standard Nuclear Orientation (Angstroms)
    I     Atom           X                Y                Z
 ----------------------------------------------------------------
    1      C      -0.2339670000    -0.5362440000    -0.0016020000
    2      C       0.0520330000     0.2584560000     1.1113980000
    3      C       0.5233330000     1.5671560000     0.8189980000
    4      H      -0.0794670000    -0.1066440000     2.1412980000
    5      C       0.6076330000     1.8005560000    -0.5652020000
    6      S       0.0945330000     0.3770560000    -1.4663020000
    7      C       0.8841330000     2.5687560000     1.8807980000
    8      H       0.7322330000     2.1473560000     2.8933980000
    9      H       0.2668330000     3.4884560000     1.8064980000
   10      H       1.9460330000     2.8835560000     1.8065980000
   11      C      -0.2339670000    -1.9863440000    -0.0016020000
   12      H       0.7013330000    -1.9868440000     0.5383980000
   13      H      -0.7032670000    -2.5214440000     0.8106980000
   14      H       0.1823330000    -2.6735440000    -0.7233020000
   15      H       0.9321330000     2.7019560000    -1.0987020000
 ----------------------------------------------------------------

   10    -629.4168538001      6.09e-07  Convergence criterion met
 Total energy in the final basis set =     -629.4168538001
        RIMP2         total energy =      -630.5948580176 a.u.

                    Orbital Energies (a.u.)
 --------------------------------------------------------------

 Alpha MOs
 -- Occupied --
-91.9789 -11.2831 -11.2515 -11.2479 -11.2271 -11.2251 -11.2202  -8.9786
 -6.6595  -6.6590  -6.6584  -1.1617  -1.0542  -0.9983  -0.9386  -0.8841
 -0.7429  -0.7202  -0.6465  -0.5895  -0.5745  -0.5710  -0.5557  -0.5435
 -0.5090  -0.4868  -0.4670  -0.4541  -0.3369  -0.2910

          Ground-State Mulliken Net Atomic Charges

     Atom                 Charge (a.u.)
  ----------------------------------------
      1 C                     0.042219
      2 C                    -0.278464
      3 C                     0.041227
      4 H                     0.174219
      5 C                    -0.274319
      6 S                     0.003108
      7 C                    -0.271531
      8 H                     0.101468
      9 H                     0.107413
     10 H                     0.106770
     11 C                    -0.388668
     12 H                     0.148238
     13 H                     0.136977
     14 H                     0.158456
     15 H                     0.192886
  ----------------------------------------
  Sum of atomic charges =     0.000000

                    Cartesian Multipole Moments
 -----------------------------------------------------------------
    Charge (ESU x 10^10)
                -0.0000
    Dipole Moment (Debye)
         X       1.0193      Y      -0.5882      Z       1.7875
       Tot       2.1401
    Quadrupole Moments (Debye-Ang)
        XX     -53.5725     XY       1.4760     YY     -43.0935
        XZ      -0.1453     YZ      -0.2752     ZZ     -48.5703

 Total job time:  15.71s(wall), 744.59s(cpu)
        *  Thank you very much for using Q-Chem.  Have a nice day.  *
