 Q-Chem 5.4, Q-Chem, Inc., Pleasanton, CA (2021)
 Q-Chem 5.4.0 for Intel X86 EM64T Linux

User input:
--------------------------------------------------------------
$molecule
0 1
C	-0.228697	-0.536244	-0.003463
C	0.057303	0.258456	1.109537
C	0.528603	1.567156	0.817137
H	-0.074197	-0.106644	2.139437
C	0.612903	1.800556	-0.567063
S	0.099803	0.377056	-1.468163
C	0.889403	2.568756	1.878937
H	0.737503	2.147356	2.891537
H	0.272103	3.488456	1.804637
H	1.951303	2.883556	1.804737
C	-0.228697	-1.986344	-0.003463
H	-0.416197	-1.986844	1.060137
H	-1.152597	-2.521444	-0.166563
H	0.591903	-2.673544	0.140937
H	0.937403	2.701956	-1.100563
$end

$rem
JOBTYPE		SP
EXCHANGE	HF
CORRELATION	pRIMP2
BASIS		cc-pvtz
METHOD		rimp2
AUX_BASIS	rimp2-cc-pvtz
SOLVENT_METHOD	PCM
PURECART	11111
SYMMETRY	false
MEM_TOTAL	110000
SCF_CONVERGENCE = 6
THRESH=10
GUI = 2
$end

$solvent
dielectric 4.90
$end
--------------------------------------------------------------

             Standard Nuclear Orientation (Angstroms)
    I     Atom           X                Y                Z
 ----------------------------------------------------------------
    1      C      -0.2286970000    -0.5362440000    -0.0034630000
    2      C       0.0573030000     0.2584560000     1.1095370000
    3      C       0.5286030000     1.5671560000     0.8171370000
    4      H      -0.0741970000    -0.1066440000     2.1394370000
    5      C       0.6129030000     1.8005560000    -0.5670630000
    6      S       0.0998030000     0.3770560000    -1.4681630000
    7      C       0.8894030000     2.5687560000     1.8789370000
    8      H       0.7375030000     2.1473560000     2.8915370000
    9      H       0.2721030000     3.4884560000     1.8046370000
   10      H       1.9513030000     2.8835560000     1.8047370000
   11      C      -0.2286970000    -1.9863440000    -0.0034630000
   12      H      -0.4161970000    -1.9868440000     1.0601370000
   13      H      -1.1525970000    -2.5214440000    -0.1665630000
   14      H       0.5919030000    -2.6735440000     0.1409370000
   15      H       0.9374030000     2.7019560000    -1.1005630000
 ----------------------------------------------------------------

   10    -629.4181894590      4.90e-07  Convergence criterion met
 Total energy in the final basis set =     -629.4181894590
        RIMP2         total energy =      -630.5976446417 a.u.

                    Orbital Energies (a.u.)
 --------------------------------------------------------------

 Alpha MOs
 -- Occupied --
-91.9748 -11.2738 -11.2609 -11.2475 -11.2362 -11.2278 -11.2158  -8.9750
 -6.6559  -6.6554  -6.6549  -1.1619  -1.0522  -0.9995  -0.9385  -0.8855
 -0.7428  -0.7247  -0.6473  -0.5891  -0.5788  -0.5675  -0.5579  -0.5411
 -0.5122  -0.4827  -0.4669  -0.4369  -0.3376  -0.3053

          Ground-State Mulliken Net Atomic Charges

     Atom                 Charge (a.u.)
  ----------------------------------------
      1 C                     0.029546
      2 C                    -0.261634
      3 C                     0.035994
      4 H                     0.176775
      5 C                    -0.246416
      6 S                    -0.005209
      7 C                    -0.271438
      8 H                     0.101381
      9 H                     0.106981
     10 H                     0.107170
     11 C                    -0.356435
     12 H                     0.116304
     13 H                     0.128973
     14 H                     0.143946
     15 H                     0.194062
  ----------------------------------------
  Sum of atomic charges =     0.000000

                    Cartesian Multipole Moments
 -----------------------------------------------------------------
    Charge (ESU x 10^10)
                -0.0000
    Dipole Moment (Debye)
         X       0.4407      Y       0.0438      Z       2.1828
       Tot       2.2272
    Quadrupole Moments (Debye-Ang)
        XX     -52.7116     XY       3.0028     YY     -43.3004
        XZ       0.0577     YZ      -1.0468     ZZ     -48.9101

 Total job time:  15.66s(wall), 738.93s(cpu)
        *  Thank you very much for using Q-Chem.  Have a nice day.  *
