 Q-Chem 5.4, Q-Chem, Inc., Pleasanton, CA (2021)
 Q-Chem 5.4.0 for Intel X86 EM64T Linux

User input:
--------------------------------------------------------------
$molecule
0 1
C	-0.588091	-0.238938	-0.003488
C	0.141809	0.186062	1.109512
C	1.344109	0.885562	0.817112
H	-0.193591	-0.009138	2.139412
C	1.558709	1.010262	-0.567088
S	0.250609	0.249562	-1.468188
C	2.264309	1.420962	1.878912
H	1.877009	1.195762	2.891512
H	2.382509	2.522262	1.804612
H	3.280109	0.979462	1.804712
C	-0.588091	-1.689038	-0.003488
H	-0.218691	-1.689538	1.011412
H	-1.469691	-2.224138	0.317212
H	0.194709	-2.376238	-0.288788
H	2.386709	1.492062	-1.100588
$end

$rem
JOBTYPE		SP
EXCHANGE	HF
CORRELATION	pRIMP2
BASIS		cc-pvtz
METHOD		rimp2
AUX_BASIS	rimp2-cc-pvtz
SOLVENT_METHOD	PCM
PURECART	11111
SYMMETRY	false
MEM_TOTAL	110000
SCF_CONVERGENCE = 6
THRESH=10
GUI = 2
$end

$solvent
dielectric 4.90
$end
--------------------------------------------------------------

             Standard Nuclear Orientation (Angstroms)
    I     Atom           X                Y                Z
 ----------------------------------------------------------------
    1      C      -0.5880910000    -0.2389380000    -0.0034880000
    2      C       0.1418090000     0.1860620000     1.1095120000
    3      C       1.3441090000     0.8855620000     0.8171120000
    4      H      -0.1935910000    -0.0091380000     2.1394120000
    5      C       1.5587090000     1.0102620000    -0.5670880000
    6      S       0.2506090000     0.2495620000    -1.4681880000
    7      C       2.2643090000     1.4209620000     1.8789120000
    8      H       1.8770090000     1.1957620000     2.8915120000
    9      H       2.3825090000     2.5222620000     1.8046120000
   10      H       3.2801090000     0.9794620000     1.8047120000
   11      C      -0.5880910000    -1.6890380000    -0.0034880000
   12      H      -0.2186910000    -1.6895380000     1.0114120000
   13      H      -1.4696910000    -2.2241380000     0.3172120000
   14      H       0.1947090000    -2.3762380000    -0.2887880000
   15      H       2.3867090000     1.4920620000    -1.1005880000
 ----------------------------------------------------------------

   11    -629.3391145555      5.83e-07  Convergence criterion met
 Total energy in the final basis set =     -629.3391145555
        RIMP2         total energy =      -630.5320295898 a.u.

                    Orbital Energies (a.u.)
 --------------------------------------------------------------

 Alpha MOs
 -- Occupied --
-91.9755 -11.2830 -11.2540 -11.2488 -11.2431 -11.2296 -11.2052  -8.9760
 -6.6568  -6.6559  -6.6557  -1.1758  -1.0559  -1.0024  -0.9320  -0.8832
 -0.7485  -0.7357  -0.6429  -0.5904  -0.5834  -0.5713  -0.5521  -0.5433
 -0.5199  -0.4724  -0.4505  -0.4365  -0.3273  -0.3010

          Ground-State Mulliken Net Atomic Charges

     Atom                 Charge (a.u.)
  ----------------------------------------
      1 C                    -0.115923
      2 C                    -0.103436
      3 C                    -0.031663
      4 H                     0.182671
      5 C                    -0.183394
      6 S                     0.016938
      7 C                    -0.267651
      8 H                     0.101925
      9 H                     0.106863
     10 H                     0.104023
     11 C                    -0.365696
     12 H                     0.116223
     13 H                     0.101519
     14 H                     0.139330
     15 H                     0.198270
  ----------------------------------------
  Sum of atomic charges =     0.000000

                    Cartesian Multipole Moments
 -----------------------------------------------------------------
    Charge (ESU x 10^10)
                -0.0000
    Dipole Moment (Debye)
         X       2.6962      Y       0.1978      Z       2.3152
       Tot       3.5593
    Quadrupole Moments (Debye-Ang)
        XX     -48.2054     XY       3.6057     YY     -50.2856
        XZ      -0.7868     YZ      -0.7983     ZZ     -47.8776

 Total job time:  17.69s(wall), 833.50s(cpu)
        *  Thank you very much for using Q-Chem.  Have a nice day.  *
