 Q-Chem 5.4, Q-Chem, Inc., Pleasanton, CA (2021)
 Q-Chem 5.4.0 for Intel X86 EM64T Linux

User input:
--------------------------------------------------------------
$molecule
0 1
C	-0.287649	-0.513776	0.005194
C	0.066551	0.253024	1.118194
C	0.650151	1.515624	0.825794
H	-0.096349	-0.099276	2.148094
C	0.754351	1.740824	-0.558406
S	0.119251	0.367424	-1.459506
C	1.096751	2.482024	1.887594
H	0.908751	2.075424	2.900194
H	0.561951	3.451924	1.813294
H	2.182151	2.703024	1.813394
C	-0.287649	-1.963876	0.005194
H	0.252351	-1.964376	-0.930106
H	0.524651	-2.498976	0.474494
H	-1.009349	-2.651076	-0.411106
H	1.156251	2.610424	-1.091906
$end

$rem
JOBTYPE		SP
EXCHANGE	HF
CORRELATION	pRIMP2
BASIS		cc-pvtz
METHOD		rimp2
AUX_BASIS	rimp2-cc-pvtz
SOLVENT_METHOD	PCM
PURECART	11111
SYMMETRY	false
MEM_TOTAL	110000
SCF_CONVERGENCE = 6
THRESH=10
GUI = 2
$end

$solvent
dielectric 4.90
$end
--------------------------------------------------------------

             Standard Nuclear Orientation (Angstroms)
    I     Atom           X                Y                Z
 ----------------------------------------------------------------
    1      C      -0.2876490000    -0.5137760000     0.0051940000
    2      C       0.0665510000     0.2530240000     1.1181940000
    3      C       0.6501510000     1.5156240000     0.8257940000
    4      H      -0.0963490000    -0.0992760000     2.1480940000
    5      C       0.7543510000     1.7408240000    -0.5584060000
    6      S       0.1192510000     0.3674240000    -1.4595060000
    7      C       1.0967510000     2.4820240000     1.8875940000
    8      H       0.9087510000     2.0754240000     2.9001940000
    9      H       0.5619510000     3.4519240000     1.8132940000
   10      H       2.1821510000     2.7030240000     1.8133940000
   11      C      -0.2876490000    -1.9638760000     0.0051940000
   12      H       0.2523510000    -1.9643760000    -0.9301060000
   13      H       0.5246510000    -2.4989760000     0.4744940000
   14      H      -1.0093490000    -2.6510760000    -0.4111060000
   15      H       1.1562510000     2.6104240000    -1.0919060000
 ----------------------------------------------------------------

   10    -629.4108433533      5.69e-07  Convergence criterion met
 Total energy in the final basis set =     -629.4108433533
        RIMP2         total energy =      -630.5902143725 a.u.

                    Orbital Energies (a.u.)
 --------------------------------------------------------------

 Alpha MOs
 -- Occupied --
-91.9773 -11.2738 -11.2598 -11.2472 -11.2316 -11.2272 -11.2159  -8.9776
 -6.6586  -6.6580  -6.6574  -1.1627  -1.0541  -0.9947  -0.9443  -0.8819
 -0.7481  -0.7195  -0.6457  -0.5901  -0.5771  -0.5655  -0.5519  -0.5467
 -0.5098  -0.4862  -0.4635  -0.4463  -0.3380  -0.3000

          Ground-State Mulliken Net Atomic Charges

     Atom                 Charge (a.u.)
  ----------------------------------------
      1 C                     0.034845
      2 C                    -0.277246
      3 C                     0.049469
      4 H                     0.178752
      5 C                    -0.253482
      6 S                    -0.004164
      7 C                    -0.271035
      8 H                     0.101873
      9 H                     0.107460
     10 H                     0.106459
     11 C                    -0.372894
     12 H                     0.125352
     13 H                     0.138179
     14 H                     0.141490
     15 H                     0.194944
  ----------------------------------------
  Sum of atomic charges =     0.000000

                    Cartesian Multipole Moments
 -----------------------------------------------------------------
    Charge (ESU x 10^10)
                -0.0000
    Dipole Moment (Debye)
         X       1.0229      Y      -0.0766      Z       0.9880
       Tot       1.4242
    Quadrupole Moments (Debye-Ang)
        XX     -52.6392     XY       2.7348     YY     -43.9218
        XZ       0.4866     YZ       1.4865     ZZ     -48.6461

 Total job time:  31.72s(wall), 757.40s(cpu)
        *  Thank you very much for using Q-Chem.  Have a nice day.  *
