 Q-Chem 5.4, Q-Chem, Inc., Pleasanton, CA (2021)
 Q-Chem 5.4.0 for Intel X86 EM64T Linux

User input:
--------------------------------------------------------------
$molecule
0 1
C	-0.519119	-0.335659	0.006080
C	0.125881	0.209641	1.119080
C	1.188481	1.107341	0.826680
H	-0.170519	-0.040859	2.148980
C	1.378081	1.267341	-0.557520
S	0.222081	0.291041	-1.458620
C	2.001681	1.794341	1.888480
H	1.659481	1.505341	2.901080
H	1.926881	2.899441	1.814180
H	3.078681	1.535941	1.814280
C	-0.519119	-1.785759	0.006080
H	-0.519119	-1.786259	-1.073920
H	0.418981	-2.320859	0.006280
H	-1.352319	-2.472959	0.006380
H	2.109881	1.885641	-1.091020
$end

$rem
JOBTYPE		SP
EXCHANGE	HF
CORRELATION	pRIMP2
BASIS		cc-pvtz
METHOD		rimp2
AUX_BASIS	rimp2-cc-pvtz
SOLVENT_METHOD	PCM
PURECART	11111
SYMMETRY	false
MEM_TOTAL	110000
SCF_CONVERGENCE = 6
THRESH=10
GUI = 2
$end

$solvent
dielectric 4.90
$end
--------------------------------------------------------------

             Standard Nuclear Orientation (Angstroms)
    I     Atom           X                Y                Z
 ----------------------------------------------------------------
    1      C      -0.5191190000    -0.3356590000     0.0060800000
    2      C       0.1258810000     0.2096410000     1.1190800000
    3      C       1.1884810000     1.1073410000     0.8266800000
    4      H      -0.1705190000    -0.0408590000     2.1489800000
    5      C       1.3780810000     1.2673410000    -0.5575200000
    6      S       0.2220810000     0.2910410000    -1.4586200000
    7      C       2.0016810000     1.7943410000     1.8884800000
    8      H       1.6594810000     1.5053410000     2.9010800000
    9      H       1.9268810000     2.8994410000     1.8141800000
   10      H       3.0786810000     1.5359410000     1.8142800000
   11      C      -0.5191190000    -1.7857590000     0.0060800000
   12      H      -0.5191190000    -1.7862590000    -1.0739200000
   13      H       0.4189810000    -2.3208590000     0.0062800000
   14      H      -1.3523190000    -2.4729590000     0.0063800000
   15      H       2.1098810000     1.8856410000    -1.0910200000
 ----------------------------------------------------------------

   10    -629.3707329584      8.87e-07  Convergence criterion met
 Total energy in the final basis set =     -629.3707329584
        RIMP2         total energy =      -630.5581828933 a.u.

                    Orbital Energies (a.u.)
 --------------------------------------------------------------

 Alpha MOs
 -- Occupied --
-91.9762 -11.2758 -11.2529 -11.2478 -11.2444 -11.2282 -11.2099  -8.9770
 -6.6578  -6.6571  -6.6566  -1.1695  -1.0552  -0.9942  -0.9440  -0.8800
 -0.7531  -0.7245  -0.6436  -0.5912  -0.5787  -0.5666  -0.5511  -0.5466
 -0.5158  -0.4657  -0.4626  -0.4404  -0.3325  -0.3065

          Ground-State Mulliken Net Atomic Charges

     Atom                 Charge (a.u.)
  ----------------------------------------
      1 C                    -0.067011
      2 C                    -0.165059
      3 C                     0.010013
      4 H                     0.179316
      5 C                    -0.210757
      6 S                     0.004224
      7 C                    -0.269179
      8 H                     0.102207
      9 H                     0.106863
     10 H                     0.104589
     11 C                    -0.360464
     12 H                     0.114483
     13 H                     0.123862
     14 H                     0.128809
     15 H                     0.198103
  ----------------------------------------
  Sum of atomic charges =     0.000000

                    Cartesian Multipole Moments
 -----------------------------------------------------------------
    Charge (ESU x 10^10)
                -0.0000
    Dipole Moment (Debye)
         X       1.8750      Y       0.2786      Z       1.1090
       Tot       2.1962
    Quadrupole Moments (Debye-Ang)
        XX     -49.1154     XY       4.7483     YY     -48.2863
        XZ       0.1402     YZ       1.1644     ZZ     -48.2280

 Total job time:  17.26s(wall), 763.71s(cpu)
        *  Thank you very much for using Q-Chem.  Have a nice day.  *
