 Q-Chem 5.4, Q-Chem, Inc., Pleasanton, CA (2021)
 Q-Chem 5.4.0 for Intel X86 EM64T Linux

User input:
--------------------------------------------------------------
$molecule
0 1
C	-0.061651	-0.574004	0.001609
C	0.008849	0.267696	1.114609
C	0.125449	1.653696	0.822209
H	-0.023551	-0.119104	2.144509
C	0.146449	1.900996	-0.561991
S	0.019249	0.393196	-1.463091
C	0.214649	2.714596	1.884009
H	0.177049	2.268196	2.896609
H	-0.619651	3.443096	1.809709
H	1.158949	3.293496	1.809809
C	-0.061651	-2.024104	0.001609
H	1.001949	-2.024604	-0.185991
H	0.101049	-2.559204	0.925509
H	-0.206651	-2.711304	-0.818891
H	0.226649	2.855696	-1.095491
$end

$rem
JOBTYPE		SP
EXCHANGE	HF
CORRELATION	pRIMP2
BASIS		cc-pvtz
METHOD		rimp2
AUX_BASIS	rimp2-cc-pvtz
SOLVENT_METHOD	PCM
PURECART	11111
SYMMETRY	false
MEM_TOTAL	110000
SCF_CONVERGENCE = 6
THRESH=10
GUI = 2
$end

$solvent
dielectric 4.90
$end
--------------------------------------------------------------

             Standard Nuclear Orientation (Angstroms)
    I     Atom           X                Y                Z
 ----------------------------------------------------------------
    1      C      -0.0616510000    -0.5740040000     0.0016090000
    2      C       0.0088490000     0.2676960000     1.1146090000
    3      C       0.1254490000     1.6536960000     0.8222090000
    4      H      -0.0235510000    -0.1191040000     2.1445090000
    5      C       0.1464490000     1.9009960000    -0.5619910000
    6      S       0.0192490000     0.3931960000    -1.4630910000
    7      C       0.2146490000     2.7145960000     1.8840090000
    8      H       0.1770490000     2.2681960000     2.8966090000
    9      H      -0.6196510000     3.4430960000     1.8097090000
   10      H       1.1589490000     3.2934960000     1.8098090000
   11      C      -0.0616510000    -2.0241040000     0.0016090000
   12      H       1.0019490000    -2.0246040000    -0.1859910000
   13      H       0.1010490000    -2.5592040000     0.9255090000
   14      H      -0.2066510000    -2.7113040000    -0.8188910000
   15      H       0.2266490000     2.8556960000    -1.0954910000
 ----------------------------------------------------------------

   10    -629.4265043230      6.86e-07  Convergence criterion met
 Total energy in the final basis set =     -629.4265043230
        RIMP2         total energy =      -630.6012417069 a.u.

                    Orbital Energies (a.u.)
 --------------------------------------------------------------

 Alpha MOs
 -- Occupied --
-91.9782 -11.2862 -11.2496 -11.2471 -11.2266 -11.2235 -11.2231  -8.9780
 -6.6591  -6.6585  -6.6579  -1.1602  -1.0548  -0.9970  -0.9418  -0.8836
 -0.7442  -0.7181  -0.6469  -0.5892  -0.5758  -0.5685  -0.5511  -0.5461
 -0.5070  -0.4953  -0.4666  -0.4559  -0.3386  -0.2899

          Ground-State Mulliken Net Atomic Charges

     Atom                 Charge (a.u.)
  ----------------------------------------
      1 C                     0.059248
      2 C                    -0.306994
      3 C                     0.049916
      4 H                     0.177087
      5 C                    -0.278217
      6 S                    -0.003129
      7 C                    -0.273802
      8 H                     0.101460
      9 H                     0.107321
     10 H                     0.107466
     11 C                    -0.379133
     12 H                     0.142449
     13 H                     0.143832
     14 H                     0.159073
     15 H                     0.193423
  ----------------------------------------
  Sum of atomic charges =     0.000000

                    Cartesian Multipole Moments
 -----------------------------------------------------------------
    Charge (ESU x 10^10)
                -0.0000
    Dipole Moment (Debye)
         X       0.8152      Y      -0.7430      Z       1.2967
       Tot       1.7024
    Quadrupole Moments (Debye-Ang)
        XX     -54.4329     XY      -0.7603     YY     -41.6707
        XZ       0.1679     YZ       0.7960     ZZ     -48.6099

 Total job time:  21.39s(wall), 765.50s(cpu)
        *  Thank you very much for using Q-Chem.  Have a nice day.  *
