 Q-Chem 5.4, Q-Chem, Inc., Pleasanton, CA (2021)
 Q-Chem 5.4.0 for Intel X86 EM64T Linux

User input:
--------------------------------------------------------------
$molecule
0 1
C	-0.111118	-0.566489	-0.000785
C	0.032482	0.265811	1.112215
C	0.269382	1.636511	0.819815
H	-0.033518	-0.116589	2.142115
C	0.311882	1.881011	-0.564385
S	0.053782	0.390011	-1.465485
C	0.450782	2.685511	1.881615
H	0.374382	2.244111	2.894215
H	-0.316818	3.484011	1.807315
H	1.441882	3.179911	1.807415
C	-0.111118	-2.016589	-0.000785
H	-1.046418	-2.017089	0.539215
H	-0.580018	-2.551689	-0.813385
H	0.305782	-2.703789	0.720615
H	0.474982	2.825011	-1.097885
$end

$rem
JOBTYPE		SP
EXCHANGE	HF
CORRELATION	pRIMP2
BASIS		cc-pvtz
METHOD		rimp2
AUX_BASIS	rimp2-cc-pvtz
SOLVENT_METHOD	PCM
PURECART	11111
SYMMETRY	false
MEM_TOTAL	110000
SCF_CONVERGENCE = 6
THRESH=10
GUI = 2
$end

$solvent
dielectric 4.90
$end
--------------------------------------------------------------

             Standard Nuclear Orientation (Angstroms)
    I     Atom           X                Y                Z
 ----------------------------------------------------------------
    1      C      -0.1111180000    -0.5664890000    -0.0007850000
    2      C       0.0324820000     0.2658110000     1.1122150000
    3      C       0.2693820000     1.6365110000     0.8198150000
    4      H      -0.0335180000    -0.1165890000     2.1421150000
    5      C       0.3118820000     1.8810110000    -0.5643850000
    6      S       0.0537820000     0.3900110000    -1.4654850000
    7      C       0.4507820000     2.6855110000     1.8816150000
    8      H       0.3743820000     2.2441110000     2.8942150000
    9      H      -0.3168180000     3.4840110000     1.8073150000
   10      H       1.4418820000     3.1799110000     1.8074150000
   11      C      -0.1111180000    -2.0165890000    -0.0007850000
   12      H      -1.0464180000    -2.0170890000     0.5392150000
   13      H      -0.5800180000    -2.5516890000    -0.8133850000
   14      H       0.3057820000    -2.7037890000     0.7206150000
   15      H       0.4749820000     2.8250110000    -1.0978850000
 ----------------------------------------------------------------

   10    -629.4223416745      6.06e-07  Convergence criterion met
 Total energy in the final basis set =     -629.4223416745
        RIMP2         total energy =      -630.5992798565 a.u.

                    Orbital Energies (a.u.)
 --------------------------------------------------------------

 Alpha MOs
 -- Occupied --
-91.9781 -11.2822 -11.2518 -11.2474 -11.2269 -11.2260 -11.2202  -8.9779
 -6.6588  -6.6583  -6.6577  -1.1599  -1.0534  -0.9980  -0.9404  -0.8844
 -0.7428  -0.7198  -0.6483  -0.5873  -0.5736  -0.5657  -0.5587  -0.5435
 -0.5089  -0.4933  -0.4640  -0.4518  -0.3373  -0.2925

          Ground-State Mulliken Net Atomic Charges

     Atom                 Charge (a.u.)
  ----------------------------------------
      1 C                     0.059340
      2 C                    -0.300160
      3 C                     0.047106
      4 H                     0.174840
      5 C                    -0.270340
      6 S                     0.001298
      7 C                    -0.274723
      8 H                     0.101351
      9 H                     0.107160
     10 H                     0.107339
     11 C                    -0.378577
     12 H                     0.137116
     13 H                     0.138946
     14 H                     0.156540
     15 H                     0.192765
  ----------------------------------------
  Sum of atomic charges =     0.000000

                    Cartesian Multipole Moments
 -----------------------------------------------------------------
    Charge (ESU x 10^10)
                -0.0000
    Dipole Moment (Debye)
         X      -0.4269      Y      -0.5214      Z       1.7881
       Tot       1.9109
    Quadrupole Moments (Debye-Ang)
        XX     -53.8449     XY       2.8304     YY     -42.1906
        XZ       0.2978     YZ      -0.4300     ZZ     -48.6117

 Total job time:  16.65s(wall), 743.16s(cpu)
        *  Thank you very much for using Q-Chem.  Have a nice day.  *
