 Q-Chem 5.4, Q-Chem, Inc., Pleasanton, CA (2021)
 Q-Chem 5.4.0 for Intel X86 EM64T Linux

User input:
--------------------------------------------------------------
$molecule
0 1
C	-0.175448	-0.553870	-0.003205
C	0.040152	0.262730	1.109795
C	0.395652	1.607530	0.817395
H	-0.058948	-0.112470	2.139695
C	0.459252	1.847430	-0.566805
S	0.072152	0.384630	-1.467905
C	0.667752	2.636830	1.879195
H	0.553152	2.203730	2.891795
H	-0.027348	3.499130	1.804895
H	1.698252	3.042930	1.804995
C	-0.175448	-2.003970	-0.003205
H	0.364552	-2.004470	0.932095
H	-0.988048	-2.539070	0.465695
H	0.545952	-2.691170	-0.420105
H	0.704052	2.773630	-1.100305
$end

$rem
JOBTYPE		SP
EXCHANGE	HF
CORRELATION	pRIMP2
BASIS		cc-pvtz
METHOD		rimp2
AUX_BASIS	rimp2-cc-pvtz
SOLVENT_METHOD	PCM
PURECART	11111
SYMMETRY	false
MEM_TOTAL	110000
SCF_CONVERGENCE = 6
THRESH=10
GUI = 2
$end

$solvent
dielectric 4.90
$end
--------------------------------------------------------------

             Standard Nuclear Orientation (Angstroms)
    I     Atom           X                Y                Z
 ----------------------------------------------------------------
    1      C      -0.1754480000    -0.5538700000    -0.0032050000
    2      C       0.0401520000     0.2627300000     1.1097950000
    3      C       0.3956520000     1.6075300000     0.8173950000
    4      H      -0.0589480000    -0.1124700000     2.1396950000
    5      C       0.4592520000     1.8474300000    -0.5668050000
    6      S       0.0721520000     0.3846300000    -1.4679050000
    7      C       0.6677520000     2.6368300000     1.8791950000
    8      H       0.5531520000     2.2037300000     2.8917950000
    9      H      -0.0273480000     3.4991300000     1.8048950000
   10      H       1.6982520000     3.0429300000     1.8049950000
   11      C      -0.1754480000    -2.0039700000    -0.0032050000
   12      H       0.3645520000    -2.0044700000     0.9320950000
   13      H      -0.9880480000    -2.5390700000     0.4656950000
   14      H       0.5459520000    -2.6911700000    -0.4201050000
   15      H       0.7040520000     2.7736300000    -1.1003050000
 ----------------------------------------------------------------

   10    -629.4195433947      5.18e-07  Convergence criterion met
 Total energy in the final basis set =     -629.4195433947
        RIMP2         total energy =      -630.5980359636 a.u.

                    Orbital Energies (a.u.)
 --------------------------------------------------------------

 Alpha MOs
 -- Occupied --
-91.9770 -11.2790 -11.2557 -11.2475 -11.2309 -11.2275 -11.2172  -8.9769
 -6.6578  -6.6572  -6.6567  -1.1613  -1.0529  -0.9992  -0.9383  -0.8849
 -0.7423  -0.7227  -0.6470  -0.5905  -0.5763  -0.5692  -0.5576  -0.5418
 -0.5105  -0.4831  -0.4681  -0.4447  -0.3364  -0.2995

          Ground-State Mulliken Net Atomic Charges

     Atom                 Charge (a.u.)
  ----------------------------------------
      1 C                     0.047516
      2 C                    -0.263831
      3 C                     0.030937
      4 H                     0.175132
      5 C                    -0.257303
      6 S                    -0.003526
      7 C                    -0.272785
      8 H                     0.101264
      9 H                     0.107291
     10 H                     0.107012
     11 C                    -0.382417
     12 H                     0.133217
     13 H                     0.131519
     14 H                     0.153024
     15 H                     0.192950
  ----------------------------------------
  Sum of atomic charges =     0.000000

                    Cartesian Multipole Moments
 -----------------------------------------------------------------
    Charge (ESU x 10^10)
                -0.0000
    Dipole Moment (Debye)
         X       0.6866      Y      -0.2375      Z       2.0744
       Tot       2.1979
    Quadrupole Moments (Debye-Ang)
        XX     -53.4508     XY       1.3057     YY     -42.8053
        XZ      -0.2699     YZ      -0.8015     ZZ     -48.7993

 Total job time:  16.04s(wall), 754.14s(cpu)
        *  Thank you very much for using Q-Chem.  Have a nice day.  *
