 Q-Chem 5.4, Q-Chem, Inc., Pleasanton, CA (2021)
 Q-Chem 5.4.0 for Intel X86 EM64T Linux

User input:
--------------------------------------------------------------
$molecule
0 1
C	-0.582858	-0.238938	-0.001525
C	0.147042	0.186062	1.111475
C	1.349342	0.885562	0.819075
H	-0.188358	-0.009138	2.141375
C	1.563942	1.010262	-0.565125
S	0.255842	0.249562	-1.466225
C	2.269542	1.420962	1.880875
H	1.882242	1.195762	2.893475
H	2.387742	2.522262	1.806575
H	3.285342	0.979462	1.806675
C	-0.582858	-1.689038	-0.001525
H	-1.410158	-1.689538	0.692675
H	-1.185758	-2.224138	-0.720325
H	-0.047058	-2.376238	0.636575
H	2.391942	1.492062	-1.098625
$end

$rem
JOBTYPE		SP
EXCHANGE	HF
CORRELATION	pRIMP2
BASIS		cc-pvtz
METHOD		rimp2
AUX_BASIS	rimp2-cc-pvtz
SOLVENT_METHOD	PCM
PURECART	11111
SYMMETRY	false
MEM_TOTAL	110000
SCF_CONVERGENCE = 6
THRESH=10
GUI = 2
$end

$solvent
dielectric 4.90
$end
--------------------------------------------------------------

             Standard Nuclear Orientation (Angstroms)
    I     Atom           X                Y                Z
 ----------------------------------------------------------------
    1      C      -0.5828580000    -0.2389380000    -0.0015250000
    2      C       0.1470420000     0.1860620000     1.1114750000
    3      C       1.3493420000     0.8855620000     0.8190750000
    4      H      -0.1883580000    -0.0091380000     2.1413750000
    5      C       1.5639420000     1.0102620000    -0.5651250000
    6      S       0.2558420000     0.2495620000    -1.4662250000
    7      C       2.2695420000     1.4209620000     1.8808750000
    8      H       1.8822420000     1.1957620000     2.8934750000
    9      H       2.3877420000     2.5222620000     1.8065750000
   10      H       3.2853420000     0.9794620000     1.8066750000
   11      C      -0.5828580000    -1.6890380000    -0.0015250000
   12      H      -1.4101580000    -1.6895380000     0.6926750000
   13      H      -1.1857580000    -2.2241380000    -0.7203250000
   14      H      -0.0470580000    -2.3762380000     0.6365750000
   15      H       2.3919420000     1.4920620000    -1.0986250000
 ----------------------------------------------------------------

   11    -629.3494445494      4.88e-07  Convergence criterion met
 Total energy in the final basis set =     -629.3494445494
        RIMP2         total energy =      -630.5405273442 a.u.

                    Orbital Energies (a.u.)
 --------------------------------------------------------------

 Alpha MOs
 -- Occupied --
-91.9708 -11.2829 -11.2548 -11.2499 -11.2418 -11.2295 -11.2079  -8.9720
 -6.6528  -6.6518  -6.6517  -1.1721  -1.0540  -0.9992  -0.9362  -0.8841
 -0.7489  -0.7316  -0.6439  -0.5862  -0.5823  -0.5660  -0.5530  -0.5421
 -0.5199  -0.4859  -0.4594  -0.4156  -0.3359  -0.2960

          Ground-State Mulliken Net Atomic Charges

     Atom                 Charge (a.u.)
  ----------------------------------------
      1 C                    -0.111654
      2 C                    -0.119110
      3 C                    -0.023819
      4 H                     0.184976
      5 C                    -0.177631
      6 S                     0.011844
      7 C                    -0.267879
      8 H                     0.102043
      9 H                     0.106875
     10 H                     0.105137
     11 C                    -0.389117
     12 H                     0.115486
     13 H                     0.123755
     14 H                     0.142339
     15 H                     0.196756
  ----------------------------------------
  Sum of atomic charges =     0.000000

                    Cartesian Multipole Moments
 -----------------------------------------------------------------
    Charge (ESU x 10^10)
                -0.0000
    Dipole Moment (Debye)
         X       2.0137      Y       0.1886      Z       2.1862
       Tot       2.9783
    Quadrupole Moments (Debye-Ang)
        XX     -47.5762     XY       5.1268     YY     -50.0126
        XZ      -0.0497     YZ      -0.5474     ZZ     -47.8734

 Total job time:  20.49s(wall), 854.77s(cpu)
        *  Thank you very much for using Q-Chem.  Have a nice day.  *
