 Q-Chem 5.4, Q-Chem, Inc., Pleasanton, CA (2021)
 Q-Chem 5.4.0 for Intel X86 EM64T Linux

User input:
--------------------------------------------------------------
$molecule
0 1
C	-0.513954	-0.335659	0.002537
C	0.131046	0.209641	1.115537
C	1.193646	1.107341	0.823137
H	-0.165354	-0.040859	2.145437
C	1.383246	1.267341	-0.561063
S	0.227246	0.291041	-1.462163
C	2.006846	1.794341	1.884937
H	1.664646	1.505341	2.897537
H	1.932046	2.899441	1.810637
H	3.083846	1.535941	1.810737
C	-0.513954	-1.785759	0.002537
H	-1.577554	-1.786259	-0.184963
H	-0.350854	-2.320859	-0.921363
H	-0.658354	-2.472959	0.823137
H	2.115046	1.885641	-1.094563
$end

$rem
JOBTYPE		SP
EXCHANGE	HF
CORRELATION	pRIMP2
BASIS		cc-pvtz
METHOD		rimp2
AUX_BASIS	rimp2-cc-pvtz
SOLVENT_METHOD	PCM
PURECART	11111
SYMMETRY	false
MEM_TOTAL	110000
SCF_CONVERGENCE = 6
THRESH=10
GUI = 2
$end

$solvent
dielectric 4.90
$end
--------------------------------------------------------------

             Standard Nuclear Orientation (Angstroms)
    I     Atom           X                Y                Z
 ----------------------------------------------------------------
    1      C      -0.5139540000    -0.3356590000     0.0025370000
    2      C       0.1310460000     0.2096410000     1.1155370000
    3      C       1.1936460000     1.1073410000     0.8231370000
    4      H      -0.1653540000    -0.0408590000     2.1454370000
    5      C       1.3832460000     1.2673410000    -0.5610630000
    6      S       0.2272460000     0.2910410000    -1.4621630000
    7      C       2.0068460000     1.7943410000     1.8849370000
    8      H       1.6646460000     1.5053410000     2.8975370000
    9      H       1.9320460000     2.8994410000     1.8106370000
   10      H       3.0838460000     1.5359410000     1.8107370000
   11      C      -0.5139540000    -1.7857590000     0.0025370000
   12      H      -1.5775540000    -1.7862590000    -0.1849630000
   13      H      -0.3508540000    -2.3208590000    -0.9213630000
   14      H      -0.6583540000    -2.4729590000     0.8231370000
   15      H       2.1150460000     1.8856410000    -1.0945630000
 ----------------------------------------------------------------

   11    -629.3621335902      3.93e-07  Convergence criterion met
 Total energy in the final basis set =     -629.3621335902
        RIMP2         total energy =      -630.5511390050 a.u.

                    Orbital Energies (a.u.)
 --------------------------------------------------------------

 Alpha MOs
 -- Occupied --
-91.9747 -11.2701 -11.2560 -11.2478 -11.2409 -11.2277 -11.2083  -8.9752
 -6.6561  -6.6553  -6.6549  -1.1663  -1.0526  -0.9953  -0.9407  -0.8824
 -0.7481  -0.7246  -0.6422  -0.5861  -0.5748  -0.5668  -0.5526  -0.5426
 -0.5152  -0.4917  -0.4574  -0.4341  -0.3358  -0.2856

          Ground-State Mulliken Net Atomic Charges

     Atom                 Charge (a.u.)
  ----------------------------------------
      1 C                    -0.061523
      2 C                    -0.183760
      3 C                     0.015241
      4 H                     0.181516
      5 C                    -0.220475
      6 S                     0.006706
      7 C                    -0.269688
      8 H                     0.101592
      9 H                     0.106866
     10 H                     0.104882
     11 C                    -0.389355
     12 H                     0.125011
     13 H                     0.137664
     14 H                     0.149379
     15 H                     0.195946
  ----------------------------------------
  Sum of atomic charges =     0.000000

                    Cartesian Multipole Moments
 -----------------------------------------------------------------
    Charge (ESU x 10^10)
                -0.0000
    Dipole Moment (Debye)
         X       1.0630      Y      -0.0342      Z       1.5672
       Tot       1.8941
    Quadrupole Moments (Debye-Ang)
        XX     -49.1797     XY       5.7413     YY     -48.1583
        XZ      -0.1936     YZ       0.1850     ZZ     -47.8810

 Total job time:  16.94s(wall), 796.53s(cpu)
        *  Thank you very much for using Q-Chem.  Have a nice day.  *
