 Q-Chem 5.4, Q-Chem, Inc., Pleasanton, CA (2021)
 Q-Chem 5.4.0 for Intel X86 EM64T Linux

User input:
--------------------------------------------------------------
$molecule
0 1
C	-0.011381	-0.577198	0.000759
C	-0.014481	0.267402	1.113759
C	-0.019181	1.658402	0.821359
H	-0.013081	-0.120698	2.143659
C	-0.019781	1.906502	-0.562841
S	-0.015081	0.393402	-1.463941
C	-0.022781	2.723002	1.883159
H	-0.021281	2.275002	2.895759
H	-0.917281	3.376002	1.808859
H	0.867519	3.381902	1.808959
C	0.115019	-2.021798	0.000759
H	1.190919	-1.928198	0.000759
H	0.161419	-2.554898	0.938859
H	0.174619	-2.706398	-0.832441
H	-0.023081	2.864602	-1.096341
$end

$rem
JOBTYPE		SP
EXCHANGE	HF
CORRELATION	pRIMP2
BASIS		cc-pvtz
METHOD		rimp2
AUX_BASIS	rimp2-cc-pvtz
SOLVENT_METHOD	PCM
PURECART	11111
SYMMETRY	false
MEM_TOTAL	110000
SCF_CONVERGENCE = 6
THRESH=10
GUI = 2
$end

$solvent
dielectric 4.90
$end
--------------------------------------------------------------

             Standard Nuclear Orientation (Angstroms)
    I     Atom           X                Y                Z
 ----------------------------------------------------------------
    1      C      -0.0113810000    -0.5771980000     0.0007590000
    2      C      -0.0144810000     0.2674020000     1.1137590000
    3      C      -0.0191810000     1.6584020000     0.8213590000
    4      H      -0.0130810000    -0.1206980000     2.1436590000
    5      C      -0.0197810000     1.9065020000    -0.5628410000
    6      S      -0.0150810000     0.3934020000    -1.4639410000
    7      C      -0.0227810000     2.7230020000     1.8831590000
    8      H      -0.0212810000     2.2750020000     2.8957590000
    9      H      -0.9172810000     3.3760020000     1.8088590000
   10      H       0.8675190000     3.3819020000     1.8089590000
   11      C       0.1150190000    -2.0217980000     0.0007590000
   12      H       1.1909190000    -1.9281980000     0.0007590000
   13      H       0.1614190000    -2.5548980000     0.9388590000
   14      H       0.1746190000    -2.7063980000    -0.8324410000
   15      H      -0.0230810000     2.8646020000    -1.0963410000
 ----------------------------------------------------------------

   10    -629.4264068980      6.88e-07  Convergence criterion met
 Total energy in the final basis set =     -629.4264068980
        RIMP2         total energy =      -630.6012310229 a.u.

                    Orbital Energies (a.u.)
 --------------------------------------------------------------

 Alpha MOs
 -- Occupied --
-91.9784 -11.2868 -11.2489 -11.2472 -11.2266 -11.2237 -11.2226  -8.9782
 -6.6592  -6.6587  -6.6580  -1.1602  -1.0548  -0.9974  -0.9411  -0.8838
 -0.7437  -0.7182  -0.6470  -0.5891  -0.5752  -0.5692  -0.5524  -0.5454
 -0.5071  -0.4951  -0.4667  -0.4562  -0.3383  -0.2893

          Ground-State Mulliken Net Atomic Charges

     Atom                 Charge (a.u.)
  ----------------------------------------
      1 C                     0.061743
      2 C                    -0.308691
      3 C                     0.049728
      4 H                     0.175480
      5 C                    -0.280445
      6 S                    -0.000600
      7 C                    -0.274083
      8 H                     0.101469
      9 H                     0.107339
     10 H                     0.107463
     11 C                    -0.382326
     12 H                     0.145218
     13 H                     0.144237
     14 H                     0.160372
     15 H                     0.193096
  ----------------------------------------
  Sum of atomic charges =     0.000000

                    Cartesian Multipole Moments
 -----------------------------------------------------------------
    Charge (ESU x 10^10)
                -0.0000
    Dipole Moment (Debye)
         X       0.8953      Y      -0.7131      Z       1.4102
       Tot       1.8162
    Quadrupole Moments (Debye-Ang)
        XX     -54.2094     XY      -1.9097     YY     -41.9196
        XZ       0.0140     YZ       0.5511     ZZ     -48.5956

 Total job time:  17.98s(wall), 793.54s(cpu)
        *  Thank you very much for using Q-Chem.  Have a nice day.  *
