 Q-Chem 5.4, Q-Chem, Inc., Pleasanton, CA (2021)
 Q-Chem 5.4.0 for Intel X86 EM64T Linux

User input:
--------------------------------------------------------------
$molecule
0 1
C	-0.234438	-0.536244	0.003247
C	0.051562	0.258456	1.116247
C	0.522862	1.567156	0.823847
H	-0.079938	-0.106644	2.146147
C	0.607162	1.800556	-0.560353
S	0.094062	0.377056	-1.461453
C	0.883662	2.568756	1.885647
H	0.731762	2.147356	2.898247
H	0.266362	3.488456	1.811347
H	1.945562	2.883556	1.811447
C	-0.234438	-1.986344	0.003247
H	0.700862	-1.986844	-0.536753
H	0.234462	-2.521444	0.815847
H	-0.651338	-2.673544	-0.718153
H	0.931662	2.701956	-1.093853
$end

$rem
JOBTYPE		SP
EXCHANGE	HF
CORRELATION	pRIMP2
BASIS		cc-pvtz
METHOD		rimp2
AUX_BASIS	rimp2-cc-pvtz
SOLVENT_METHOD	PCM
PURECART	11111
SYMMETRY	false
MEM_TOTAL	110000
SCF_CONVERGENCE = 6
THRESH=10
GUI = 2
$end

$solvent
dielectric 4.90
$end
--------------------------------------------------------------

             Standard Nuclear Orientation (Angstroms)
    I     Atom           X                Y                Z
 ----------------------------------------------------------------
    1      C      -0.2344380000    -0.5362440000     0.0032470000
    2      C       0.0515620000     0.2584560000     1.1162470000
    3      C       0.5228620000     1.5671560000     0.8238470000
    4      H      -0.0799380000    -0.1066440000     2.1461470000
    5      C       0.6071620000     1.8005560000    -0.5603530000
    6      S       0.0940620000     0.3770560000    -1.4614530000
    7      C       0.8836620000     2.5687560000     1.8856470000
    8      H       0.7317620000     2.1473560000     2.8982470000
    9      H       0.2663620000     3.4884560000     1.8113470000
   10      H       1.9455620000     2.8835560000     1.8114470000
   11      C      -0.2344380000    -1.9863440000     0.0032470000
   12      H       0.7008620000    -1.9868440000    -0.5367530000
   13      H       0.2344620000    -2.5214440000     0.8158470000
   14      H      -0.6513380000    -2.6735440000    -0.7181530000
   15      H       0.9316620000     2.7019560000    -1.0938530000
 ----------------------------------------------------------------

   10    -629.4194890882      6.64e-07  Convergence criterion met
 Total energy in the final basis set =     -629.4194890882
        RIMP2         total energy =      -630.5961249018 a.u.

                    Orbital Energies (a.u.)
 --------------------------------------------------------------

 Alpha MOs
 -- Occupied --
-91.9766 -11.2817 -11.2542 -11.2473 -11.2271 -11.2270 -11.2211  -8.9769
 -6.6578  -6.6573  -6.6567  -1.1620  -1.0548  -0.9958  -0.9426  -0.8827
 -0.7460  -0.7190  -0.6463  -0.5896  -0.5780  -0.5662  -0.5505  -0.5467
 -0.5074  -0.4941  -0.4644  -0.4530  -0.3394  -0.2928

          Ground-State Mulliken Net Atomic Charges

     Atom                 Charge (a.u.)
  ----------------------------------------
      1 C                     0.055940
      2 C                    -0.316310
      3 C                     0.059146
      4 H                     0.178520
      5 C                    -0.268607
      6 S                    -0.004619
      7 C                    -0.271108
      8 H                     0.101601
      9 H                     0.107595
     10 H                     0.107123
     11 C                    -0.372278
     12 H                     0.138035
     13 H                     0.140869
     14 H                     0.150738
     15 H                     0.193354
  ----------------------------------------
  Sum of atomic charges =     0.000000

                    Cartesian Multipole Moments
 -----------------------------------------------------------------
    Charge (ESU x 10^10)
                -0.0000
    Dipole Moment (Debye)
         X       1.0544      Y      -0.4928      Z       1.1607
       Tot       1.6437
    Quadrupole Moments (Debye-Ang)
        XX     -53.5746     XY       1.6377     YY     -42.9264
        XZ       0.4377     YZ       1.1492     ZZ     -48.6324

 Total job time:  17.39s(wall), 767.38s(cpu)
        *  Thank you very much for using Q-Chem.  Have a nice day.  *
