 Q-Chem 5.4, Q-Chem, Inc., Pleasanton, CA (2021)
 Q-Chem 5.4.0 for Intel X86 EM64T Linux

User input:
--------------------------------------------------------------
$molecule
0 1
C	-0.522666	-0.335659	0.003987
C	0.122334	0.209641	1.116987
C	1.184934	1.107341	0.824587
H	-0.174066	-0.040859	2.146887
C	1.374534	1.267341	-0.559613
S	0.218534	0.291041	-1.460713
C	1.998134	1.794341	1.886387
H	1.655934	1.505341	2.898987
H	1.923334	2.899441	1.812087
H	3.075134	1.535941	1.812187
C	-0.522666	-1.785759	0.003987
H	0.304634	-1.786259	-0.690213
H	0.080234	-2.320859	0.722787
H	-1.058466	-2.472959	-0.634113
H	2.106334	1.885641	-1.093113
$end

$rem
JOBTYPE		SP
EXCHANGE	HF
CORRELATION	pRIMP2
BASIS		cc-pvtz
METHOD		rimp2
AUX_BASIS	rimp2-cc-pvtz
SOLVENT_METHOD	PCM
PURECART	11111
SYMMETRY	false
MEM_TOTAL	110000
SCF_CONVERGENCE = 6
THRESH=10
GUI = 2
$end

$solvent
dielectric 4.90
$end
--------------------------------------------------------------

             Standard Nuclear Orientation (Angstroms)
    I     Atom           X                Y                Z
 ----------------------------------------------------------------
    1      C      -0.5226660000    -0.3356590000     0.0039870000
    2      C       0.1223340000     0.2096410000     1.1169870000
    3      C       1.1849340000     1.1073410000     0.8245870000
    4      H      -0.1740660000    -0.0408590000     2.1468870000
    5      C       1.3745340000     1.2673410000    -0.5596130000
    6      S       0.2185340000     0.2910410000    -1.4607130000
    7      C       1.9981340000     1.7943410000     1.8863870000
    8      H       1.6559340000     1.5053410000     2.8989870000
    9      H       1.9233340000     2.8994410000     1.8120870000
   10      H       3.0751340000     1.5359410000     1.8121870000
   11      C      -0.5226660000    -1.7857590000     0.0039870000
   12      H       0.3046340000    -1.7862590000    -0.6902130000
   13      H       0.0802340000    -2.3208590000     0.7227870000
   14      H      -1.0584660000    -2.4729590000    -0.6341130000
   15      H       2.1063340000     1.8856410000    -1.0931130000
 ----------------------------------------------------------------

   10    -629.3708496967      5.06e-07  Convergence criterion met
 Total energy in the final basis set =     -629.3708496967
        RIMP2         total energy =      -630.5576925343 a.u.

                    Orbital Energies (a.u.)
 --------------------------------------------------------------

 Alpha MOs
 -- Occupied --
-91.9711 -11.2712 -11.2629 -11.2488 -11.2426 -11.2286 -11.2119  -8.9726
 -6.6534  -6.6527  -6.6522  -1.1713  -1.0567  -0.9948  -0.9416  -0.8801
 -0.7517  -0.7251  -0.6434  -0.5887  -0.5829  -0.5652  -0.5515  -0.5463
 -0.5126  -0.4883  -0.4606  -0.4382  -0.3383  -0.2930

          Ground-State Mulliken Net Atomic Charges

     Atom                 Charge (a.u.)
  ----------------------------------------
      1 C                    -0.027168
      2 C                    -0.208555
      3 C                     0.011869
      4 H                     0.182027
      5 C                    -0.217805
      6 S                    -0.005890
      7 C                    -0.268508
      8 H                     0.101902
      9 H                     0.107929
     10 H                     0.105937
     11 C                    -0.375340
     12 H                     0.134745
     13 H                     0.132622
     14 H                     0.130503
     15 H                     0.195731
  ----------------------------------------
  Sum of atomic charges =     0.000000

                    Cartesian Multipole Moments
 -----------------------------------------------------------------
    Charge (ESU x 10^10)
                -0.0000
    Dipole Moment (Debye)
         X       2.1757      Y      -0.0757      Z       1.3578
       Tot       2.5658
    Quadrupole Moments (Debye-Ang)
        XX     -49.8942     XY       3.7409     YY     -48.2215
        XZ       0.3813     YZ       1.0930     ZZ     -48.1843

 Total job time:  16.42s(wall), 761.87s(cpu)
        *  Thank you very much for using Q-Chem.  Have a nice day.  *
