 Q-Chem 5.4, Q-Chem, Inc., Pleasanton, CA (2021)
 Q-Chem 5.4.0 for Intel X86 EM64T Linux

User input:
--------------------------------------------------------------
$molecule
0 1
C	-0.119949	-0.566489	-0.000871
C	0.023651	0.265811	1.112129
C	0.260551	1.636511	0.819729
H	-0.042349	-0.116589	2.142029
C	0.303051	1.881011	-0.564471
S	0.044951	0.390011	-1.465571
C	0.441951	2.685511	1.881529
H	0.365551	2.244111	2.894129
H	-0.325649	3.484011	1.807229
H	1.433051	3.179911	1.807329
C	-0.119949	-2.016589	-0.000871
H	0.894951	-2.017089	0.368529
H	-0.441049	-2.551689	0.880629
H	0.164751	-2.703789	-0.783871
H	0.466151	2.825011	-1.097971
$end

$rem
JOBTYPE		SP
EXCHANGE	HF
CORRELATION	pRIMP2
BASIS		cc-pvtz
METHOD		rimp2
AUX_BASIS	rimp2-cc-pvtz
SOLVENT_METHOD	PCM
PURECART	11111
SYMMETRY	false
MEM_TOTAL	110000
SCF_CONVERGENCE = 6
THRESH=10
GUI = 2
$end

$solvent
dielectric 4.90
$end
--------------------------------------------------------------

             Standard Nuclear Orientation (Angstroms)
    I     Atom           X                Y                Z
 ----------------------------------------------------------------
    1      C      -0.1199490000    -0.5664890000    -0.0008710000
    2      C       0.0236510000     0.2658110000     1.1121290000
    3      C       0.2605510000     1.6365110000     0.8197290000
    4      H      -0.0423490000    -0.1165890000     2.1420290000
    5      C       0.3030510000     1.8810110000    -0.5644710000
    6      S       0.0449510000     0.3900110000    -1.4655710000
    7      C       0.4419510000     2.6855110000     1.8815290000
    8      H       0.3655510000     2.2441110000     2.8941290000
    9      H      -0.3256490000     3.4840110000     1.8072290000
   10      H       1.4330510000     3.1799110000     1.8073290000
   11      C      -0.1199490000    -2.0165890000    -0.0008710000
   12      H       0.8949510000    -2.0170890000     0.3685290000
   13      H      -0.4410490000    -2.5516890000     0.8806290000
   14      H       0.1647510000    -2.7037890000    -0.7838710000
   15      H       0.4661510000     2.8250110000    -1.0979710000
 ----------------------------------------------------------------

   10    -629.4241720387      6.61e-07  Convergence criterion met
 Total energy in the final basis set =     -629.4241720387
        RIMP2         total energy =      -630.6000616799 a.u.

                    Orbital Energies (a.u.)
 --------------------------------------------------------------

 Alpha MOs
 -- Occupied --
-91.9787 -11.2860 -11.2492 -11.2475 -11.2268 -11.2232 -11.2225  -8.9784
 -6.6594  -6.6589  -6.6583  -1.1605  -1.0545  -0.9980  -0.9397  -0.8841
 -0.7429  -0.7190  -0.6470  -0.5895  -0.5741  -0.5703  -0.5551  -0.5441
 -0.5078  -0.4916  -0.4671  -0.4552  -0.3375  -0.2901

          Ground-State Mulliken Net Atomic Charges

     Atom                 Charge (a.u.)
  ----------------------------------------
      1 C                     0.059478
      2 C                    -0.296401
      3 C                     0.045609
      4 H                     0.174113
      5 C                    -0.279827
      6 S                     0.001235
      7 C                    -0.273556
      8 H                     0.101353
      9 H                     0.107330
     10 H                     0.107267
     11 C                    -0.386938
     12 H                     0.146954
     13 H                     0.141321
     14 H                     0.159261
     15 H                     0.192800
  ----------------------------------------
  Sum of atomic charges =     0.000000

                    Cartesian Multipole Moments
 -----------------------------------------------------------------
    Charge (ESU x 10^10)
                -0.0000
    Dipole Moment (Debye)
         X       0.8698      Y      -0.7328      Z       1.6601
       Tot       2.0123
    Quadrupole Moments (Debye-Ang)
        XX     -54.2374     XY      -0.0059     YY     -42.0614
        XZ      -0.1078     YZ       0.0115     ZZ     -48.6071

 Total job time:  43.59s(wall), 749.42s(cpu)
        *  Thank you very much for using Q-Chem.  Have a nice day.  *
