 Q-Chem 5.4, Q-Chem, Inc., Pleasanton, CA (2021)
 Q-Chem 5.4.0 for Intel X86 EM64T Linux

User input:
--------------------------------------------------------------
$molecule
0 1
C	-0.173053	-0.553870	0.006088
C	0.042547	0.262730	1.119088
C	0.398047	1.607530	0.826688
H	-0.056553	-0.112470	2.148988
C	0.461647	1.847430	-0.557512
S	0.074547	0.384630	-1.458612
C	0.670147	2.636830	1.888488
H	0.555547	2.203730	2.901088
H	-0.024953	3.499130	1.814188
H	1.700647	3.042930	1.814288
C	-0.173053	-2.003970	0.006088
H	-0.360653	-2.004470	-1.057512
H	0.750847	-2.539070	-0.156612
H	-0.993553	-2.691170	0.151088
H	0.706447	2.773630	-1.091012
$end

$rem
JOBTYPE		SP
EXCHANGE	HF
CORRELATION	pRIMP2
BASIS		cc-pvtz
METHOD		rimp2
AUX_BASIS	rimp2-cc-pvtz
SOLVENT_METHOD	PCM
PURECART	11111
SYMMETRY	false
MEM_TOTAL	110000
SCF_CONVERGENCE = 6
THRESH=10
GUI = 2
$end

$solvent
dielectric 4.90
$end
--------------------------------------------------------------

             Standard Nuclear Orientation (Angstroms)
    I     Atom           X                Y                Z
 ----------------------------------------------------------------
    1      C      -0.1730530000    -0.5538700000     0.0060880000
    2      C       0.0425470000     0.2627300000     1.1190880000
    3      C       0.3980470000     1.6075300000     0.8266880000
    4      H      -0.0565530000    -0.1124700000     2.1489880000
    5      C       0.4616470000     1.8474300000    -0.5575120000
    6      S       0.0745470000     0.3846300000    -1.4586120000
    7      C       0.6701470000     2.6368300000     1.8884880000
    8      H       0.5555470000     2.2037300000     2.9010880000
    9      H      -0.0249530000     3.4991300000     1.8141880000
   10      H       1.7006470000     3.0429300000     1.8142880000
   11      C      -0.1730530000    -2.0039700000     0.0060880000
   12      H      -0.3606530000    -2.0044700000    -1.0575120000
   13      H       0.7508470000    -2.5390700000    -0.1566120000
   14      H      -0.9935530000    -2.6911700000     0.1510880000
   15      H       0.7064470000     2.7736300000    -1.0910120000
 ----------------------------------------------------------------

   10    -629.4179029803      5.26e-07  Convergence criterion met
 Total energy in the final basis set =     -629.4179029803
        RIMP2         total energy =      -630.5963007965 a.u.

                    Orbital Energies (a.u.)
 --------------------------------------------------------------

 Alpha MOs
 -- Occupied --
-91.9810 -11.2736 -11.2595 -11.2473 -11.2295 -11.2271 -11.2164  -8.9808
 -6.6617  -6.6612  -6.6606  -1.1612  -1.0534  -0.9950  -0.9455  -0.8827
 -0.7479  -0.7186  -0.6467  -0.5910  -0.5752  -0.5659  -0.5535  -0.5463
 -0.5094  -0.4848  -0.4649  -0.4446  -0.3379  -0.3045

          Ground-State Mulliken Net Atomic Charges

     Atom                 Charge (a.u.)
  ----------------------------------------
      1 C                     0.035434
      2 C                    -0.257967
      3 C                     0.039748
      4 H                     0.178759
      5 C                    -0.256205
      6 S                    -0.001591
      7 C                    -0.272605
      8 H                     0.102037
      9 H                     0.106838
     10 H                     0.106726
     11 C                    -0.363479
     12 H                     0.111021
     13 H                     0.126412
     14 H                     0.149075
     15 H                     0.195798
  ----------------------------------------
  Sum of atomic charges =     0.000000

                    Cartesian Multipole Moments
 -----------------------------------------------------------------
    Charge (ESU x 10^10)
                -0.0000
    Dipole Moment (Debye)
         X       0.3108      Y       0.0546      Z       0.8940
       Tot       0.9480
    Quadrupole Moments (Debye-Ang)
        XX     -53.1368     XY       2.5668     YY     -42.7544
        XZ       0.0451     YZ       1.4759     ZZ     -48.8274

 Total job time:  15.87s(wall), 740.63s(cpu)
        *  Thank you very much for using Q-Chem.  Have a nice day.  *
