 Q-Chem 5.4, Q-Chem, Inc., Pleasanton, CA (2021)
 Q-Chem 5.4.0 for Intel X86 EM64T Linux

User input:
--------------------------------------------------------------
$molecule
0 1
C	0.004500	-0.576386	-0.003165
C	0.001400	0.268214	1.109835
C	-0.003300	1.659214	0.817435
H	0.002800	-0.119886	2.139735
C	-0.003900	1.907314	-0.566765
S	0.000800	0.394214	-1.467865
C	-0.006900	2.723814	1.879235
H	-0.005400	2.275814	2.891835
H	-0.901400	3.376814	1.804935
H	0.883400	3.382714	1.805035
C	0.004500	-2.026486	-0.003165
H	-0.364900	-2.026986	1.011735
H	-0.877000	-2.561586	-0.324265
H	0.787500	-2.713686	0.281535
H	-0.007200	2.865414	-1.100265
$end

$rem
JOBTYPE		SP
EXCHANGE	HF
CORRELATION	pRIMP2
BASIS		cc-pvtz
METHOD		rimp2
AUX_BASIS	rimp2-cc-pvtz
SOLVENT_METHOD	PCM
PURECART	11111
SYMMETRY	false
MEM_TOTAL	110000
SCF_CONVERGENCE = 6
THRESH=10
GUI = 2
$end

$solvent
dielectric 4.90
$end
--------------------------------------------------------------

             Standard Nuclear Orientation (Angstroms)
    I     Atom           X                Y                Z
 ----------------------------------------------------------------
    1      C       0.0045000000    -0.5763860000    -0.0031650000
    2      C       0.0014000000     0.2682140000     1.1098350000
    3      C      -0.0033000000     1.6592140000     0.8174350000
    4      H       0.0028000000    -0.1198860000     2.1397350000
    5      C      -0.0039000000     1.9073140000    -0.5667650000
    6      S       0.0008000000     0.3942140000    -1.4678650000
    7      C      -0.0069000000     2.7238140000     1.8792350000
    8      H      -0.0054000000     2.2758140000     2.8918350000
    9      H      -0.9014000000     3.3768140000     1.8049350000
   10      H       0.8834000000     3.3827140000     1.8050350000
   11      C       0.0045000000    -2.0264860000    -0.0031650000
   12      H      -0.3649000000    -2.0269860000     1.0117350000
   13      H      -0.8770000000    -2.5615860000    -0.3242650000
   14      H       0.7875000000    -2.7136860000     0.2815350000
   15      H      -0.0072000000     2.8654140000    -1.1002650000
 ----------------------------------------------------------------

   10    -629.4260485461      4.97e-07  Convergence criterion met
 Total energy in the final basis set =     -629.4260485461
        RIMP2         total energy =      -630.6034458071 a.u.

                    Orbital Energies (a.u.)
 --------------------------------------------------------------

 Alpha MOs
 -- Occupied --
-91.9761 -11.2786 -11.2569 -11.2472 -11.2325 -11.2275 -11.2177  -8.9761
 -6.6570  -6.6565  -6.6559  -1.1607  -1.0526  -0.9994  -0.9391  -0.8853
 -0.7424  -0.7231  -0.6481  -0.5904  -0.5770  -0.5659  -0.5596  -0.5414
 -0.5097  -0.4870  -0.4676  -0.4411  -0.3375  -0.3031

          Ground-State Mulliken Net Atomic Charges

     Atom                 Charge (a.u.)
  ----------------------------------------
      1 C                     0.059808
      2 C                    -0.265175
      3 C                     0.029149
      4 H                     0.176658
      5 C                    -0.252692
      6 S                    -0.007772
      7 C                    -0.273945
      8 H                     0.101316
      9 H                     0.107231
     10 H                     0.107309
     11 C                    -0.373597
     12 H                     0.122927
     13 H                     0.134414
     14 H                     0.140644
     15 H                     0.193725
  ----------------------------------------
  Sum of atomic charges =     0.000000

                    Cartesian Multipole Moments
 -----------------------------------------------------------------
    Charge (ESU x 10^10)
                -0.0000
    Dipole Moment (Debye)
         X      -0.2419      Y      -0.1325      Z       2.1158
       Tot       2.1337
    Quadrupole Moments (Debye-Ang)
        XX     -53.7725     XY       0.4350     YY     -42.1027
        XZ       0.2156     YZ      -0.9828     ZZ     -48.9248

 Total job time:  15.74s(wall), 759.37s(cpu)
        *  Thank you very much for using Q-Chem.  Have a nice day.  *
