 Q-Chem 5.4, Q-Chem, Inc., Pleasanton, CA (2021)
 Q-Chem 5.4.0 for Intel X86 EM64T Linux

User input:
--------------------------------------------------------------
$molecule
0 1
C	-0.283601	-0.513776	0.005949
C	0.070599	0.253024	1.118949
C	0.654199	1.515624	0.826549
H	-0.092301	-0.099276	2.148849
C	0.758399	1.740824	-0.557651
S	0.123299	0.367424	-1.458751
C	1.100799	2.482024	1.888349
H	0.912799	2.075424	2.900949
H	0.565999	3.451924	1.814049
H	2.186199	2.703024	1.814149
C	-0.283601	-1.963876	0.005949
H	-0.653001	-1.964376	-1.008951
H	0.597999	-2.498976	-0.314751
H	-1.066401	-2.651076	0.291249
H	1.160299	2.610424	-1.091151
$end

$rem
JOBTYPE		SP
EXCHANGE	HF
CORRELATION	pRIMP2
BASIS		cc-pvtz
METHOD		rimp2
AUX_BASIS	rimp2-cc-pvtz
SOLVENT_METHOD	PCM
PURECART	11111
SYMMETRY	false
MEM_TOTAL	110000
SCF_CONVERGENCE = 6
THRESH=10
GUI = 2
$end

$solvent
dielectric 4.90
$end
--------------------------------------------------------------

             Standard Nuclear Orientation (Angstroms)
    I     Atom           X                Y                Z
 ----------------------------------------------------------------
    1      C      -0.2836010000    -0.5137760000     0.0059490000
    2      C       0.0705990000     0.2530240000     1.1189490000
    3      C       0.6541990000     1.5156240000     0.8265490000
    4      H      -0.0923010000    -0.0992760000     2.1488490000
    5      C       0.7583990000     1.7408240000    -0.5576510000
    6      S       0.1232990000     0.3674240000    -1.4587510000
    7      C       1.1007990000     2.4820240000     1.8883490000
    8      H       0.9127990000     2.0754240000     2.9009490000
    9      H       0.5659990000     3.4519240000     1.8140490000
   10      H       2.1861990000     2.7030240000     1.8141490000
   11      C      -0.2836010000    -1.9638760000     0.0059490000
   12      H      -0.6530010000    -1.9643760000    -1.0089510000
   13      H       0.5979990000    -2.4989760000    -0.3147510000
   14      H      -1.0664010000    -2.6510760000     0.2912490000
   15      H       1.1602990000     2.6104240000    -1.0911510000
 ----------------------------------------------------------------

   10    -629.4100965606      5.17e-07  Convergence criterion met
 Total energy in the final basis set =     -629.4100965606
        RIMP2         total energy =      -630.5901425302 a.u.

                    Orbital Energies (a.u.)
 --------------------------------------------------------------

 Alpha MOs
 -- Occupied --
-91.9805 -11.2705 -11.2618 -11.2474 -11.2312 -11.2272 -11.2153  -8.9803
 -6.6612  -6.6607  -6.6601  -1.1621  -1.0532  -0.9948  -0.9451  -0.8825
 -0.7482  -0.7194  -0.6457  -0.5908  -0.5752  -0.5666  -0.5530  -0.5460
 -0.5109  -0.4813  -0.4643  -0.4450  -0.3376  -0.3030

          Ground-State Mulliken Net Atomic Charges

     Atom                 Charge (a.u.)
  ----------------------------------------
      1 C                     0.008254
      2 C                    -0.243154
      3 C                     0.035457
      4 H                     0.178386
      5 C                    -0.247943
      6 S                     0.000273
      7 C                    -0.271623
      8 H                     0.102069
      9 H                     0.106856
     10 H                     0.106305
     11 C                    -0.361257
     12 H                     0.110395
     13 H                     0.130480
     14 H                     0.149884
     15 H                     0.195618
  ----------------------------------------
  Sum of atomic charges =     0.000000

                    Cartesian Multipole Moments
 -----------------------------------------------------------------
    Charge (ESU x 10^10)
                -0.0000
    Dipole Moment (Debye)
         X       0.5160      Y       0.0938      Z       0.9661
       Tot       1.0992
    Quadrupole Moments (Debye-Ang)
        XX     -52.2230     XY       4.0202     YY     -43.8534
        XZ      -0.0053     YZ       1.2772     ZZ     -48.7315

 Total job time:  18.11s(wall), 751.52s(cpu)
        *  Thank you very much for using Q-Chem.  Have a nice day.  *
