 Q-Chem 5.4, Q-Chem, Inc., Pleasanton, CA (2021)
 Q-Chem 5.4.0 for Intel X86 EM64T Linux

User input:
--------------------------------------------------------------
$molecule
0 1
C	-0.522126	-0.335659	0.004642
C	0.122874	0.209641	1.117642
C	1.185474	1.107341	0.825242
H	-0.173526	-0.040859	2.147542
C	1.375074	1.267341	-0.558958
S	0.219074	0.291041	-1.460058
C	1.998674	1.794341	1.887042
H	1.656474	1.505341	2.899642
H	1.923874	2.899441	1.812742
H	3.075674	1.535941	1.812842
C	-0.522126	-1.785759	0.004642
H	0.172074	-1.786259	-0.822658
H	0.196374	-2.320859	0.607842
H	-1.160626	-2.472959	-0.530658
H	2.106874	1.885641	-1.092458
$end

$rem
JOBTYPE		SP
EXCHANGE	HF
CORRELATION	pRIMP2
BASIS		cc-pvtz
METHOD		rimp2
AUX_BASIS	rimp2-cc-pvtz
SOLVENT_METHOD	PCM
PURECART	11111
SYMMETRY	false
MEM_TOTAL	110000
SCF_CONVERGENCE = 6
THRESH=10
GUI = 2
$end

$solvent
dielectric 4.90
$end
--------------------------------------------------------------

             Standard Nuclear Orientation (Angstroms)
    I     Atom           X                Y                Z
 ----------------------------------------------------------------
    1      C      -0.5221260000    -0.3356590000     0.0046420000
    2      C       0.1228740000     0.2096410000     1.1176420000
    3      C       1.1854740000     1.1073410000     0.8252420000
    4      H      -0.1735260000    -0.0408590000     2.1475420000
    5      C       1.3750740000     1.2673410000    -0.5589580000
    6      S       0.2190740000     0.2910410000    -1.4600580000
    7      C       1.9986740000     1.7943410000     1.8870420000
    8      H       1.6564740000     1.5053410000     2.8996420000
    9      H       1.9238740000     2.8994410000     1.8127420000
   10      H       3.0756740000     1.5359410000     1.8128420000
   11      C      -0.5221260000    -1.7857590000     0.0046420000
   12      H       0.1720740000    -1.7862590000    -0.8226580000
   13      H       0.1963740000    -2.3208590000     0.6078420000
   14      H      -1.1606260000    -2.4729590000    -0.5306580000
   15      H       2.1068740000     1.8856410000    -1.0924580000
 ----------------------------------------------------------------

   10    -629.3685024494      6.71e-07  Convergence criterion met
 Total energy in the final basis set =     -629.3685024494
        RIMP2         total energy =      -630.5557529307 a.u.

                    Orbital Energies (a.u.)
 --------------------------------------------------------------

 Alpha MOs
 -- Occupied --
-91.9714 -11.2723 -11.2603 -11.2483 -11.2440 -11.2285 -11.2098  -8.9729
 -6.6538  -6.6530  -6.6526  -1.1710  -1.0564  -0.9945  -0.9424  -0.8796
 -0.7524  -0.7249  -0.6434  -0.5891  -0.5818  -0.5652  -0.5514  -0.5467
 -0.5137  -0.4834  -0.4612  -0.4375  -0.3365  -0.2956

          Ground-State Mulliken Net Atomic Charges

     Atom                 Charge (a.u.)
  ----------------------------------------
      1 C                    -0.037705
      2 C                    -0.194206
      3 C                     0.008435
      4 H                     0.182042
      5 C                    -0.214018
      6 S                    -0.004230
      7 C                    -0.268429
      8 H                     0.101877
      9 H                     0.107777
     10 H                     0.105584
     11 C                    -0.379332
     12 H                     0.135286
     13 H                     0.132769
     14 H                     0.127975
     15 H                     0.196176
  ----------------------------------------
  Sum of atomic charges =     0.000000

                    Cartesian Multipole Moments
 -----------------------------------------------------------------
    Charge (ESU x 10^10)
                -0.0000
    Dipole Moment (Debye)
         X       2.1622      Y       0.0224      Z       1.2629
       Tot       2.5041
    Quadrupole Moments (Debye-Ang)
        XX     -49.7396     XY       3.8034     YY     -48.3563
        XZ       0.3987     YZ       1.2561     ZZ     -48.1528

 Total job time:  17.50s(wall), 770.13s(cpu)
        *  Thank you very much for using Q-Chem.  Have a nice day.  *
