 Q-Chem 5.4, Q-Chem, Inc., Pleasanton, CA (2021)
 Q-Chem 5.4.0 for Intel X86 EM64T Linux

User input:
--------------------------------------------------------------
$molecule
0 1
C	-0.117655	-0.566489	0.005627
C	0.025945	0.265811	1.118627
C	0.262845	1.636511	0.826227
H	-0.040055	-0.116589	2.148527
C	0.305345	1.881011	-0.557973
S	0.047245	0.390011	-1.459073
C	0.444245	2.685511	1.888027
H	0.367845	2.244111	2.900627
H	-0.323355	3.484011	1.813727
H	1.435345	3.179911	1.813827
C	-0.117655	-2.016589	0.005627
H	0.251745	-2.017089	-1.009273
H	0.763845	-2.551689	0.326727
H	-0.900655	-2.703789	-0.279073
H	0.468445	2.825011	-1.091473
$end

$rem
JOBTYPE		SP
EXCHANGE	HF
CORRELATION	pRIMP2
BASIS		cc-pvtz
METHOD		rimp2
AUX_BASIS	rimp2-cc-pvtz
SOLVENT_METHOD	PCM
PURECART	11111
SYMMETRY	false
MEM_TOTAL	110000
SCF_CONVERGENCE = 6
THRESH=10
GUI = 2
$end

$solvent
dielectric 4.90
$end
--------------------------------------------------------------

             Standard Nuclear Orientation (Angstroms)
    I     Atom           X                Y                Z
 ----------------------------------------------------------------
    1      C      -0.1176550000    -0.5664890000     0.0056270000
    2      C       0.0259450000     0.2658110000     1.1186270000
    3      C       0.2628450000     1.6365110000     0.8262270000
    4      H      -0.0400550000    -0.1165890000     2.1485270000
    5      C       0.3053450000     1.8810110000    -0.5579730000
    6      S       0.0472450000     0.3900110000    -1.4590730000
    7      C       0.4442450000     2.6855110000     1.8880270000
    8      H       0.3678450000     2.2441110000     2.9006270000
    9      H      -0.3233550000     3.4840110000     1.8137270000
   10      H       1.4353450000     3.1799110000     1.8138270000
   11      C      -0.1176550000    -2.0165890000     0.0056270000
   12      H       0.2517450000    -2.0170890000    -1.0092730000
   13      H       0.7638450000    -2.5516890000     0.3267270000
   14      H      -0.9006550000    -2.7037890000    -0.2790730000
   15      H       0.4684450000     2.8250110000    -1.0914730000
 ----------------------------------------------------------------

   10    -629.4208219618      5.53e-07  Convergence criterion met
 Total energy in the final basis set =     -629.4208219618
        RIMP2         total energy =      -630.5983531079 a.u.

                    Orbital Energies (a.u.)
 --------------------------------------------------------------

 Alpha MOs
 -- Occupied --
-91.9800 -11.2759 -11.2579 -11.2471 -11.2290 -11.2270 -11.2171  -8.9799
 -6.6608  -6.6603  -6.6597  -1.1609  -1.0536  -0.9952  -0.9452  -0.8827
 -0.7476  -0.7184  -0.6469  -0.5909  -0.5757  -0.5659  -0.5528  -0.5464
 -0.5085  -0.4875  -0.4647  -0.4461  -0.3381  -0.3028

          Ground-State Mulliken Net Atomic Charges

     Atom                 Charge (a.u.)
  ----------------------------------------
      1 C                     0.049186
      2 C                    -0.268123
      3 C                     0.043116
      4 H                     0.179247
      5 C                    -0.259838
      6 S                    -0.002433
      7 C                    -0.272707
      8 H                     0.101924
      9 H                     0.107075
     10 H                     0.106904
     11 C                    -0.370089
     12 H                     0.115307
     13 H                     0.132743
     14 H                     0.142091
     15 H                     0.195597
  ----------------------------------------
  Sum of atomic charges =     0.000000

                    Cartesian Multipole Moments
 -----------------------------------------------------------------
    Charge (ESU x 10^10)
                -0.0000
    Dipole Moment (Debye)
         X       0.4954      Y      -0.0438      Z       0.8992
       Tot       1.0276
    Quadrupole Moments (Debye-Ang)
        XX     -53.5928     XY       1.0605     YY     -42.3899
        XZ       0.3214     YZ       1.5838     ZZ     -48.8008

 Total job time:  25.52s(wall), 769.35s(cpu)
        *  Thank you very much for using Q-Chem.  Have a nice day.  *
