 Q-Chem 5.4, Q-Chem, Inc., Pleasanton, CA (2021)
 Q-Chem 5.4.0 for Intel X86 EM64T Linux

User input:
--------------------------------------------------------------
$molecule
0 1
C	-0.439369	-0.419059	0.002446
C	0.101131	0.229941	1.115446
C	0.991631	1.298441	0.823046
H	-0.147269	-0.068259	2.145346
C	1.150731	1.489041	-0.561154
S	0.181731	0.326841	-1.462254
C	1.673231	2.116341	1.884846
H	1.386431	1.772241	2.897446
H	1.407731	3.191641	1.810546
H	2.778831	2.048841	1.810646
C	-0.439369	-1.869159	0.002446
H	0.575531	-1.869659	-0.366954
H	-0.118669	-2.404259	0.884046
H	-0.724669	-2.556359	-0.780354
H	1.763931	2.225041	-1.094654
$end

$rem
JOBTYPE		SP
EXCHANGE	HF
CORRELATION	pRIMP2
BASIS		cc-pvtz
METHOD		rimp2
AUX_BASIS	rimp2-cc-pvtz
SOLVENT_METHOD	PCM
PURECART	11111
SYMMETRY	false
MEM_TOTAL	110000
SCF_CONVERGENCE = 6
THRESH=10
GUI = 2
$end

$solvent
dielectric 4.90
$end
--------------------------------------------------------------

             Standard Nuclear Orientation (Angstroms)
    I     Atom           X                Y                Z
 ----------------------------------------------------------------
    1      C      -0.4393690000    -0.4190590000     0.0024460000
    2      C       0.1011310000     0.2299410000     1.1154460000
    3      C       0.9916310000     1.2984410000     0.8230460000
    4      H      -0.1472690000    -0.0682590000     2.1453460000
    5      C       1.1507310000     1.4890410000    -0.5611540000
    6      S       0.1817310000     0.3268410000    -1.4622540000
    7      C       1.6732310000     2.1163410000     1.8848460000
    8      H       1.3864310000     1.7722410000     2.8974460000
    9      H       1.4077310000     3.1916410000     1.8105460000
   10      H       2.7788310000     2.0488410000     1.8106460000
   11      C      -0.4393690000    -1.8691590000     0.0024460000
   12      H       0.5755310000    -1.8696590000    -0.3669540000
   13      H      -0.1186690000    -2.4042590000     0.8840460000
   14      H      -0.7246690000    -2.5563590000    -0.7803540000
   15      H       1.7639310000     2.2250410000    -1.0946540000
 ----------------------------------------------------------------

   10    -629.3960880628      6.12e-07  Convergence criterion met
 Total energy in the final basis set =     -629.3960880628
        RIMP2         total energy =      -630.5781647496 a.u.

                    Orbital Energies (a.u.)
 --------------------------------------------------------------

 Alpha MOs
 -- Occupied --
-91.9740 -11.2748 -11.2615 -11.2486 -11.2327 -11.2279 -11.2190  -8.9748
 -6.6557  -6.6551  -6.6545  -1.1671  -1.0559  -0.9956  -0.9405  -0.8819
 -0.7477  -0.7223  -0.6445  -0.5877  -0.5824  -0.5658  -0.5511  -0.5459
 -0.5085  -0.4954  -0.4605  -0.4490  -0.3398  -0.2903

          Ground-State Mulliken Net Atomic Charges

     Atom                 Charge (a.u.)
  ----------------------------------------
      1 C                     0.023354
      2 C                    -0.280344
      3 C                     0.044439
      4 H                     0.177916
      5 C                    -0.250306
      6 S                    -0.005377
      7 C                    -0.269236
      8 H                     0.101840
      9 H                     0.107999
     10 H                     0.106430
     11 C                    -0.368204
     12 H                     0.139713
     13 H                     0.134681
     14 H                     0.143216
     15 H                     0.193880
  ----------------------------------------
  Sum of atomic charges =     0.000000

                    Cartesian Multipole Moments
 -----------------------------------------------------------------
    Charge (ESU x 10^10)
                -0.0000
    Dipole Moment (Debye)
         X       1.6857      Y      -0.3695      Z       1.4049
       Tot       2.2253
    Quadrupole Moments (Debye-Ang)
        XX     -51.5198     XY       3.4304     YY     -45.9862
        XZ       0.3712     YZ       0.7313     ZZ     -48.4185

 Total job time:  16.41s(wall), 780.69s(cpu)
        *  Thank you very much for using Q-Chem.  Have a nice day.  *
