 Q-Chem 5.4, Q-Chem, Inc., Pleasanton, CA (2021)
 Q-Chem 5.4.0 for Intel X86 EM64T Linux

User input:
--------------------------------------------------------------
$molecule
0 1
C	-0.169953	-0.553870	-0.002181
C	0.045647	0.262730	1.110819
C	0.401147	1.607530	0.818419
H	-0.053453	-0.112470	2.140719
C	0.464747	1.847430	-0.565781
S	0.077647	0.384630	-1.466881
C	0.673247	2.636830	1.880219
H	0.558647	2.203730	2.892819
H	-0.021853	3.499130	1.805919
H	1.703747	3.042930	1.806019
C	-0.169953	-2.003970	-0.002181
H	-0.864153	-2.004470	0.825119
H	-0.888453	-2.539070	-0.605381
H	0.468547	-2.691170	0.533119
H	0.709547	2.773630	-1.099281
$end

$rem
JOBTYPE		SP
EXCHANGE	HF
CORRELATION	pRIMP2
BASIS		cc-pvtz
METHOD		rimp2
AUX_BASIS	rimp2-cc-pvtz
SOLVENT_METHOD	PCM
PURECART	11111
SYMMETRY	false
MEM_TOTAL	110000
SCF_CONVERGENCE = 6
THRESH=10
GUI = 2
$end

$solvent
dielectric 4.90
$end
--------------------------------------------------------------

             Standard Nuclear Orientation (Angstroms)
    I     Atom           X                Y                Z
 ----------------------------------------------------------------
    1      C      -0.1699530000    -0.5538700000    -0.0021810000
    2      C       0.0456470000     0.2627300000     1.1108190000
    3      C       0.4011470000     1.6075300000     0.8184190000
    4      H      -0.0534530000    -0.1124700000     2.1407190000
    5      C       0.4647470000     1.8474300000    -0.5657810000
    6      S       0.0776470000     0.3846300000    -1.4668810000
    7      C       0.6732470000     2.6368300000     1.8802190000
    8      H       0.5586470000     2.2037300000     2.8928190000
    9      H      -0.0218530000     3.4991300000     1.8059190000
   10      H       1.7037470000     3.0429300000     1.8060190000
   11      C      -0.1699530000    -2.0039700000    -0.0021810000
   12      H      -0.8641530000    -2.0044700000     0.8251190000
   13      H      -0.8884530000    -2.5390700000    -0.6053810000
   14      H       0.4685470000    -2.6911700000     0.5331190000
   15      H       0.7095470000     2.7736300000    -1.0992810000
 ----------------------------------------------------------------

   10    -629.4208072001      5.30e-07  Convergence criterion met
 Total energy in the final basis set =     -629.4208072001
        RIMP2         total energy =      -630.5991485839 a.u.

                    Orbital Energies (a.u.)
 --------------------------------------------------------------

 Alpha MOs
 -- Occupied --
-91.9763 -11.2779 -11.2563 -11.2476 -11.2312 -11.2274 -11.2179  -8.9763
 -6.6572  -6.6566  -6.6561  -1.1606  -1.0526  -0.9987  -0.9396  -0.8850
 -0.7427  -0.7220  -0.6480  -0.5881  -0.5759  -0.5651  -0.5596  -0.5422
 -0.5105  -0.4895  -0.4648  -0.4444  -0.3373  -0.2983

          Ground-State Mulliken Net Atomic Charges

     Atom                 Charge (a.u.)
  ----------------------------------------
      1 C                     0.044987
      2 C                    -0.278659
      3 C                     0.039408
      4 H                     0.176976
      5 C                    -0.257833
      6 S                    -0.003124
      7 C                    -0.273551
      8 H                     0.101334
      9 H                     0.107056
     10 H                     0.107277
     11 C                    -0.370849
     12 H                     0.127239
     13 H                     0.137773
     14 H                     0.148656
     15 H                     0.193310
  ----------------------------------------
  Sum of atomic charges =     0.000000

                    Cartesian Multipole Moments
 -----------------------------------------------------------------
    Charge (ESU x 10^10)
                -0.0000
    Dipole Moment (Debye)
         X      -0.0840      Y      -0.2285      Z       2.0150
       Tot       2.0297
    Quadrupole Moments (Debye-Ang)
        XX     -53.2810     XY       3.1447     YY     -42.6922
        XZ       0.3269     YZ      -0.7994     ZZ     -48.7510

 Total job time:  15.91s(wall), 763.18s(cpu)
        *  Thank you very much for using Q-Chem.  Have a nice day.  *
