 Q-Chem 5.4, Q-Chem, Inc., Pleasanton, CA (2021)
 Q-Chem 5.4.0 for Intel X86 EM64T Linux

User input:
--------------------------------------------------------------
$molecule
0 1
C	-0.052830	-0.574004	0.004064
C	0.017670	0.267696	1.117064
C	0.134270	1.653696	0.824664
H	-0.014730	-0.119104	2.146964
C	0.155270	1.900996	-0.559536
S	0.028070	0.393196	-1.460636
C	0.223470	2.714596	1.886464
H	0.185870	2.268196	2.899064
H	-0.610830	3.443096	1.812164
H	1.167770	3.293496	1.812264
C	-0.052830	-2.024104	0.004064
H	-0.988130	-2.024604	-0.535936
H	0.416470	-2.559204	-0.808236
H	-0.469130	-2.711304	0.725764
H	0.235470	2.855696	-1.093036
$end

$rem
JOBTYPE		SP
EXCHANGE	HF
CORRELATION	pRIMP2
BASIS		cc-pvtz
METHOD		rimp2
AUX_BASIS	rimp2-cc-pvtz
SOLVENT_METHOD	PCM
PURECART	11111
SYMMETRY	false
MEM_TOTAL	110000
SCF_CONVERGENCE = 6
THRESH=10
GUI = 2
$end

$solvent
dielectric 4.90
$end
--------------------------------------------------------------

             Standard Nuclear Orientation (Angstroms)
    I     Atom           X                Y                Z
 ----------------------------------------------------------------
    1      C      -0.0528300000    -0.5740040000     0.0040640000
    2      C       0.0176700000     0.2676960000     1.1170640000
    3      C       0.1342700000     1.6536960000     0.8246640000
    4      H      -0.0147300000    -0.1191040000     2.1469640000
    5      C       0.1552700000     1.9009960000    -0.5595360000
    6      S       0.0280700000     0.3931960000    -1.4606360000
    7      C       0.2234700000     2.7145960000     1.8864640000
    8      H       0.1858700000     2.2681960000     2.8990640000
    9      H      -0.6108300000     3.4430960000     1.8121640000
   10      H       1.1677700000     3.2934960000     1.8122640000
   11      C      -0.0528300000    -2.0241040000     0.0040640000
   12      H      -0.9881300000    -2.0246040000    -0.5359360000
   13      H       0.4164700000    -2.5592040000    -0.8082360000
   14      H      -0.4691300000    -2.7113040000     0.7257640000
   15      H       0.2354700000     2.8556960000    -1.0930360000
 ----------------------------------------------------------------

   10    -629.4235902644      6.46e-07  Convergence criterion met
 Total energy in the final basis set =     -629.4235902644
        RIMP2         total energy =      -630.5990210647 a.u.

                    Orbital Energies (a.u.)
 --------------------------------------------------------------

 Alpha MOs
 -- Occupied --
-91.9795 -11.2826 -11.2523 -11.2469 -11.2265 -11.2240 -11.2209  -8.9793
 -6.6603  -6.6598  -6.6591  -1.1600  -1.0542  -0.9961  -0.9437  -0.8831
 -0.7452  -0.7177  -0.6479  -0.5884  -0.5748  -0.5662  -0.5527  -0.5462
 -0.5078  -0.4929  -0.4653  -0.4544  -0.3388  -0.2927

          Ground-State Mulliken Net Atomic Charges

     Atom                 Charge (a.u.)
  ----------------------------------------
      1 C                     0.045832
      2 C                    -0.279359
      3 C                     0.038511
      4 H                     0.179656
      5 C                    -0.266987
      6 S                    -0.005061
      7 C                    -0.273726
      8 H                     0.101531
      9 H                     0.107141
     10 H                     0.107240
     11 C                    -0.377339
     12 H                     0.129606
     13 H                     0.136803
     14 H                     0.161280
     15 H                     0.194874
  ----------------------------------------
  Sum of atomic charges =     0.000000

                    Cartesian Multipole Moments
 -----------------------------------------------------------------
    Charge (ESU x 10^10)
                -0.0000
    Dipole Moment (Debye)
         X      -0.5094      Y      -0.5095      Z       1.0802
       Tot       1.2985
    Quadrupole Moments (Debye-Ang)
        XX     -54.1337     XY       2.1230     YY     -41.7847
        XZ      -0.2557     YZ       0.9855     ZZ     -48.6510

 Total job time:  16.04s(wall), 749.34s(cpu)
        *  Thank you very much for using Q-Chem.  Have a nice day.  *
