 Q-Chem 5.4, Q-Chem, Inc., Pleasanton, CA (2021)
 Q-Chem 5.4.0 for Intel X86 EM64T Linux

User input:
--------------------------------------------------------------
$molecule
0 1
C	-0.177395	-0.553870	-0.001602
C	0.038205	0.262730	1.111398
C	0.393705	1.607530	0.818998
H	-0.060895	-0.112470	2.141298
C	0.457305	1.847430	-0.565202
S	0.070205	0.384630	-1.466302
C	0.665805	2.636830	1.880798
H	0.551205	2.203730	2.893398
H	-0.029295	3.499130	1.806498
H	1.696305	3.042930	1.806598
C	-0.177395	-2.003970	-0.001602
H	0.757905	-2.004470	0.538398
H	-0.646695	-2.539070	0.810698
H	0.238905	-2.691170	-0.723302
H	0.702105	2.773630	-1.098702
$end

$rem
JOBTYPE		SP
EXCHANGE	HF
CORRELATION	pRIMP2
BASIS		cc-pvtz
METHOD		rimp2
AUX_BASIS	rimp2-cc-pvtz
SOLVENT_METHOD	PCM
PURECART	11111
SYMMETRY	false
MEM_TOTAL	110000
SCF_CONVERGENCE = 6
THRESH=10
GUI = 2
$end

$solvent
dielectric 4.90
$end
--------------------------------------------------------------

             Standard Nuclear Orientation (Angstroms)
    I     Atom           X                Y                Z
 ----------------------------------------------------------------
    1      C      -0.1773950000    -0.5538700000    -0.0016020000
    2      C       0.0382050000     0.2627300000     1.1113980000
    3      C       0.3937050000     1.6075300000     0.8189980000
    4      H      -0.0608950000    -0.1124700000     2.1412980000
    5      C       0.4573050000     1.8474300000    -0.5652020000
    6      S       0.0702050000     0.3846300000    -1.4663020000
    7      C       0.6658050000     2.6368300000     1.8807980000
    8      H       0.5512050000     2.2037300000     2.8933980000
    9      H      -0.0292950000     3.4991300000     1.8064980000
   10      H       1.6963050000     3.0429300000     1.8065980000
   11      C      -0.1773950000    -2.0039700000    -0.0016020000
   12      H       0.7579050000    -2.0044700000     0.5383980000
   13      H      -0.6466950000    -2.5390700000     0.8106980000
   14      H       0.2389050000    -2.6911700000    -0.7233020000
   15      H       0.7021050000     2.7736300000    -1.0987020000
 ----------------------------------------------------------------

   10    -629.4206848699      6.22e-07  Convergence criterion met
 Total energy in the final basis set =     -629.4206848699
        RIMP2         total energy =      -630.5977764519 a.u.

                    Orbital Energies (a.u.)
 --------------------------------------------------------------

 Alpha MOs
 -- Occupied --
-91.9788 -11.2842 -11.2506 -11.2477 -11.2270 -11.2247 -11.2209  -8.9784
 -6.6594  -6.6589  -6.6583  -1.1610  -1.0541  -0.9983  -0.9390  -0.8842
 -0.7427  -0.7198  -0.6468  -0.5898  -0.5739  -0.5709  -0.5560  -0.5435
 -0.5086  -0.4882  -0.4673  -0.4538  -0.3370  -0.2913

          Ground-State Mulliken Net Atomic Charges

     Atom                 Charge (a.u.)
  ----------------------------------------
      1 C                     0.050704
      2 C                    -0.282698
      3 C                     0.041343
      4 H                     0.174303
      5 C                    -0.275692
      6 S                     0.001414
      7 C                    -0.272529
      8 H                     0.101356
      9 H                     0.107399
     10 H                     0.106978
     11 C                    -0.388801
     12 H                     0.146432
     13 H                     0.138744
     14 H                     0.158249
     15 H                     0.192800
  ----------------------------------------
  Sum of atomic charges =     0.000000

                    Cartesian Multipole Moments
 -----------------------------------------------------------------
    Charge (ESU x 10^10)
                -0.0000
    Dipole Moment (Debye)
         X       0.9129      Y      -0.6232      Z       1.7832
       Tot       2.0980
    Quadrupole Moments (Debye-Ang)
        XX     -53.9015     XY       0.8061     YY     -42.5615
        XZ      -0.1677     YZ      -0.2509     ZZ     -48.6116

 Total job time:  16.10s(wall), 752.62s(cpu)
        *  Thank you very much for using Q-Chem.  Have a nice day.  *
