 Q-Chem 5.4, Q-Chem, Inc., Pleasanton, CA (2021)
 Q-Chem 5.4.0 for Intel X86 EM64T Linux

User input:
--------------------------------------------------------------
$molecule
0 1
C	-0.058810	-0.574004	-0.003205
C	0.011690	0.267696	1.109795
C	0.128290	1.653696	0.817395
H	-0.020710	-0.119104	2.139695
C	0.149290	1.900996	-0.566805
S	0.022090	0.393196	-1.467905
C	0.217490	2.714596	1.879195
H	0.179890	2.268196	2.891795
H	-0.616810	3.443096	1.804895
H	1.161790	3.293496	1.804995
C	-0.058810	-2.024104	-0.003205
H	0.481190	-2.024604	0.932095
H	-0.871410	-2.559204	0.465695
H	0.662590	-2.711304	-0.420105
H	0.229490	2.855696	-1.100305
$end

$rem
JOBTYPE		SP
EXCHANGE	HF
CORRELATION	pRIMP2
BASIS		cc-pvtz
METHOD		rimp2
AUX_BASIS	rimp2-cc-pvtz
SOLVENT_METHOD	PCM
PURECART	11111
SYMMETRY	false
MEM_TOTAL	110000
SCF_CONVERGENCE = 6
THRESH=10
GUI = 2
$end

$solvent
dielectric 4.90
$end
--------------------------------------------------------------

             Standard Nuclear Orientation (Angstroms)
    I     Atom           X                Y                Z
 ----------------------------------------------------------------
    1      C      -0.0588100000    -0.5740040000    -0.0032050000
    2      C       0.0116900000     0.2676960000     1.1097950000
    3      C       0.1282900000     1.6536960000     0.8173950000
    4      H      -0.0207100000    -0.1191040000     2.1396950000
    5      C       0.1492900000     1.9009960000    -0.5668050000
    6      S       0.0220900000     0.3931960000    -1.4679050000
    7      C       0.2174900000     2.7145960000     1.8791950000
    8      H       0.1798900000     2.2681960000     2.8917950000
    9      H      -0.6168100000     3.4430960000     1.8048950000
   10      H       1.1617900000     3.2934960000     1.8049950000
   11      C      -0.0588100000    -2.0241040000    -0.0032050000
   12      H       0.4811900000    -2.0246040000     0.9320950000
   13      H      -0.8714100000    -2.5592040000     0.4656950000
   14      H       0.6625900000    -2.7113040000    -0.4201050000
   15      H       0.2294900000     2.8556960000    -1.1003050000
 ----------------------------------------------------------------

   10    -629.4246417282      5.23e-07  Convergence criterion met
 Total energy in the final basis set =     -629.4246417282
        RIMP2         total energy =      -630.6020976602 a.u.

                    Orbital Energies (a.u.)
 --------------------------------------------------------------

 Alpha MOs
 -- Occupied --
-91.9767 -11.2803 -11.2549 -11.2474 -11.2306 -11.2274 -11.2182  -8.9766
 -6.6575  -6.6569  -6.6564  -1.1606  -1.0529  -0.9993  -0.9388  -0.8851
 -0.7422  -0.7221  -0.6475  -0.5910  -0.5762  -0.5680  -0.5584  -0.5418
 -0.5097  -0.4864  -0.4676  -0.4441  -0.3369  -0.3000

          Ground-State Mulliken Net Atomic Charges

     Atom                 Charge (a.u.)
  ----------------------------------------
      1 C                     0.059070
      2 C                    -0.266423
      3 C                     0.029905
      4 H                     0.175870
      5 C                    -0.258703
      6 S                    -0.005692
      7 C                    -0.273986
      8 H                     0.101277
      9 H                     0.107323
     10 H                     0.107183
     11 C                    -0.381589
     12 H                     0.129351
     13 H                     0.131034
     14 H                     0.152271
     15 H                     0.193107
  ----------------------------------------
  Sum of atomic charges =     0.000000

                    Cartesian Multipole Moments
 -----------------------------------------------------------------
    Charge (ESU x 10^10)
                -0.0000
    Dipole Moment (Debye)
         X       0.4412      Y      -0.2708      Z       2.0696
       Tot       2.1334
    Quadrupole Moments (Debye-Ang)
        XX     -53.8379     XY      -0.1454     YY     -42.1507
        XZ      -0.2756     YZ      -0.7874     ZZ     -48.8605

 Total job time:  15.96s(wall), 753.53s(cpu)
        *  Thank you very much for using Q-Chem.  Have a nice day.  *
