 Q-Chem 5.4, Q-Chem, Inc., Pleasanton, CA (2021)
 Q-Chem 5.4.0 for Intel X86 EM64T Linux

User input:
--------------------------------------------------------------
$molecule
0 1
C	-0.001998	-0.576386	-0.000871
C	-0.005098	0.268214	1.112129
C	-0.009798	1.659214	0.819729
H	-0.003698	-0.119886	2.142029
C	-0.010398	1.907314	-0.564471
S	-0.005698	0.394214	-1.465571
C	-0.013398	2.723814	1.881529
H	-0.011898	2.275814	2.894129
H	-0.907898	3.376814	1.807229
H	0.876902	3.382714	1.807329
C	-0.001998	-2.026486	-0.000871
H	1.012902	-2.026986	0.368529
H	-0.323098	-2.561586	0.880629
H	0.282702	-2.713686	-0.783871
H	-0.013698	2.865414	-1.097971
$end

$rem
JOBTYPE		SP
EXCHANGE	HF
CORRELATION	pRIMP2
BASIS		cc-pvtz
METHOD		rimp2
AUX_BASIS	rimp2-cc-pvtz
SOLVENT_METHOD	PCM
PURECART	11111
SYMMETRY	false
MEM_TOTAL	110000
SCF_CONVERGENCE = 6
THRESH=10
GUI = 2
$end

$solvent
dielectric 4.90
$end
--------------------------------------------------------------

             Standard Nuclear Orientation (Angstroms)
    I     Atom           X                Y                Z
 ----------------------------------------------------------------
    1      C      -0.0019980000    -0.5763860000    -0.0008710000
    2      C      -0.0050980000     0.2682140000     1.1121290000
    3      C      -0.0097980000     1.6592140000     0.8197290000
    4      H      -0.0036980000    -0.1198860000     2.1420290000
    5      C      -0.0103980000     1.9073140000    -0.5644710000
    6      S      -0.0056980000     0.3942140000    -1.4655710000
    7      C      -0.0133980000     2.7238140000     1.8815290000
    8      H      -0.0118980000     2.2758140000     2.8941290000
    9      H      -0.9078980000     3.3768140000     1.8072290000
   10      H       0.8769020000     3.3827140000     1.8073290000
   11      C      -0.0019980000    -2.0264860000    -0.0008710000
   12      H       1.0129020000    -2.0269860000     0.3685290000
   13      H      -0.3230980000    -2.5615860000     0.8806290000
   14      H       0.2827020000    -2.7136860000    -0.7838710000
   15      H      -0.0136980000     2.8654140000    -1.0979710000
 ----------------------------------------------------------------

   10    -629.4254634147      6.57e-07  Convergence criterion met
 Total energy in the final basis set =     -629.4254634147
        RIMP2         total energy =      -630.6011127517 a.u.

                    Orbital Energies (a.u.)
 --------------------------------------------------------------

 Alpha MOs
 -- Occupied --
-91.9784 -11.2859 -11.2491 -11.2473 -11.2267 -11.2236 -11.2223  -8.9781
 -6.6591  -6.6585  -6.6579  -1.1599  -1.0543  -0.9981  -0.9401  -0.8842
 -0.7428  -0.7188  -0.6471  -0.5895  -0.5731  -0.5704  -0.5554  -0.5440
 -0.5080  -0.4932  -0.4658  -0.4545  -0.3375  -0.2903

          Ground-State Mulliken Net Atomic Charges

     Atom                 Charge (a.u.)
  ----------------------------------------
      1 C                     0.067650
      2 C                    -0.302427
      3 C                     0.045589
      4 H                     0.174445
      5 C                    -0.277852
      6 S                     0.000071
      7 C                    -0.275130
      8 H                     0.101370
      9 H                     0.107384
     10 H                     0.107367
     11 C                    -0.387292
     12 H                     0.142886
     13 H                     0.143027
     14 H                     0.160376
     15 H                     0.192535
  ----------------------------------------
  Sum of atomic charges =     0.000000

                    Cartesian Multipole Moments
 -----------------------------------------------------------------
    Charge (ESU x 10^10)
                -0.0000
    Dipole Moment (Debye)
         X       0.6908      Y      -0.7306      Z       1.6624
       Tot       1.9428
    Quadrupole Moments (Debye-Ang)
        XX     -54.3168     XY      -1.5639     YY     -41.7561
        XZ      -0.1840     YZ       0.0374     ZZ     -48.6149

 Total job time:  36.35s(wall), 769.18s(cpu)
        *  Thank you very much for using Q-Chem.  Have a nice day.  *
