 Q-Chem 5.4, Q-Chem, Inc., Pleasanton, CA (2021)
 Q-Chem 5.4.0 for Intel X86 EM64T Linux

User input:
--------------------------------------------------------------
$molecule
0 1
C	-0.585569	-0.238938	-0.003463
C	0.144331	0.186062	1.109537
C	1.346631	0.885562	0.817137
H	-0.191069	-0.009138	2.139437
C	1.561231	1.010262	-0.567063
S	0.253131	0.249562	-1.468163
C	2.266831	1.420962	1.878937
H	1.879531	1.195762	2.891537
H	2.385031	2.522262	1.804637
H	3.282631	0.979462	1.804737
C	-0.585569	-1.689038	-0.003463
H	-0.773069	-1.689538	1.060137
H	-1.509469	-2.224138	-0.166563
H	0.235031	-2.376238	0.140937
H	2.389231	1.492062	-1.100563
$end

$rem
JOBTYPE		SP
EXCHANGE	HF
CORRELATION	pRIMP2
BASIS		cc-pvtz
METHOD		rimp2
AUX_BASIS	rimp2-cc-pvtz
SOLVENT_METHOD	PCM
PURECART	11111
SYMMETRY	false
MEM_TOTAL	110000
SCF_CONVERGENCE = 6
THRESH=10
GUI = 2
$end

$solvent
dielectric 4.90
$end
--------------------------------------------------------------

             Standard Nuclear Orientation (Angstroms)
    I     Atom           X                Y                Z
 ----------------------------------------------------------------
    1      C      -0.5855690000    -0.2389380000    -0.0034630000
    2      C       0.1443310000     0.1860620000     1.1095370000
    3      C       1.3466310000     0.8855620000     0.8171370000
    4      H      -0.1910690000    -0.0091380000     2.1394370000
    5      C       1.5612310000     1.0102620000    -0.5670630000
    6      S       0.2531310000     0.2495620000    -1.4681630000
    7      C       2.2668310000     1.4209620000     1.8789370000
    8      H       1.8795310000     1.1957620000     2.8915370000
    9      H       2.3850310000     2.5222620000     1.8046370000
   10      H       3.2826310000     0.9794620000     1.8047370000
   11      C      -0.5855690000    -1.6890380000    -0.0034630000
   12      H      -0.7730690000    -1.6895380000     1.0601370000
   13      H      -1.5094690000    -2.2241380000    -0.1665630000
   14      H       0.2350310000    -2.3762380000     0.1409370000
   15      H       2.3892310000     1.4920620000    -1.1005630000
 ----------------------------------------------------------------

   10    -629.3519503256      9.84e-07  Convergence criterion met
 Total energy in the final basis set =     -629.3519503256
        RIMP2         total energy =      -630.5425152748 a.u.

                    Orbital Energies (a.u.)
 --------------------------------------------------------------

 Alpha MOs
 -- Occupied --
-91.9724 -11.2848 -11.2559 -11.2496 -11.2421 -11.2298 -11.2080  -8.9734
 -6.6542  -6.6533  -6.6531  -1.1743  -1.0552  -1.0017  -0.9332  -0.8844
 -0.7485  -0.7349  -0.6439  -0.5892  -0.5850  -0.5696  -0.5521  -0.5423
 -0.5210  -0.4728  -0.4566  -0.4206  -0.3324  -0.3092

          Ground-State Mulliken Net Atomic Charges

     Atom                 Charge (a.u.)
  ----------------------------------------
      1 C                    -0.111967
      2 C                    -0.113359
      3 C                    -0.023473
      4 H                     0.181151
      5 C                    -0.177903
      6 S                     0.010300
      7 C                    -0.267177
      8 H                     0.102098
      9 H                     0.106798
     10 H                     0.104973
     11 C                    -0.350000
     12 H                     0.099139
     13 H                     0.105777
     14 H                     0.135494
     15 H                     0.198149
  ----------------------------------------
  Sum of atomic charges =     0.000000

                    Cartesian Multipole Moments
 -----------------------------------------------------------------
    Charge (ESU x 10^10)
                -0.0000
    Dipole Moment (Debye)
         X       2.4548      Y       0.3040      Z       2.3733
       Tot       3.4280
    Quadrupole Moments (Debye-Ang)
        XX     -47.6353     XY       4.3193     YY     -50.1048
        XZ      -0.4611     YZ      -0.8706     ZZ     -48.1520

 Total job time:  22.80s(wall), 765.68s(cpu)
        *  Thank you very much for using Q-Chem.  Have a nice day.  *
