 Q-Chem 5.4, Q-Chem, Inc., Pleasanton, CA (2021)
 Q-Chem 5.4.0 for Intel X86 EM64T Linux

User input:
--------------------------------------------------------------
$molecule
0 1
C	-0.434272	-0.419059	0.006088
C	0.106228	0.229941	1.119088
C	0.996728	1.298441	0.826688
H	-0.142172	-0.068259	2.148988
C	1.155828	1.489041	-0.557512
S	0.186828	0.326841	-1.458612
C	1.678328	2.116341	1.888488
H	1.391528	1.772241	2.901088
H	1.412828	3.191641	1.814188
H	2.783928	2.048841	1.814288
C	-0.434272	-1.869159	0.006088
H	-0.621872	-1.869659	-1.057512
H	0.489628	-2.404259	-0.156612
H	-1.254772	-2.556359	0.151088
H	1.769028	2.225041	-1.091012
$end

$rem
JOBTYPE		SP
EXCHANGE	HF
CORRELATION	pRIMP2
BASIS		cc-pvtz
METHOD		rimp2
AUX_BASIS	rimp2-cc-pvtz
SOLVENT_METHOD	PCM
PURECART	11111
SYMMETRY	false
MEM_TOTAL	110000
SCF_CONVERGENCE = 6
THRESH=10
GUI = 2
$end

$solvent
dielectric 4.90
$end
--------------------------------------------------------------

             Standard Nuclear Orientation (Angstroms)
    I     Atom           X                Y                Z
 ----------------------------------------------------------------
    1      C      -0.4342720000    -0.4190590000     0.0060880000
    2      C       0.1062280000     0.2299410000     1.1190880000
    3      C       0.9967280000     1.2984410000     0.8266880000
    4      H      -0.1421720000    -0.0682590000     2.1489880000
    5      C       1.1558280000     1.4890410000    -0.5575120000
    6      S       0.1868280000     0.3268410000    -1.4586120000
    7      C       1.6783280000     2.1163410000     1.8884880000
    8      H       1.3915280000     1.7722410000     2.9010880000
    9      H       1.4128280000     3.1916410000     1.8141880000
   10      H       2.7839280000     2.0488410000     1.8142880000
   11      C      -0.4342720000    -1.8691590000     0.0060880000
   12      H      -0.6218720000    -1.8696590000    -1.0575120000
   13      H       0.4896280000    -2.4042590000    -0.1566120000
   14      H      -1.2547720000    -2.5563590000     0.1510880000
   15      H       1.7690280000     2.2250410000    -1.0910120000
 ----------------------------------------------------------------

   10    -629.3905336552      5.30e-07  Convergence criterion met
 Total energy in the final basis set =     -629.3905336552
        RIMP2         total energy =      -630.5747454928 a.u.

                    Orbital Energies (a.u.)
 --------------------------------------------------------------

 Alpha MOs
 -- Occupied --
-91.9787 -11.2691 -11.2609 -11.2477 -11.2378 -11.2277 -11.2124  -8.9789
 -6.6598  -6.6591  -6.6586  -1.1655  -1.0538  -0.9942  -0.9445  -0.8813
 -0.7505  -0.7219  -0.6441  -0.5909  -0.5768  -0.5670  -0.5519  -0.5461
 -0.5138  -0.4718  -0.4634  -0.4422  -0.3356  -0.3053

          Ground-State Mulliken Net Atomic Charges

     Atom                 Charge (a.u.)
  ----------------------------------------
      1 C                    -0.031178
      2 C                    -0.205627
      3 C                     0.026035
      4 H                     0.177878
      5 C                    -0.230021
      6 S                     0.002760
      7 C                    -0.270084
      8 H                     0.102122
      9 H                     0.106857
     10 H                     0.105358
     11 C                    -0.358090
     12 H                     0.109064
     13 H                     0.129941
     14 H                     0.138066
     15 H                     0.196920
  ----------------------------------------
  Sum of atomic charges =     0.000000

                    Cartesian Multipole Moments
 -----------------------------------------------------------------
    Charge (ESU x 10^10)
                -0.0000
    Dipole Moment (Debye)
         X       1.2538      Y       0.2521      Z       1.0492
       Tot       1.6542
    Quadrupole Moments (Debye-Ang)
        XX     -50.3557     XY       4.8574     YY     -46.3566
        XZ       0.1042     YZ       1.1527     ZZ     -48.5133

 Total job time:  25.07s(wall), 778.29s(cpu)
        *  Thank you very much for using Q-Chem.  Have a nice day.  *
