 Q-Chem 5.4, Q-Chem, Inc., Pleasanton, CA (2021)
 Q-Chem 5.4.0 for Intel X86 EM64T Linux

User input:
--------------------------------------------------------------
$molecule
0 1
C	-0.289674	-0.513776	0.001609
C	0.064526	0.253024	1.114609
C	0.648126	1.515624	0.822209
H	-0.098374	-0.099276	2.144509
C	0.752326	1.740824	-0.561991
S	0.117226	0.367424	-1.463091
C	1.094726	2.482024	1.884009
H	0.906726	2.075424	2.896609
H	0.559926	3.451924	1.809709
H	2.180126	2.703024	1.809809
C	-0.289674	-1.963876	0.001609
H	0.773926	-1.964376	-0.185991
H	-0.126974	-2.498976	0.925509
H	-0.434674	-2.651076	-0.818891
H	1.154226	2.610424	-1.095491
$end

$rem
JOBTYPE		SP
EXCHANGE	HF
CORRELATION	pRIMP2
BASIS		cc-pvtz
METHOD		rimp2
AUX_BASIS	rimp2-cc-pvtz
SOLVENT_METHOD	PCM
PURECART	11111
SYMMETRY	false
MEM_TOTAL	110000
SCF_CONVERGENCE = 6
THRESH=10
GUI = 2
$end

$solvent
dielectric 4.90
$end
--------------------------------------------------------------

             Standard Nuclear Orientation (Angstroms)
    I     Atom           X                Y                Z
 ----------------------------------------------------------------
    1      C      -0.2896740000    -0.5137760000     0.0016090000
    2      C       0.0645260000     0.2530240000     1.1146090000
    3      C       0.6481260000     1.5156240000     0.8222090000
    4      H      -0.0983740000    -0.0992760000     2.1445090000
    5      C       0.7523260000     1.7408240000    -0.5619910000
    6      S       0.1172260000     0.3674240000    -1.4630910000
    7      C       1.0947260000     2.4820240000     1.8840090000
    8      H       0.9067260000     2.0754240000     2.8966090000
    9      H       0.5599260000     3.4519240000     1.8097090000
   10      H       2.1801260000     2.7030240000     1.8098090000
   11      C      -0.2896740000    -1.9638760000     0.0016090000
   12      H       0.7739260000    -1.9643760000    -0.1859910000
   13      H      -0.1269740000    -2.4989760000     0.9255090000
   14      H      -0.4346740000    -2.6510760000    -0.8188910000
   15      H       1.1542260000     2.6104240000    -1.0954910000
 ----------------------------------------------------------------

   10    -629.4166772083      6.74e-07  Convergence criterion met
 Total energy in the final basis set =     -629.4166772083
        RIMP2         total energy =      -630.5939200472 a.u.

                    Orbital Energies (a.u.)
 --------------------------------------------------------------

 Alpha MOs
 -- Occupied --
-91.9769 -11.2832 -11.2531 -11.2478 -11.2271 -11.2256 -11.2227  -8.9770
 -6.6580  -6.6574  -6.6568  -1.1628  -1.0552  -0.9965  -0.9408  -0.8830
 -0.7451  -0.7196  -0.6460  -0.5885  -0.5792  -0.5670  -0.5511  -0.5460
 -0.5068  -0.4959  -0.4640  -0.4554  -0.3391  -0.2896

          Ground-State Mulliken Net Atomic Charges

     Atom                 Charge (a.u.)
  ----------------------------------------
      1 C                     0.053370
      2 C                    -0.318321
      3 C                     0.060765
      4 H                     0.175787
      5 C                    -0.275011
      6 S                    -0.002304
      7 C                    -0.270518
      8 H                     0.101696
      9 H                     0.107729
     10 H                     0.106944
     11 C                    -0.371363
     12 H                     0.146510
     13 H                     0.138638
     14 H                     0.153001
     15 H                     0.193078
  ----------------------------------------
  Sum of atomic charges =     0.000000

                    Cartesian Multipole Moments
 -----------------------------------------------------------------
    Charge (ESU x 10^10)
                -0.0000
    Dipole Moment (Debye)
         X       1.2192      Y      -0.6349      Z       1.3685
       Tot       1.9397
    Quadrupole Moments (Debye-Ang)
        XX     -53.3426     XY       2.0741     YY     -43.4323
        XZ       0.2994     YZ       0.6648     ZZ     -48.5660

 Total job time:  16.50s(wall), 765.73s(cpu)
        *  Thank you very much for using Q-Chem.  Have a nice day.  *
