 Q-Chem 5.4, Q-Chem, Inc., Pleasanton, CA (2021)
 Q-Chem 5.4.0 for Intel X86 EM64T Linux

User input:
--------------------------------------------------------------
$molecule
0 1
C	-0.566174	-0.107982	0.004703
C	0.470726	-1.044382	0.005003
C	1.783026	-0.498282	0.005203
H	0.281026	-2.128482	0.004903
C	1.769326	0.907918	0.005003
S	0.114926	1.511818	0.005303
C	3.026626	-1.343482	0.005203
H	2.774926	-2.421782	0.005203
H	3.657326	-1.148482	0.897703
H	3.657426	-1.148582	-0.887197
C	-1.990974	-0.378082	0.004203
H	-1.991074	-0.378182	-1.075797
H	-2.341874	-1.399482	0.004303
H	-2.821274	0.312418	0.004303
H	2.611426	1.610318	0.005203
$end

$rem
JOBTYPE		SP
EXCHANGE	HF
CORRELATION	pRIMP2
BASIS		cc-pvtz
METHOD		rimp2
AUX_BASIS	rimp2-cc-pvtz
SOLVENT_METHOD	PCM
PURECART	11111
SYMMETRY	false
MEM_TOTAL	110000
SCF_CONVERGENCE = 6
THRESH=10
GUI = 2
$end

$solvent
dielectric 4.90
$end
--------------------------------------------------------------

             Standard Nuclear Orientation (Angstroms)
    I     Atom           X                Y                Z
 ----------------------------------------------------------------
    1      C      -0.5661740000    -0.1079820000     0.0047030000
    2      C       0.4707260000    -1.0443820000     0.0050030000
    3      C       1.7830260000    -0.4982820000     0.0052030000
    4      H       0.2810260000    -2.1284820000     0.0049030000
    5      C       1.7693260000     0.9079180000     0.0050030000
    6      S       0.1149260000     1.5118180000     0.0053030000
    7      C       3.0266260000    -1.3434820000     0.0052030000
    8      H       2.7749260000    -2.4217820000     0.0052030000
    9      H       3.6573260000    -1.1484820000     0.8977030000
   10      H       3.6574260000    -1.1485820000    -0.8871970000
   11      C      -1.9909740000    -0.3780820000     0.0042030000
   12      H      -1.9910740000    -0.3781820000    -1.0757970000
   13      H      -2.3418740000    -1.3994820000     0.0043030000
   14      H      -2.8212740000     0.3124180000     0.0043030000
   15      H       2.6114260000     1.6103180000     0.0052030000
 ----------------------------------------------------------------

   10    -629.4261113430      6.85e-07  Convergence criterion met
 Total energy in the final basis set =     -629.4261113430
        RIMP2         total energy =      -630.6010209622 a.u.

                    Orbital Energies (a.u.)
 --------------------------------------------------------------

 Alpha MOs
 -- Occupied --
-91.9784 -11.2866 -11.2489 -11.2471 -11.2266 -11.2233 -11.2227  -8.9782
 -6.6592  -6.6586  -6.6580  -1.1599  -1.0546  -0.9974  -0.9413  -0.8838
 -0.7436  -0.7182  -0.6469  -0.5890  -0.5745  -0.5696  -0.5524  -0.5454
 -0.5074  -0.4952  -0.4659  -0.4562  -0.3382  -0.2893

          Ground-State Mulliken Net Atomic Charges

     Atom                 Charge (a.u.)
  ----------------------------------------
      1 C                     0.061205
      2 C                    -0.305389
      3 C                     0.048214
      4 H                     0.175677
      5 C                    -0.279658
      6 S                    -0.001020
      7 C                    -0.274612
      8 H                     0.101424
      9 H                     0.107308
     10 H                     0.107487
     11 C                    -0.383052
     12 H                     0.143392
     13 H                     0.144865
     14 H                     0.161070
     15 H                     0.193087
  ----------------------------------------
  Sum of atomic charges =     0.000000

                    Cartesian Multipole Moments
 -----------------------------------------------------------------
    Charge (ESU x 10^10)
                -0.0000
    Dipole Moment (Debye)
         X      -0.5016      Y      -1.5310      Z      -0.7449
       Tot       1.7749
    Quadrupole Moments (Debye-Ang)
        XX     -41.6604     XY       0.7569     YY     -48.5503
        XZ       1.5440     YZ       0.3145     ZZ     -54.4273

 Total job time:  25.17s(wall), 807.28s(cpu)
        *  Thank you very much for using Q-Chem.  Have a nice day.  *
