 Q-Chem 5.4, Q-Chem, Inc., Pleasanton, CA (2021)
 Q-Chem 5.4.0 for Intel X86 EM64T Linux

User input:
--------------------------------------------------------------
$molecule
0 1
C	-0.001080	-0.576386	0.004642
C	-0.004180	0.268214	1.117642
C	-0.008880	1.659214	0.825242
H	-0.002780	-0.119886	2.147542
C	-0.009480	1.907314	-0.558958
S	-0.004780	0.394214	-1.460058
C	-0.012480	2.723814	1.887042
H	-0.010980	2.275814	2.899642
H	-0.906980	3.376814	1.812742
H	0.877820	3.382714	1.812842
C	-0.001080	-2.026486	0.004642
H	0.693120	-2.026986	-0.822658
H	0.717420	-2.561586	0.607842
H	-0.639580	-2.713686	-0.530658
H	-0.012780	2.865414	-1.092458
$end

$rem
JOBTYPE		SP
EXCHANGE	HF
CORRELATION	pRIMP2
BASIS		cc-pvtz
METHOD		rimp2
AUX_BASIS	rimp2-cc-pvtz
SOLVENT_METHOD	PCM
PURECART	11111
SYMMETRY	false
MEM_TOTAL	110000
SCF_CONVERGENCE = 6
THRESH=10
GUI = 2
$end

$solvent
dielectric 4.90
$end
--------------------------------------------------------------

             Standard Nuclear Orientation (Angstroms)
    I     Atom           X                Y                Z
 ----------------------------------------------------------------
    1      C      -0.0010800000    -0.5763860000     0.0046420000
    2      C      -0.0041800000     0.2682140000     1.1176420000
    3      C      -0.0088800000     1.6592140000     0.8252420000
    4      H      -0.0027800000    -0.1198860000     2.1475420000
    5      C      -0.0094800000     1.9073140000    -0.5589580000
    6      S      -0.0047800000     0.3942140000    -1.4600580000
    7      C      -0.0124800000     2.7238140000     1.8870420000
    8      H      -0.0109800000     2.2758140000     2.8996420000
    9      H      -0.9069800000     3.3768140000     1.8127420000
   10      H       0.8778200000     3.3827140000     1.8128420000
   11      C      -0.0010800000    -2.0264860000     0.0046420000
   12      H       0.6931200000    -2.0269860000    -0.8226580000
   13      H       0.7174200000    -2.5615860000     0.6078420000
   14      H      -0.6395800000    -2.7136860000    -0.5306580000
   15      H      -0.0127800000     2.8654140000    -1.0924580000
 ----------------------------------------------------------------

   10    -629.4238579740      5.87e-07  Convergence criterion met
 Total energy in the final basis set =     -629.4238579740
        RIMP2         total energy =      -630.6001829088 a.u.

                    Orbital Energies (a.u.)
 --------------------------------------------------------------

 Alpha MOs
 -- Occupied --
-91.9793 -11.2795 -11.2553 -11.2471 -11.2272 -11.2268 -11.2190  -8.9792
 -6.6601  -6.6596  -6.6590  -1.1604  -1.0538  -0.9958  -0.9445  -0.8831
 -0.7464  -0.7181  -0.6468  -0.5906  -0.5755  -0.5672  -0.5516  -0.5463
 -0.5082  -0.4896  -0.4651  -0.4505  -0.3386  -0.2981

          Ground-State Mulliken Net Atomic Charges

     Atom                 Charge (a.u.)
  ----------------------------------------
      1 C                     0.046708
      2 C                    -0.269064
      3 C                     0.036740
      4 H                     0.180580
      5 C                    -0.260173
      6 S                    -0.004552
      7 C                    -0.273374
      8 H                     0.101715
      9 H                     0.107256
     10 H                     0.107039
     11 C                    -0.369769
     12 H                     0.119677
     13 H                     0.138452
     14 H                     0.143967
     15 H                     0.194797
  ----------------------------------------
  Sum of atomic charges =     0.000000

                    Cartesian Multipole Moments
 -----------------------------------------------------------------
    Charge (ESU x 10^10)
                -0.0000
    Dipole Moment (Debye)
         X       0.4403      Y      -0.2484      Z       0.9752
       Tot       1.0984
    Quadrupole Moments (Debye-Ang)
        XX     -54.0058     XY      -0.9445     YY     -41.9148
        XZ       0.3282     YZ       1.4592     ZZ     -48.7401

 Total job time:  16.12s(wall), 742.04s(cpu)
        *  Thank you very much for using Q-Chem.  Have a nice day.  *
