 Q-Chem 5.4, Q-Chem, Inc., Pleasanton, CA (2021)
 Q-Chem 5.4.0 for Intel X86 EM64T Linux

User input:
--------------------------------------------------------------
$molecule
0 1
C	0.000382	-0.576386	-0.003205
C	-0.002718	0.268214	1.109795
C	-0.007418	1.659214	0.817395
H	-0.001318	-0.119886	2.139695
C	-0.008018	1.907314	-0.566805
S	-0.003318	0.394214	-1.467905
C	-0.011018	2.723814	1.879195
H	-0.009518	2.275814	2.891795
H	-0.905518	3.376814	1.804895
H	0.879282	3.382714	1.804995
C	0.000382	-2.026486	-0.003205
H	0.540382	-2.026986	0.932095
H	-0.812218	-2.561586	0.465695
H	0.721782	-2.713686	-0.420105
H	-0.011318	2.865414	-1.100305
$end

$rem
JOBTYPE		SP
EXCHANGE	HF
CORRELATION	pRIMP2
BASIS		cc-pvtz
METHOD		rimp2
AUX_BASIS	rimp2-cc-pvtz
SOLVENT_METHOD	PCM
PURECART	11111
SYMMETRY	false
MEM_TOTAL	110000
SCF_CONVERGENCE = 6
THRESH=10
GUI = 2
$end

$solvent
dielectric 4.90
$end
--------------------------------------------------------------

             Standard Nuclear Orientation (Angstroms)
    I     Atom           X                Y                Z
 ----------------------------------------------------------------
    1      C       0.0003820000    -0.5763860000    -0.0032050000
    2      C      -0.0027180000     0.2682140000     1.1097950000
    3      C      -0.0074180000     1.6592140000     0.8173950000
    4      H      -0.0013180000    -0.1198860000     2.1396950000
    5      C      -0.0080180000     1.9073140000    -0.5668050000
    6      S      -0.0033180000     0.3942140000    -1.4679050000
    7      C      -0.0110180000     2.7238140000     1.8791950000
    8      H      -0.0095180000     2.2758140000     2.8917950000
    9      H      -0.9055180000     3.3768140000     1.8048950000
   10      H       0.8792820000     3.3827140000     1.8049950000
   11      C       0.0003820000    -2.0264860000    -0.0032050000
   12      H       0.5403820000    -2.0269860000     0.9320950000
   13      H      -0.8122180000    -2.5615860000     0.4656950000
   14      H       0.7217820000    -2.7136860000    -0.4201050000
   15      H      -0.0113180000     2.8654140000    -1.1003050000
 ----------------------------------------------------------------

   10    -629.4255483338      5.23e-07  Convergence criterion met
 Total energy in the final basis set =     -629.4255483338
        RIMP2         total energy =      -630.6028744576 a.u.

                    Orbital Energies (a.u.)
 --------------------------------------------------------------

 Alpha MOs
 -- Occupied --
-91.9764 -11.2803 -11.2549 -11.2474 -11.2308 -11.2274 -11.2184  -8.9763
 -6.6573  -6.6567  -6.6562  -1.1605  -1.0529  -0.9993  -0.9390  -0.8852
 -0.7422  -0.7221  -0.6475  -0.5912  -0.5763  -0.5674  -0.5588  -0.5418
 -0.5095  -0.4875  -0.4672  -0.4436  -0.3371  -0.3002

          Ground-State Mulliken Net Atomic Charges

     Atom                 Charge (a.u.)
  ----------------------------------------
      1 C                     0.060462
      2 C                    -0.268357
      3 C                     0.031017
      4 H                     0.176285
      5 C                    -0.258944
      6 S                    -0.006026
      7 C                    -0.274172
      8 H                     0.101298
      9 H                     0.107405
     10 H                     0.107168
     11 C                    -0.380017
     12 H                     0.127461
     13 H                     0.130138
     14 H                     0.153132
     15 H                     0.193151
  ----------------------------------------
  Sum of atomic charges =     0.000000

                    Cartesian Multipole Moments
 -----------------------------------------------------------------
    Charge (ESU x 10^10)
                -0.0000
    Dipole Moment (Debye)
         X       0.3238      Y      -0.2688      Z       2.0722
       Tot       2.1145
    Quadrupole Moments (Debye-Ang)
        XX     -53.8510     XY      -0.9149     YY     -42.0571
        XZ      -0.2816     YZ      -0.7853     ZZ     -48.8745

 Total job time:  19.38s(wall), 757.13s(cpu)
        *  Thank you very much for using Q-Chem.  Have a nice day.  *
