 Q-Chem 5.4, Q-Chem, Inc., Pleasanton, CA (2021)
 Q-Chem 5.4.0 for Intel X86 EM64T Linux

User input:
--------------------------------------------------------------
$molecule
0 1
C	-0.337075	-0.486609	0.006088
C	0.082525	0.246391	1.119088
C	0.774025	1.453391	0.826688
H	-0.110375	-0.090409	2.148988
C	0.897525	1.668591	-0.557512
S	0.145025	0.355791	-1.458612
C	1.303225	2.377091	1.888488
H	1.080425	1.988491	2.901088
H	0.854925	3.389991	1.814188
H	2.403625	2.502691	1.814288
C	-0.337075	-1.936709	0.006088
H	-0.524675	-1.937209	-1.057512
H	0.586825	-2.471809	-0.156612
H	-1.157575	-2.623909	0.151088
H	1.373625	2.499891	-1.091012
$end

$rem
JOBTYPE		SP
EXCHANGE	HF
CORRELATION	pRIMP2
BASIS		cc-pvtz
METHOD		rimp2
AUX_BASIS	rimp2-cc-pvtz
SOLVENT_METHOD	PCM
PURECART	11111
SYMMETRY	false
MEM_TOTAL	110000
SCF_CONVERGENCE = 6
THRESH=10
GUI = 2
$end

$solvent
dielectric 4.90
$end
--------------------------------------------------------------

             Standard Nuclear Orientation (Angstroms)
    I     Atom           X                Y                Z
 ----------------------------------------------------------------
    1      C      -0.3370750000    -0.4866090000     0.0060880000
    2      C       0.0825250000     0.2463910000     1.1190880000
    3      C       0.7740250000     1.4533910000     0.8266880000
    4      H      -0.1103750000    -0.0904090000     2.1489880000
    5      C       0.8975250000     1.6685910000    -0.5575120000
    6      S       0.1450250000     0.3557910000    -1.4586120000
    7      C       1.3032250000     2.3770910000     1.8884880000
    8      H       1.0804250000     1.9884910000     2.9010880000
    9      H       0.8549250000     3.3899910000     1.8141880000
   10      H       2.4036250000     2.5026910000     1.8142880000
   11      C      -0.3370750000    -1.9367090000     0.0060880000
   12      H      -0.5246750000    -1.9372090000    -1.0575120000
   13      H       0.5868250000    -2.4718090000    -0.1566120000
   14      H      -1.1575750000    -2.6239090000     0.1510880000
   15      H       1.3736250000     2.4998910000    -1.0910120000
 ----------------------------------------------------------------

   10    -629.4046214596      5.33e-07  Convergence criterion met
 Total energy in the final basis set =     -629.4046214596
        RIMP2         total energy =      -630.5860142685 a.u.

                    Orbital Energies (a.u.)
 --------------------------------------------------------------

 Alpha MOs
 -- Occupied --
-91.9799 -11.2675 -11.2640 -11.2475 -11.2333 -11.2273 -11.2143  -8.9799
 -6.6608  -6.6602  -6.6596  -1.1631  -1.0534  -0.9945  -0.9450  -0.8820
 -0.7490  -0.7201  -0.6452  -0.5908  -0.5759  -0.5666  -0.5526  -0.5462
 -0.5117  -0.4780  -0.4643  -0.4433  -0.3368  -0.3048

          Ground-State Mulliken Net Atomic Charges

     Atom                 Charge (a.u.)
  ----------------------------------------
      1 C                     0.001383
      2 C                    -0.237804
      3 C                     0.036972
      4 H                     0.177748
      5 C                    -0.244797
      6 S                     0.000303
      7 C                    -0.271047
      8 H                     0.102141
      9 H                     0.106795
     10 H                     0.106050
     11 C                    -0.358749
     12 H                     0.109778
     13 H                     0.131098
     14 H                     0.144015
     15 H                     0.196113
  ----------------------------------------
  Sum of atomic charges =     0.000000

                    Cartesian Multipole Moments
 -----------------------------------------------------------------
    Charge (ESU x 10^10)
                -0.0000
    Dipole Moment (Debye)
         X       0.8181      Y       0.1676      Z       0.9734
       Tot       1.2826
    Quadrupole Moments (Debye-Ang)
        XX     -51.6487     XY       4.2450     YY     -44.6488
        XZ       0.1240     YZ       1.2977     ZZ     -48.6851

 Total job time:  19.14s(wall), 749.89s(cpu)
        *  Thank you very much for using Q-Chem.  Have a nice day.  *
