 Q-Chem 5.4, Q-Chem, Inc., Pleasanton, CA (2021)
 Q-Chem 5.4.0 for Intel X86 EM64T Linux

User input:
--------------------------------------------------------------
$molecule
0 1
C	-0.332735	-0.486609	0.000015
C	0.086865	0.246391	1.113015
C	0.778365	1.453391	0.820615
H	-0.106035	-0.090409	2.142915
C	0.901865	1.668591	-0.563585
S	0.149365	0.355791	-1.464685
C	1.307565	2.377091	1.882415
H	1.084765	1.988491	2.895015
H	0.859265	3.389991	1.808115
H	2.407965	2.502691	1.808215
C	-0.332735	-1.936709	0.000015
H	-1.347635	-1.937209	0.369415
H	-0.653435	-2.471809	-0.881585
H	-0.047435	-2.623909	0.782815
H	1.377965	2.499891	-1.097085
$end

$rem
JOBTYPE		SP
EXCHANGE	HF
CORRELATION	pRIMP2
BASIS		cc-pvtz
METHOD		rimp2
AUX_BASIS	rimp2-cc-pvtz
SOLVENT_METHOD	PCM
PURECART	11111
SYMMETRY	false
MEM_TOTAL	110000
SCF_CONVERGENCE = 6
THRESH=10
GUI = 2
$end

$solvent
dielectric 4.90
$end
--------------------------------------------------------------

             Standard Nuclear Orientation (Angstroms)
    I     Atom           X                Y                Z
 ----------------------------------------------------------------
    1      C      -0.3327350000    -0.4866090000     0.0000150000
    2      C       0.0868650000     0.2463910000     1.1130150000
    3      C       0.7783650000     1.4533910000     0.8206150000
    4      H      -0.1060350000    -0.0904090000     2.1429150000
    5      C       0.9018650000     1.6685910000    -0.5635850000
    6      S       0.1493650000     0.3557910000    -1.4646850000
    7      C       1.3075650000     2.3770910000     1.8824150000
    8      H       1.0847650000     1.9884910000     2.8950150000
    9      H       0.8592650000     3.3899910000     1.8081150000
   10      H       2.4079650000     2.5026910000     1.8082150000
   11      C      -0.3327350000    -1.9367090000     0.0000150000
   12      H      -1.3476350000    -1.9372090000     0.3694150000
   13      H      -0.6534350000    -2.4718090000    -0.8815850000
   14      H      -0.0474350000    -2.6239090000     0.7828150000
   15      H       1.3779650000     2.4998910000    -1.0970850000
 ----------------------------------------------------------------

   10    -629.4026593070      5.56e-07  Convergence criterion met
 Total energy in the final basis set =     -629.4026593070
        RIMP2         total energy =      -630.5842172934 a.u.

                    Orbital Energies (a.u.)
 --------------------------------------------------------------

 Alpha MOs
 -- Occupied --
-91.9761 -11.2742 -11.2571 -11.2477 -11.2308 -11.2271 -11.2162  -8.9762
 -6.6571  -6.6565  -6.6560  -1.1615  -1.0527  -0.9970  -0.9404  -0.8840
 -0.7439  -0.7212  -0.6462  -0.5849  -0.5749  -0.5647  -0.5572  -0.5432
 -0.5120  -0.4942  -0.4589  -0.4469  -0.3370  -0.2899

          Ground-State Mulliken Net Atomic Charges

     Atom                 Charge (a.u.)
  ----------------------------------------
      1 C                     0.019415
      2 C                    -0.278566
      3 C                     0.045492
      4 H                     0.174939
      5 C                    -0.255989
      6 S                     0.005340
      7 C                    -0.270653
      8 H                     0.101515
      9 H                     0.107078
     10 H                     0.106661
     11 C                    -0.379589
     12 H                     0.133675
     13 H                     0.137763
     14 H                     0.160500
     15 H                     0.192418
  ----------------------------------------
  Sum of atomic charges =     0.000000

                    Cartesian Multipole Moments
 -----------------------------------------------------------------
    Charge (ESU x 10^10)
                -0.0000
    Dipole Moment (Debye)
         X       0.0743      Y      -0.3293      Z       1.7568
       Tot       1.7889
    Quadrupole Moments (Debye-Ang)
        XX     -51.8939     XY       5.2242     YY     -44.4817
        XZ       0.2763     YZ      -0.2767     ZZ     -48.3983

 Total job time:  17.34s(wall), 751.53s(cpu)
        *  Thank you very much for using Q-Chem.  Have a nice day.  *
