 Q-Chem 5.4, Q-Chem, Inc., Pleasanton, CA (2021)
 Q-Chem 5.4.0 for Intel X86 EM64T Linux

User input:
--------------------------------------------------------------
$molecule
0 1
C	-0.171415	-0.553870	0.005666
C	0.044185	0.262730	1.118666
C	0.399685	1.607530	0.826266
H	-0.054915	-0.112470	2.148566
C	0.463285	1.847430	-0.557934
S	0.076185	0.384630	-1.459034
C	0.671785	2.636830	1.888066
H	0.557185	2.203730	2.900666
H	-0.023315	3.499130	1.813766
H	1.702285	3.042930	1.813866
C	-0.171415	-2.003970	0.005666
H	-0.711415	-2.004470	-0.929634
H	0.641185	-2.539070	-0.463234
H	-0.892815	-2.691170	0.422566
H	0.708085	2.773630	-1.091434
$end

$rem
JOBTYPE		SP
EXCHANGE	HF
CORRELATION	pRIMP2
BASIS		cc-pvtz
METHOD		rimp2
AUX_BASIS	rimp2-cc-pvtz
SOLVENT_METHOD	PCM
PURECART	11111
SYMMETRY	false
MEM_TOTAL	110000
SCF_CONVERGENCE = 6
THRESH=10
GUI = 2
$end

$solvent
dielectric 4.90
$end
--------------------------------------------------------------

             Standard Nuclear Orientation (Angstroms)
    I     Atom           X                Y                Z
 ----------------------------------------------------------------
    1      C      -0.1714150000    -0.5538700000     0.0056660000
    2      C       0.0441850000     0.2627300000     1.1186660000
    3      C       0.3996850000     1.6075300000     0.8262660000
    4      H      -0.0549150000    -0.1124700000     2.1485660000
    5      C       0.4632850000     1.8474300000    -0.5579340000
    6      S       0.0761850000     0.3846300000    -1.4590340000
    7      C       0.6717850000     2.6368300000     1.8880660000
    8      H       0.5571850000     2.2037300000     2.9006660000
    9      H      -0.0233150000     3.4991300000     1.8137660000
   10      H       1.7022850000     3.0429300000     1.8138660000
   11      C      -0.1714150000    -2.0039700000     0.0056660000
   12      H      -0.7114150000    -2.0044700000    -0.9296340000
   13      H       0.6411850000    -2.5390700000    -0.4632340000
   14      H      -0.8928150000    -2.6911700000     0.4225660000
   15      H       0.7080850000     2.7736300000    -1.0914340000
 ----------------------------------------------------------------

   10    -629.4181018826      5.39e-07  Convergence criterion met
 Total energy in the final basis set =     -629.4181018826
        RIMP2         total energy =      -630.5959696358 a.u.

                    Orbital Energies (a.u.)
 --------------------------------------------------------------

 Alpha MOs
 -- Occupied --
-91.9807 -11.2755 -11.2581 -11.2472 -11.2283 -11.2269 -11.2171  -8.9804
 -6.6614  -6.6609  -6.6602  -1.1609  -1.0534  -0.9953  -0.9451  -0.8829
 -0.7471  -0.7185  -0.6467  -0.5905  -0.5748  -0.5662  -0.5534  -0.5460
 -0.5093  -0.4862  -0.4646  -0.4479  -0.3383  -0.3005

          Ground-State Mulliken Net Atomic Charges

     Atom                 Charge (a.u.)
  ----------------------------------------
      1 C                     0.024732
      2 C                    -0.252885
      3 C                     0.033900
      4 H                     0.179260
      5 C                    -0.253035
      6 S                    -0.002159
      7 C                    -0.272988
      8 H                     0.101847
      9 H                     0.106939
     10 H                     0.106830
     11 C                    -0.366245
     12 H                     0.114439
     13 H                     0.128556
     14 H                     0.155497
     15 H                     0.195314
  ----------------------------------------
  Sum of atomic charges =     0.000000

                    Cartesian Multipole Moments
 -----------------------------------------------------------------
    Charge (ESU x 10^10)
                -0.0000
    Dipole Moment (Debye)
         X       0.0723      Y      -0.0676      Z       0.9451
       Tot       0.9503
    Quadrupole Moments (Debye-Ang)
        XX     -53.2279     XY       3.0446     YY     -42.6370
        XZ      -0.1505     YZ       1.3124     ZZ     -48.7724

 Total job time:  19.32s(wall), 778.32s(cpu)
        *  Thank you very much for using Q-Chem.  Have a nice day.  *
