 Q-Chem 5.4, Q-Chem, Inc., Pleasanton, CA (2021)
 Q-Chem 5.4.0 for Intel X86 EM64T Linux

User input:
--------------------------------------------------------------
$molecule
0 1
C	-0.116024	-0.566489	0.006080
C	0.027576	0.265811	1.119080
C	0.264476	1.636511	0.826680
H	-0.038424	-0.116589	2.148980
C	0.306976	1.881011	-0.557520
S	0.048876	0.390011	-1.458620
C	0.445876	2.685511	1.888480
H	0.369476	2.244111	2.901080
H	-0.321724	3.484011	1.814180
H	1.436976	3.179911	1.814280
C	-0.116024	-2.016589	0.006080
H	-0.116024	-2.017089	-1.073920
H	0.822076	-2.551689	0.006280
H	-0.949224	-2.703789	0.006380
H	0.470076	2.825011	-1.091020
$end

$rem
JOBTYPE		SP
EXCHANGE	HF
CORRELATION	pRIMP2
BASIS		cc-pvtz
METHOD		rimp2
AUX_BASIS	rimp2-cc-pvtz
SOLVENT_METHOD	PCM
PURECART	11111
SYMMETRY	false
MEM_TOTAL	110000
SCF_CONVERGENCE = 6
THRESH=10
GUI = 2
$end

$solvent
dielectric 4.90
$end
--------------------------------------------------------------

             Standard Nuclear Orientation (Angstroms)
    I     Atom           X                Y                Z
 ----------------------------------------------------------------
    1      C      -0.1160240000    -0.5664890000     0.0060800000
    2      C       0.0275760000     0.2658110000     1.1190800000
    3      C       0.2644760000     1.6365110000     0.8266800000
    4      H      -0.0384240000    -0.1165890000     2.1489800000
    5      C       0.3069760000     1.8810110000    -0.5575200000
    6      S       0.0488760000     0.3900110000    -1.4586200000
    7      C       0.4458760000     2.6855110000     1.8884800000
    8      H       0.3694760000     2.2441110000     2.9010800000
    9      H      -0.3217240000     3.4840110000     1.8141800000
   10      H       1.4369760000     3.1799110000     1.8142800000
   11      C      -0.1160240000    -2.0165890000     0.0060800000
   12      H      -0.1160240000    -2.0170890000    -1.0739200000
   13      H       0.8220760000    -2.5516890000     0.0062800000
   14      H      -0.9492240000    -2.7037890000     0.0063800000
   15      H       0.4700760000     2.8250110000    -1.0910200000
 ----------------------------------------------------------------

   10    -629.4202183626      5.32e-07  Convergence criterion met
 Total energy in the final basis set =     -629.4202183626
        RIMP2         total energy =      -630.5981327966 a.u.

                    Orbital Energies (a.u.)
 --------------------------------------------------------------

 Alpha MOs
 -- Occupied --
-91.9811 -11.2744 -11.2588 -11.2472 -11.2291 -11.2270 -11.2166  -8.9808
 -6.6617  -6.6612  -6.6606  -1.1609  -1.0534  -0.9951  -0.9456  -0.8827
 -0.7479  -0.7184  -0.6470  -0.5910  -0.5753  -0.5658  -0.5535  -0.5464
 -0.5088  -0.4861  -0.4649  -0.4443  -0.3379  -0.3050

          Ground-State Mulliken Net Atomic Charges

     Atom                 Charge (a.u.)
  ----------------------------------------
      1 C                     0.046779
      2 C                    -0.260814
      3 C                     0.040767
      4 H                     0.178933
      5 C                    -0.259179
      6 S                    -0.002240
      7 C                    -0.272935
      8 H                     0.102055
      9 H                     0.106841
     10 H                     0.106849
     11 C                    -0.366742
     12 H                     0.111742
     13 H                     0.126785
     14 H                     0.145141
     15 H                     0.196018
  ----------------------------------------
  Sum of atomic charges =     0.000000

                    Cartesian Multipole Moments
 -----------------------------------------------------------------
    Charge (ESU x 10^10)
                -0.0000
    Dipole Moment (Debye)
         X       0.2807      Y       0.0429      Z       0.8718
       Tot       0.9168
    Quadrupole Moments (Debye-Ang)
        XX     -53.4494     XY       1.5909     YY     -42.4117
        XZ       0.1156     YZ       1.5633     ZZ     -48.8497

 Total job time:  16.08s(wall), 750.33s(cpu)
        *  Thank you very much for using Q-Chem.  Have a nice day.  *
