 Q-Chem 5.4, Q-Chem, Inc., Pleasanton, CA (2021)
 Q-Chem 5.4.0 for Intel X86 EM64T Linux

User input:
--------------------------------------------------------------
$molecule
0 1
C	-0.178289	-0.553870	0.001609
C	0.037311	0.262730	1.114609
C	0.392811	1.607530	0.822209
H	-0.061789	-0.112470	2.144509
C	0.456411	1.847430	-0.561991
S	0.069311	0.384630	-1.463091
C	0.664911	2.636830	1.884009
H	0.550311	2.203730	2.896609
H	-0.030189	3.499130	1.809709
H	1.695411	3.042930	1.809809
C	-0.178289	-2.003970	0.001609
H	0.885311	-2.004470	-0.185991
H	-0.015589	-2.539070	0.925509
H	-0.323289	-2.691170	-0.818891
H	0.701211	2.773630	-1.095491
$end

$rem
JOBTYPE		SP
EXCHANGE	HF
CORRELATION	pRIMP2
BASIS		cc-pvtz
METHOD		rimp2
AUX_BASIS	rimp2-cc-pvtz
SOLVENT_METHOD	PCM
PURECART	11111
SYMMETRY	false
MEM_TOTAL	110000
SCF_CONVERGENCE = 6
THRESH=10
GUI = 2
$end

$solvent
dielectric 4.90
$end
--------------------------------------------------------------

             Standard Nuclear Orientation (Angstroms)
    I     Atom           X                Y                Z
 ----------------------------------------------------------------
    1      C      -0.1782890000    -0.5538700000     0.0016090000
    2      C       0.0373110000     0.2627300000     1.1146090000
    3      C       0.3928110000     1.6075300000     0.8222090000
    4      H      -0.0617890000    -0.1124700000     2.1445090000
    5      C       0.4564110000     1.8474300000    -0.5619910000
    6      S       0.0693110000     0.3846300000    -1.4630910000
    7      C       0.6649110000     2.6368300000     1.8840090000
    8      H       0.5503110000     2.2037300000     2.8966090000
    9      H      -0.0301890000     3.4991300000     1.8097090000
   10      H       1.6954110000     3.0429300000     1.8098090000
   11      C      -0.1782890000    -2.0039700000     0.0016090000
   12      H       0.8853110000    -2.0044700000    -0.1859910000
   13      H      -0.0155890000    -2.5390700000     0.9255090000
   14      H      -0.3232890000    -2.6911700000    -0.8188910000
   15      H       0.7012110000     2.7736300000    -1.0954910000
 ----------------------------------------------------------------

   10    -629.4239046613      6.90e-07  Convergence criterion met
 Total energy in the final basis set =     -629.4239046613
        RIMP2         total energy =      -630.5993015409 a.u.

                    Orbital Energies (a.u.)
 --------------------------------------------------------------

 Alpha MOs
 -- Occupied --
-91.9777 -11.2855 -11.2506 -11.2474 -11.2268 -11.2238 -11.2235  -8.9777
 -6.6587  -6.6581  -6.6575  -1.1612  -1.0550  -0.9968  -0.9414  -0.8833
 -0.7445  -0.7186  -0.6467  -0.5891  -0.5774  -0.5676  -0.5511  -0.5461
 -0.5066  -0.4957  -0.4663  -0.4558  -0.3389  -0.2899

          Ground-State Mulliken Net Atomic Charges

     Atom                 Charge (a.u.)
  ----------------------------------------
      1 C                     0.059736
      2 C                    -0.319061
      3 C                     0.058332
      4 H                     0.176192
      5 C                    -0.279193
      6 S                    -0.002051
      7 C                    -0.272156
      8 H                     0.101495
      9 H                     0.107488
     10 H                     0.107332
     11 C                    -0.375201
     12 H                     0.145472
     13 H                     0.141833
     14 H                     0.156661
     15 H                     0.193122
  ----------------------------------------
  Sum of atomic charges =     0.000000

                    Cartesian Multipole Moments
 -----------------------------------------------------------------
    Charge (ESU x 10^10)
                -0.0000
    Dipole Moment (Debye)
         X       1.0031      Y      -0.7177      Z       1.3211
       Tot       1.8073
    Quadrupole Moments (Debye-Ang)
        XX     -54.1044     XY       0.7629     YY     -42.2701
        XZ       0.2469     YZ       0.7496     ZZ     -48.6098

 Total job time:  16.18s(wall), 746.38s(cpu)
        *  Thank you very much for using Q-Chem.  Have a nice day.  *
