 Q-Chem 5.4, Q-Chem, Inc., Pleasanton, CA (2021)
 Q-Chem 5.4.0 for Intel X86 EM64T Linux

User input:
--------------------------------------------------------------
$molecule
0 1
C	-0.172960	-0.553870	-0.003619
C	0.042640	0.262730	1.109381
C	0.398140	1.607530	0.816981
H	-0.056460	-0.112470	2.139281
C	0.461740	1.847430	-0.567219
S	0.074640	0.384630	-1.468319
C	0.670240	2.636830	1.878781
H	0.555640	2.203730	2.891381
H	-0.024860	3.499130	1.804481
H	1.700740	3.042930	1.804581
C	-0.172960	-2.003970	-0.003619
H	-0.172960	-2.004470	1.076381
H	-1.111060	-2.539070	-0.003819
H	0.660240	-2.691170	-0.003919
H	0.706540	2.773630	-1.100719
$end

$rem
JOBTYPE		SP
EXCHANGE	HF
CORRELATION	pRIMP2
BASIS		cc-pvtz
METHOD		rimp2
AUX_BASIS	rimp2-cc-pvtz
SOLVENT_METHOD	PCM
PURECART	11111
SYMMETRY	false
MEM_TOTAL	110000
SCF_CONVERGENCE = 6
THRESH=10
GUI = 2
$end

$solvent
dielectric 4.90
$end
--------------------------------------------------------------

             Standard Nuclear Orientation (Angstroms)
    I     Atom           X                Y                Z
 ----------------------------------------------------------------
    1      C      -0.1729600000    -0.5538700000    -0.0036190000
    2      C       0.0426400000     0.2627300000     1.1093810000
    3      C       0.3981400000     1.6075300000     0.8169810000
    4      H      -0.0564600000    -0.1124700000     2.1392810000
    5      C       0.4617400000     1.8474300000    -0.5672190000
    6      S       0.0746400000     0.3846300000    -1.4683190000
    7      C       0.6702400000     2.6368300000     1.8787810000
    8      H       0.5556400000     2.2037300000     2.8913810000
    9      H      -0.0248600000     3.4991300000     1.8044810000
   10      H       1.7007400000     3.0429300000     1.8045810000
   11      C      -0.1729600000    -2.0039700000    -0.0036190000
   12      H      -0.1729600000    -2.0044700000     1.0763810000
   13      H      -1.1110600000    -2.5390700000    -0.0038190000
   14      H       0.6602400000    -2.6911700000    -0.0039190000
   15      H       0.7065400000     2.7736300000    -1.1007190000
 ----------------------------------------------------------------

   10    -629.4213964862      4.84e-07  Convergence criterion met
 Total energy in the final basis set =     -629.4213964862
        RIMP2         total energy =      -630.6000522625 a.u.

                    Orbital Energies (a.u.)
 --------------------------------------------------------------

 Alpha MOs
 -- Occupied --
-91.9752 -11.2756 -11.2595 -11.2473 -11.2352 -11.2277 -11.2163  -8.9753
 -6.6562  -6.6557  -6.6552  -1.1615  -1.0523  -0.9996  -0.9385  -0.8855
 -0.7426  -0.7244  -0.6475  -0.5901  -0.5785  -0.5676  -0.5582  -0.5410
 -0.5114  -0.4831  -0.4678  -0.4377  -0.3375  -0.3054

          Ground-State Mulliken Net Atomic Charges

     Atom                 Charge (a.u.)
  ----------------------------------------
      1 C                     0.043437
      2 C                    -0.265242
      3 C                     0.034117
      4 H                     0.176198
      5 C                    -0.248269
      6 S                    -0.006124
      7 C                    -0.272394
      8 H                     0.101262
      9 H                     0.107110
     10 H                     0.107249
     11 C                    -0.361385
     12 H                     0.118870
     13 H                     0.128266
     14 H                     0.143028
     15 H                     0.193876
  ----------------------------------------
  Sum of atomic charges =     0.000000

                    Cartesian Multipole Moments
 -----------------------------------------------------------------
    Charge (ESU x 10^10)
                -0.0000
    Dipole Moment (Debye)
         X       0.3935      Y      -0.0002      Z       2.1782
       Tot       2.2134
    Quadrupole Moments (Debye-Ang)
        XX     -53.1507     XY       2.0915     YY     -42.8028
        XZ      -0.0366     YZ      -1.0355     ZZ     -48.9542

 Total job time:  19.22s(wall), 759.22s(cpu)
        *  Thank you very much for using Q-Chem.  Have a nice day.  *
