 Q-Chem 5.4, Q-Chem, Inc., Pleasanton, CA (2021)
 Q-Chem 5.4.0 for Intel X86 EM64T Linux

User input:
--------------------------------------------------------------
$molecule
0 1
C	-0.053961	-0.574004	-0.002733
C	0.016539	0.267696	1.110267
C	0.133139	1.653696	0.817867
H	-0.015861	-0.119104	2.140167
C	0.154139	1.900996	-0.566333
S	0.026939	0.393196	-1.467433
C	0.222339	2.714596	1.879667
H	0.184739	2.268196	2.892267
H	-0.611961	3.443096	1.805367
H	1.166639	3.293496	1.805467
C	-0.053961	-2.024104	-0.002733
H	-0.593961	-2.024604	0.932567
H	-0.866261	-2.559204	-0.472033
H	0.667739	-2.711304	0.413567
H	0.234339	2.855696	-1.099833
$end

$rem
JOBTYPE		SP
EXCHANGE	HF
CORRELATION	pRIMP2
BASIS		cc-pvtz
METHOD		rimp2
AUX_BASIS	rimp2-cc-pvtz
SOLVENT_METHOD	PCM
PURECART	11111
SYMMETRY	false
MEM_TOTAL	110000
SCF_CONVERGENCE = 6
THRESH=10
GUI = 2
$end

$solvent
dielectric 4.90
$end
--------------------------------------------------------------

             Standard Nuclear Orientation (Angstroms)
    I     Atom           X                Y                Z
 ----------------------------------------------------------------
    1      C      -0.0539610000    -0.5740040000    -0.0027330000
    2      C       0.0165390000     0.2676960000     1.1102670000
    3      C       0.1331390000     1.6536960000     0.8178670000
    4      H      -0.0158610000    -0.1191040000     2.1401670000
    5      C       0.1541390000     1.9009960000    -0.5663330000
    6      S       0.0269390000     0.3931960000    -1.4674330000
    7      C       0.2223390000     2.7145960000     1.8796670000
    8      H       0.1847390000     2.2681960000     2.8922670000
    9      H      -0.6119610000     3.4430960000     1.8053670000
   10      H       1.1666390000     3.2934960000     1.8054670000
   11      C      -0.0539610000    -2.0241040000    -0.0027330000
   12      H      -0.5939610000    -2.0246040000     0.9325670000
   13      H      -0.8662610000    -2.5592040000    -0.4720330000
   14      H       0.6677390000    -2.7113040000     0.4135670000
   15      H       0.2343390000     2.8556960000    -1.0998330000
 ----------------------------------------------------------------

   10    -629.4252676710      5.15e-07  Convergence criterion met
 Total energy in the final basis set =     -629.4252676710
        RIMP2         total energy =      -630.6026935745 a.u.

                    Orbital Energies (a.u.)
 --------------------------------------------------------------

 Alpha MOs
 -- Occupied --
-91.9765 -11.2791 -11.2560 -11.2473 -11.2313 -11.2274 -11.2181  -8.9764
 -6.6573  -6.6568  -6.6563  -1.1605  -1.0527  -0.9991  -0.9394  -0.8852
 -0.7424  -0.7224  -0.6483  -0.5896  -0.5762  -0.5656  -0.5597  -0.5418
 -0.5096  -0.4882  -0.4668  -0.4433  -0.3373  -0.3008

          Ground-State Mulliken Net Atomic Charges

     Atom                 Charge (a.u.)
  ----------------------------------------
      1 C                     0.056916
      2 C                    -0.269075
      3 C                     0.032590
      4 H                     0.176913
      5 C                    -0.257138
      6 S                    -0.006321
      7 C                    -0.274107
      8 H                     0.101337
      9 H                     0.107121
     10 H                     0.107356
     11 C                    -0.373737
     12 H                     0.125000
     13 H                     0.137379
     14 H                     0.142153
     15 H                     0.193613
  ----------------------------------------
  Sum of atomic charges =     0.000000

                    Cartesian Multipole Moments
 -----------------------------------------------------------------
    Charge (ESU x 10^10)
                -0.0000
    Dipole Moment (Debye)
         X      -0.2293      Y      -0.2024      Z       2.0654
       Tot       2.0879
    Quadrupole Moments (Debye-Ang)
        XX     -53.7652     XY       1.4639     YY     -42.1422
        XZ       0.2838     YZ      -0.9059     ZZ     -48.8532

 Total job time:  15.89s(wall), 763.94s(cpu)
        *  Thank you very much for using Q-Chem.  Have a nice day.  *
