 Q-Chem 5.4, Q-Chem, Inc., Pleasanton, CA (2021)
 Q-Chem 5.4.0 for Intel X86 EM64T Linux

User input:
--------------------------------------------------------------
$molecule
0 1
C	-0.001014	-0.576386	-0.002247
C	-0.004114	0.268214	1.110753
C	-0.008814	1.659214	0.818353
H	-0.002714	-0.119886	2.140653
C	-0.009414	1.907314	-0.565847
S	-0.004714	0.394214	-1.466947
C	-0.012414	2.723814	1.880153
H	-0.010914	2.275814	2.892753
H	-0.906914	3.376814	1.805853
H	0.877886	3.382714	1.805953
C	-0.001014	-2.026486	-0.002247
H	0.826286	-2.026986	0.691953
H	-0.604214	-2.561586	0.716253
H	0.534286	-2.713686	-0.640747
H	-0.012714	2.865414	-1.099347
$end

$rem
JOBTYPE		SP
EXCHANGE	HF
CORRELATION	pRIMP2
BASIS		cc-pvtz
METHOD		rimp2
AUX_BASIS	rimp2-cc-pvtz
SOLVENT_METHOD	PCM
PURECART	11111
SYMMETRY	false
MEM_TOTAL	110000
SCF_CONVERGENCE = 6
THRESH=10
GUI = 2
$end

$solvent
dielectric 4.90
$end
--------------------------------------------------------------

             Standard Nuclear Orientation (Angstroms)
    I     Atom           X                Y                Z
 ----------------------------------------------------------------
    1      C      -0.0010140000    -0.5763860000    -0.0022470000
    2      C      -0.0041140000     0.2682140000     1.1107530000
    3      C      -0.0088140000     1.6592140000     0.8183530000
    4      H      -0.0027140000    -0.1198860000     2.1406530000
    5      C      -0.0094140000     1.9073140000    -0.5658470000
    6      S      -0.0047140000     0.3942140000    -1.4669470000
    7      C      -0.0124140000     2.7238140000     1.8801530000
    8      H      -0.0109140000     2.2758140000     2.8927530000
    9      H      -0.9069140000     3.3768140000     1.8058530000
   10      H       0.8778860000     3.3827140000     1.8059530000
   11      C      -0.0010140000    -2.0264860000    -0.0022470000
   12      H       0.8262860000    -2.0269860000     0.6919530000
   13      H      -0.6042140000    -2.5615860000     0.7162530000
   14      H       0.5342860000    -2.7136860000    -0.6407470000
   15      H      -0.0127140000     2.8654140000    -1.0993470000
 ----------------------------------------------------------------

   10    -629.4250646109      5.89e-07  Convergence criterion met
 Total energy in the final basis set =     -629.4250646109
        RIMP2         total energy =      -630.6017241257 a.u.

                    Orbital Energies (a.u.)
 --------------------------------------------------------------

 Alpha MOs
 -- Occupied --
-91.9776 -11.2834 -11.2514 -11.2475 -11.2270 -11.2267 -11.2202  -8.9774
 -6.6583  -6.6578  -6.6572  -1.1601  -1.0535  -0.9987  -0.9394  -0.8847
 -0.7423  -0.7202  -0.6473  -0.5905  -0.5742  -0.5689  -0.5577  -0.5429
 -0.5088  -0.4901  -0.4663  -0.4498  -0.3370  -0.2944

          Ground-State Mulliken Net Atomic Charges

     Atom                 Charge (a.u.)
  ----------------------------------------
      1 C                     0.065265
      2 C                    -0.283452
      3 C                     0.037890
      4 H                     0.175636
      5 C                    -0.269786
      6 S                    -0.003605
      7 C                    -0.275016
      8 H                     0.101303
      9 H                     0.107421
     10 H                     0.107214
     11 C                    -0.386667
     12 H                     0.136187
     13 H                     0.137506
     14 H                     0.157462
     15 H                     0.192642
  ----------------------------------------
  Sum of atomic charges =     0.000000

                    Cartesian Multipole Moments
 -----------------------------------------------------------------
    Charge (ESU x 10^10)
                -0.0000
    Dipole Moment (Debye)
         X       0.5377      Y      -0.5249      Z       1.9003
       Tot       2.0435
    Quadrupole Moments (Debye-Ang)
        XX     -54.0897     XY      -1.3231     YY     -41.9393
        XZ      -0.3054     YZ      -0.4334     ZZ     -48.7215

 Total job time:  15.74s(wall), 749.16s(cpu)
        *  Thank you very much for using Q-Chem.  Have a nice day.  *
