 Q-Chem 5.4, Q-Chem, Inc., Pleasanton, CA (2021)
 Q-Chem 5.4.0 for Intel X86 EM64T Linux

User input:
--------------------------------------------------------------
$molecule
0 1
C	-0.514252	-0.335659	0.003333
C	0.130748	0.209641	1.116333
C	1.193348	1.107341	0.823933
H	-0.165652	-0.040859	2.146233
C	1.382948	1.267341	-0.560267
S	0.226948	0.291041	-1.461367
C	2.006548	1.794341	1.885733
H	1.664348	1.505341	2.898333
H	1.931748	2.899441	1.811433
H	3.083548	1.535941	1.811533
C	-0.514252	-1.785759	0.003333
H	-1.529152	-1.786259	-0.366067
H	-0.193152	-2.320859	-0.878167
H	-0.798952	-2.472959	0.786333
H	2.114748	1.885641	-1.093767
$end

$rem
JOBTYPE		SP
EXCHANGE	HF
CORRELATION	pRIMP2
BASIS		cc-pvtz
METHOD		rimp2
AUX_BASIS	rimp2-cc-pvtz
SOLVENT_METHOD	PCM
PURECART	11111
SYMMETRY	false
MEM_TOTAL	110000
SCF_CONVERGENCE = 6
THRESH=10
GUI = 2
$end

$solvent
dielectric 4.90
$end
--------------------------------------------------------------

             Standard Nuclear Orientation (Angstroms)
    I     Atom           X                Y                Z
 ----------------------------------------------------------------
    1      C      -0.5142520000    -0.3356590000     0.0033330000
    2      C       0.1307480000     0.2096410000     1.1163330000
    3      C       1.1933480000     1.1073410000     0.8239330000
    4      H      -0.1656520000    -0.0408590000     2.1462330000
    5      C       1.3829480000     1.2673410000    -0.5602670000
    6      S       0.2269480000     0.2910410000    -1.4613670000
    7      C       2.0065480000     1.7943410000     1.8857330000
    8      H       1.6643480000     1.5053410000     2.8983330000
    9      H       1.9317480000     2.8994410000     1.8114330000
   10      H       3.0835480000     1.5359410000     1.8115330000
   11      C      -0.5142520000    -1.7857590000     0.0033330000
   12      H      -1.5291520000    -1.7862590000    -0.3660670000
   13      H      -0.1931520000    -2.3208590000    -0.8781670000
   14      H      -0.7989520000    -2.4729590000     0.7863330000
   15      H       2.1147480000     1.8856410000    -1.0937670000
 ----------------------------------------------------------------

   11    -629.3630647337      4.21e-07  Convergence criterion met
 Total energy in the final basis set =     -629.3630647337
        RIMP2         total energy =      -630.5516765552 a.u.

                    Orbital Energies (a.u.)
 --------------------------------------------------------------

 Alpha MOs
 -- Occupied --
-91.9755 -11.2711 -11.2553 -11.2479 -11.2409 -11.2277 -11.2083  -8.9760
 -6.6569  -6.6562  -6.6558  -1.1666  -1.0527  -0.9951  -0.9414  -0.8822
 -0.7488  -0.7245  -0.6420  -0.5872  -0.5746  -0.5679  -0.5521  -0.5430
 -0.5152  -0.4888  -0.4571  -0.4357  -0.3359  -0.2873

          Ground-State Mulliken Net Atomic Charges

     Atom                 Charge (a.u.)
  ----------------------------------------
      1 C                    -0.069697
      2 C                    -0.173253
      3 C                     0.012681
      4 H                     0.182169
      5 C                    -0.216697
      6 S                     0.005503
      7 C                    -0.269790
      8 H                     0.101602
      9 H                     0.106816
     10 H                     0.104789
     11 C                    -0.389193
     12 H                     0.123287
     13 H                     0.137935
     14 H                     0.147141
     15 H                     0.196706
  ----------------------------------------
  Sum of atomic charges =     0.000000

                    Cartesian Multipole Moments
 -----------------------------------------------------------------
    Charge (ESU x 10^10)
                -0.0000
    Dipole Moment (Debye)
         X       1.1464      Y       0.0237      Z       1.4753
       Tot       1.8685
    Quadrupole Moments (Debye-Ang)
        XX     -49.1422     XY       5.7101     YY     -48.1527
        XZ      -0.2965     YZ       0.3184     ZZ     -47.9232

 Total job time:  20.51s(wall), 811.88s(cpu)
        *  Thank you very much for using Q-Chem.  Have a nice day.  *
