 Q-Chem 5.4, Q-Chem, Inc., Pleasanton, CA (2021)
 Q-Chem 5.4.0 for Intel X86 EM64T Linux

User input:
--------------------------------------------------------------
$molecule
0 1
C	-0.178150	-0.553870	0.002446
C	0.037450	0.262730	1.115446
C	0.392950	1.607530	0.823046
H	-0.061650	-0.112470	2.145346
C	0.456550	1.847430	-0.561154
S	0.069450	0.384630	-1.462254
C	0.665050	2.636830	1.884846
H	0.550450	2.203730	2.897446
H	-0.030050	3.499130	1.810546
H	1.695550	3.042930	1.810646
C	-0.178150	-2.003970	0.002446
H	0.836750	-2.004470	-0.366954
H	0.142550	-2.539070	0.884046
H	-0.463450	-2.691170	-0.780354
H	0.701350	2.773630	-1.094654
$end

$rem
JOBTYPE		SP
EXCHANGE	HF
CORRELATION	pRIMP2
BASIS		cc-pvtz
METHOD		rimp2
AUX_BASIS	rimp2-cc-pvtz
SOLVENT_METHOD	PCM
PURECART	11111
SYMMETRY	false
MEM_TOTAL	110000
SCF_CONVERGENCE = 6
THRESH=10
GUI = 2
$end

$solvent
dielectric 4.90
$end
--------------------------------------------------------------

             Standard Nuclear Orientation (Angstroms)
    I     Atom           X                Y                Z
 ----------------------------------------------------------------
    1      C      -0.1781500000    -0.5538700000     0.0024460000
    2      C       0.0374500000     0.2627300000     1.1154460000
    3      C       0.3929500000     1.6075300000     0.8230460000
    4      H      -0.0616500000    -0.1124700000     2.1453460000
    5      C       0.4565500000     1.8474300000    -0.5611540000
    6      S       0.0694500000     0.3846300000    -1.4622540000
    7      C       0.6650500000     2.6368300000     1.8848460000
    8      H       0.5504500000     2.2037300000     2.8974460000
    9      H      -0.0300500000     3.4991300000     1.8105460000
   10      H       1.6955500000     3.0429300000     1.8106460000
   11      C      -0.1781500000    -2.0039700000     0.0024460000
   12      H       0.8367500000    -2.0044700000    -0.3669540000
   13      H       0.1425500000    -2.5390700000     0.8840460000
   14      H      -0.4634500000    -2.6911700000    -0.7803540000
   15      H       0.7013500000     2.7736300000    -1.0946540000
 ----------------------------------------------------------------

   10    -629.4235504759      6.82e-07  Convergence criterion met
 Total energy in the final basis set =     -629.4235504759
        RIMP2         total energy =      -630.5990743060 a.u.

                    Orbital Energies (a.u.)
 --------------------------------------------------------------

 Alpha MOs
 -- Occupied --
-91.9774 -11.2844 -11.2517 -11.2472 -11.2268 -11.2248 -11.2227  -8.9774
 -6.6584  -6.6579  -6.6572  -1.1612  -1.0549  -0.9964  -0.9421  -0.8831
 -0.7451  -0.7186  -0.6466  -0.5894  -0.5775  -0.5670  -0.5505  -0.5466
 -0.5068  -0.4954  -0.4658  -0.4548  -0.3391  -0.2911

          Ground-State Mulliken Net Atomic Charges

     Atom                 Charge (a.u.)
  ----------------------------------------
      1 C                     0.059568
      2 C                    -0.318629
      3 C                     0.058687
      4 H                     0.177690
      5 C                    -0.275262
      6 S                    -0.003918
      7 C                    -0.271992
      8 H                     0.101496
      9 H                     0.107519
     10 H                     0.107307
     11 C                    -0.373505
     12 H                     0.141338
     13 H                     0.141702
     14 H                     0.154717
     15 H                     0.193281
  ----------------------------------------
  Sum of atomic charges =     0.000000

                    Cartesian Multipole Moments
 -----------------------------------------------------------------
    Charge (ESU x 10^10)
                -0.0000
    Dipole Moment (Debye)
         X       0.9781      Y      -0.6349      Z       1.2236
       Tot       1.6903
    Quadrupole Moments (Debye-Ang)
        XX     -54.0321     XY       0.8475     YY     -42.3117
        XZ       0.3382     YZ       0.9806     ZZ     -48.6317

 Total job time:  16.18s(wall), 776.05s(cpu)
        *  Thank you very much for using Q-Chem.  Have a nice day.  *
