 Q-Chem 5.4, Q-Chem, Inc., Pleasanton, CA (2021)
 Q-Chem 5.4.0 for Intel X86 EM64T Linux

User input:
--------------------------------------------------------------
$molecule
0 1
C	-0.286833	-0.513776	-0.003205
C	0.067367	0.253024	1.109795
C	0.650967	1.515624	0.817395
H	-0.095533	-0.099276	2.139695
C	0.755167	1.740824	-0.566805
S	0.120067	0.367424	-1.467905
C	1.097567	2.482024	1.879195
H	0.909567	2.075424	2.891795
H	0.562767	3.451924	1.804895
H	2.182967	2.703024	1.804995
C	-0.286833	-1.963876	-0.003205
H	0.253167	-1.964376	0.932095
H	-1.099433	-2.498976	0.465695
H	0.434567	-2.651076	-0.420105
H	1.157067	2.610424	-1.100305
$end

$rem
JOBTYPE		SP
EXCHANGE	HF
CORRELATION	pRIMP2
BASIS		cc-pvtz
METHOD		rimp2
AUX_BASIS	rimp2-cc-pvtz
SOLVENT_METHOD	PCM
PURECART	11111
SYMMETRY	false
MEM_TOTAL	110000
SCF_CONVERGENCE = 6
THRESH=10
GUI = 2
$end

$solvent
dielectric 4.90
$end
--------------------------------------------------------------

             Standard Nuclear Orientation (Angstroms)
    I     Atom           X                Y                Z
 ----------------------------------------------------------------
    1      C      -0.2868330000    -0.5137760000    -0.0032050000
    2      C       0.0673670000     0.2530240000     1.1097950000
    3      C       0.6509670000     1.5156240000     0.8173950000
    4      H      -0.0955330000    -0.0992760000     2.1396950000
    5      C       0.7551670000     1.7408240000    -0.5668050000
    6      S       0.1200670000     0.3674240000    -1.4679050000
    7      C       1.0975670000     2.4820240000     1.8791950000
    8      H       0.9095670000     2.0754240000     2.8917950000
    9      H       0.5627670000     3.4519240000     1.8048950000
   10      H       2.1829670000     2.7030240000     1.8049950000
   11      C      -0.2868330000    -1.9638760000    -0.0032050000
   12      H       0.2531670000    -1.9643760000     0.9320950000
   13      H      -1.0994330000    -2.4989760000     0.4656950000
   14      H       0.4345670000    -2.6510760000    -0.4201050000
   15      H       1.1570670000     2.6104240000    -1.1003050000
 ----------------------------------------------------------------

   10    -629.4098565879      5.11e-07  Convergence criterion met
 Total energy in the final basis set =     -629.4098565879
        RIMP2         total energy =      -630.5904850407 a.u.

                    Orbital Energies (a.u.)
 --------------------------------------------------------------

 Alpha MOs
 -- Occupied --
-91.9771 -11.2757 -11.2579 -11.2477 -11.2324 -11.2276 -11.2153  -8.9770
 -6.6579  -6.6574  -6.6569  -1.1626  -1.0529  -0.9992  -0.9374  -0.8846
 -0.7427  -0.7237  -0.6461  -0.5896  -0.5767  -0.5705  -0.5565  -0.5418
 -0.5119  -0.4783  -0.4682  -0.4449  -0.3356  -0.2989

          Ground-State Mulliken Net Atomic Charges

     Atom                 Charge (a.u.)
  ----------------------------------------
      1 C                     0.028263
      2 C                    -0.255942
      3 C                     0.030611
      4 H                     0.174920
      5 C                    -0.252793
      6 S                     0.000001
      7 C                    -0.271242
      8 H                     0.101394
      9 H                     0.107278
     10 H                     0.106554
     11 C                    -0.382065
     12 H                     0.135844
     13 H                     0.128388
     14 H                     0.155846
     15 H                     0.192942
  ----------------------------------------
  Sum of atomic charges =     0.000000

                    Cartesian Multipole Moments
 -----------------------------------------------------------------
    Charge (ESU x 10^10)
                -0.0000
    Dipole Moment (Debye)
         X       0.9700      Y      -0.1604      Z       2.0908
       Tot       2.3105
    Quadrupole Moments (Debye-Ang)
        XX     -52.6465     XY       2.4983     YY     -44.0175
        XZ      -0.2866     YZ      -0.8233     ZZ     -48.6867

 Total job time:  18.74s(wall), 755.53s(cpu)
        *  Thank you very much for using Q-Chem.  Have a nice day.  *
