 Q-Chem 5.4, Q-Chem, Inc., Pleasanton, CA (2021)
 Q-Chem 5.4.0 for Intel X86 EM64T Linux

User input:
--------------------------------------------------------------
$molecule
0 1
C	-0.582157	-0.238938	0.000015
C	0.147743	0.186062	1.113015
C	1.350043	0.885562	0.820615
H	-0.187657	-0.009138	2.142915
C	1.564643	1.010262	-0.563585
S	0.256543	0.249562	-1.464685
C	2.270243	1.420962	1.882415
H	1.882943	1.195762	2.895015
H	2.388443	2.522262	1.808115
H	3.286043	0.979462	1.808215
C	-0.582157	-1.689038	0.000015
H	-1.597057	-1.689538	0.369415
H	-0.902857	-2.224138	-0.881585
H	-0.296857	-2.376238	0.782815
H	2.392643	1.492062	-1.097085
$end

$rem
JOBTYPE		SP
EXCHANGE	HF
CORRELATION	pRIMP2
BASIS		cc-pvtz
METHOD		rimp2
AUX_BASIS	rimp2-cc-pvtz
SOLVENT_METHOD	PCM
PURECART	11111
SYMMETRY	false
MEM_TOTAL	110000
SCF_CONVERGENCE = 6
THRESH=10
GUI = 2
$end

$solvent
dielectric 4.90
$end
--------------------------------------------------------------

             Standard Nuclear Orientation (Angstroms)
    I     Atom           X                Y                Z
 ----------------------------------------------------------------
    1      C      -0.5821570000    -0.2389380000     0.0000150000
    2      C       0.1477430000     0.1860620000     1.1130150000
    3      C       1.3500430000     0.8855620000     0.8206150000
    4      H      -0.1876570000    -0.0091380000     2.1429150000
    5      C       1.5646430000     1.0102620000    -0.5635850000
    6      S       0.2565430000     0.2495620000    -1.4646850000
    7      C       2.2702430000     1.4209620000     1.8824150000
    8      H       1.8829430000     1.1957620000     2.8950150000
    9      H       2.3884430000     2.5222620000     1.8081150000
   10      H       3.2860430000     0.9794620000     1.8082150000
   11      C      -0.5821570000    -1.6890380000     0.0000150000
   12      H      -1.5970570000    -1.6895380000     0.3694150000
   13      H      -0.9028570000    -2.2241380000    -0.8815850000
   14      H      -0.2968570000    -2.3762380000     0.7828150000
   15      H       2.3926430000     1.4920620000    -1.0970850000
 ----------------------------------------------------------------

   11    -629.3419362740      5.93e-07  Convergence criterion met
 Total energy in the final basis set =     -629.3419362740
        RIMP2         total energy =      -630.5340843345 a.u.

                    Orbital Energies (a.u.)
 --------------------------------------------------------------

 Alpha MOs
 -- Occupied --
-91.9710 -11.2808 -11.2531 -11.2490 -11.2419 -11.2289 -11.2061  -8.9721
 -6.6529  -6.6519  -6.6517  -1.1711  -1.0534  -0.9976  -0.9376  -0.8831
 -0.7494  -0.7301  -0.6428  -0.5864  -0.5790  -0.5644  -0.5531  -0.5416
 -0.5186  -0.4919  -0.4589  -0.4176  -0.3350  -0.2878

          Ground-State Mulliken Net Atomic Charges

     Atom                 Charge (a.u.)
  ----------------------------------------
      1 C                    -0.105896
      2 C                    -0.132104
      3 C                    -0.016449
      4 H                     0.183379
      5 C                    -0.182570
      6 S                     0.012804
      7 C                    -0.268499
      8 H                     0.101899
      9 H                     0.106695
     10 H                     0.104773
     11 C                    -0.397540
     12 H                     0.124758
     13 H                     0.128444
     14 H                     0.144520
     15 H                     0.195786
  ----------------------------------------
  Sum of atomic charges =     0.000000

                    Cartesian Multipole Moments
 -----------------------------------------------------------------
    Charge (ESU x 10^10)
                -0.0000
    Dipole Moment (Debye)
         X       1.8147      Y       0.0690      Z       2.0028
       Tot       2.7036
    Quadrupole Moments (Debye-Ang)
        XX     -47.7528     XY       5.2782     YY     -50.0352
        XZ      -0.0816     YZ      -0.2461     ZZ     -47.6357

 Total job time:  17.47s(wall), 845.73s(cpu)
        *  Thank you very much for using Q-Chem.  Have a nice day.  *
