 Q-Chem 5.4, Q-Chem, Inc., Pleasanton, CA (2021)
 Q-Chem 5.4.0 for Intel X86 EM64T Linux

User input:
--------------------------------------------------------------
$molecule
0 1
C	-0.054037	-0.574004	0.005249
C	0.016463	0.267696	1.118249
C	0.133063	1.653696	0.825849
H	-0.015937	-0.119104	2.148149
C	0.154063	1.900996	-0.558351
S	0.026863	0.393196	-1.459451
C	0.222263	2.714596	1.887649
H	0.184663	2.268196	2.900249
H	-0.612037	3.443096	1.813349
H	1.166563	3.293496	1.813449
C	-0.054037	-2.024104	0.005249
H	-0.748237	-2.024604	-0.822051
H	0.664763	-2.559204	-0.597651
H	-0.692137	-2.711304	0.541049
H	0.234263	2.855696	-1.091851
$end

$rem
JOBTYPE		SP
EXCHANGE	HF
CORRELATION	pRIMP2
BASIS		cc-pvtz
METHOD		rimp2
AUX_BASIS	rimp2-cc-pvtz
SOLVENT_METHOD	PCM
PURECART	11111
SYMMETRY	false
MEM_TOTAL	110000
SCF_CONVERGENCE = 6
THRESH=10
GUI = 2
$end

$solvent
dielectric 4.90
$end
--------------------------------------------------------------

             Standard Nuclear Orientation (Angstroms)
    I     Atom           X                Y                Z
 ----------------------------------------------------------------
    1      C      -0.0540370000    -0.5740040000     0.0052490000
    2      C       0.0164630000     0.2676960000     1.1182490000
    3      C       0.1330630000     1.6536960000     0.8258490000
    4      H      -0.0159370000    -0.1191040000     2.1481490000
    5      C       0.1540630000     1.9009960000    -0.5583510000
    6      S       0.0268630000     0.3931960000    -1.4594510000
    7      C       0.2222630000     2.7145960000     1.8876490000
    8      H       0.1846630000     2.2681960000     2.9002490000
    9      H      -0.6120370000     3.4430960000     1.8133490000
   10      H       1.1665630000     3.2934960000     1.8134490000
   11      C      -0.0540370000    -2.0241040000     0.0052490000
   12      H      -0.7482370000    -2.0246040000    -0.8220510000
   13      H       0.6647630000    -2.5592040000    -0.5976510000
   14      H      -0.6921370000    -2.7113040000     0.5410490000
   15      H       0.2342630000     2.8556960000    -1.0918510000
 ----------------------------------------------------------------

   10    -629.4226826955      5.91e-07  Convergence criterion met
 Total energy in the final basis set =     -629.4226826955
        RIMP2         total energy =      -630.5990249105 a.u.

                    Orbital Energies (a.u.)
 --------------------------------------------------------------

 Alpha MOs
 -- Occupied --
-91.9801 -11.2791 -11.2553 -11.2470 -11.2268 -11.2263 -11.2188  -8.9799
 -6.6609  -6.6604  -6.6597  -1.1603  -1.0538  -0.9956  -0.9448  -0.8830
 -0.7464  -0.7179  -0.6475  -0.5899  -0.5750  -0.5657  -0.5533  -0.5461
 -0.5083  -0.4895  -0.4652  -0.4506  -0.3387  -0.2977

          Ground-State Mulliken Net Atomic Charges

     Atom                 Charge (a.u.)
  ----------------------------------------
      1 C                     0.042184
      2 C                    -0.266774
      3 C                     0.035839
      4 H                     0.180011
      5 C                    -0.259008
      6 S                    -0.004047
      7 C                    -0.273596
      8 H                     0.101737
      9 H                     0.107016
     10 H                     0.107161
     11 C                    -0.372053
     12 H                     0.119517
     13 H                     0.129927
     14 H                     0.156890
     15 H                     0.195195
  ----------------------------------------
  Sum of atomic charges =     0.000000

                    Cartesian Multipole Moments
 -----------------------------------------------------------------
    Charge (ESU x 10^10)
                -0.0000
    Dipole Moment (Debye)
         X      -0.3130      Y      -0.2462      Z       0.9560
       Tot       1.0357
    Quadrupole Moments (Debye-Ang)
        XX     -53.8948     XY       1.7949     YY     -41.9543
        XZ      -0.2795     YZ       1.2927     ZZ     -48.7551

 Total job time:  22.44s(wall), 760.66s(cpu)
        *  Thank you very much for using Q-Chem.  Have a nice day.  *
