 Q-Chem 5.4, Q-Chem, Inc., Pleasanton, CA (2021)
 Q-Chem 5.4.0 for Intel X86 EM64T Linux

User input:
--------------------------------------------------------------
$molecule
0 1
C	-0.234721	-0.536244	0.002446
C	0.051279	0.258456	1.115446
C	0.522579	1.567156	0.823046
H	-0.080221	-0.106644	2.145346
C	0.606879	1.800556	-0.561154
S	0.093779	0.377056	-1.462254
C	0.883379	2.568756	1.884846
H	0.731479	2.147356	2.897446
H	0.266079	3.488456	1.810546
H	1.945279	2.883556	1.810646
C	-0.234721	-1.986344	0.002446
H	0.780179	-1.986844	-0.366954
H	0.085979	-2.521444	0.884046
H	-0.520021	-2.673544	-0.780354
H	0.931379	2.701956	-1.094654
$end

$rem
JOBTYPE		SP
EXCHANGE	HF
CORRELATION	pRIMP2
BASIS		cc-pvtz
METHOD		rimp2
AUX_BASIS	rimp2-cc-pvtz
SOLVENT_METHOD	PCM
PURECART	11111
SYMMETRY	false
MEM_TOTAL	110000
SCF_CONVERGENCE = 6
THRESH=10
GUI = 2
$end

$solvent
dielectric 4.90
$end
--------------------------------------------------------------

             Standard Nuclear Orientation (Angstroms)
    I     Atom           X                Y                Z
 ----------------------------------------------------------------
    1      C      -0.2347210000    -0.5362440000     0.0024460000
    2      C       0.0512790000     0.2584560000     1.1154460000
    3      C       0.5225790000     1.5671560000     0.8230460000
    4      H      -0.0802210000    -0.1066440000     2.1453460000
    5      C       0.6068790000     1.8005560000    -0.5611540000
    6      S       0.0937790000     0.3770560000    -1.4622540000
    7      C       0.8833790000     2.5687560000     1.8848460000
    8      H       0.7314790000     2.1473560000     2.8974460000
    9      H       0.2660790000     3.4884560000     1.8105460000
   10      H       1.9452790000     2.8835560000     1.8106460000
   11      C      -0.2347210000    -1.9863440000     0.0024460000
   12      H       0.7801790000    -1.9868440000    -0.3669540000
   13      H       0.0859790000    -2.5214440000     0.8840460000
   14      H      -0.5200210000    -2.6735440000    -0.7803540000
   15      H       0.9313790000     2.7019560000    -1.0946540000
 ----------------------------------------------------------------

   10    -629.4204821850      6.80e-07  Convergence criterion met
 Total energy in the final basis set =     -629.4204821850
        RIMP2         total energy =      -630.5967657167 a.u.

                    Orbital Energies (a.u.)
 --------------------------------------------------------------

 Alpha MOs
 -- Occupied --
-91.9769 -11.2834 -11.2528 -11.2474 -11.2269 -11.2257 -11.2224  -8.9770
 -6.6580  -6.6575  -6.6568  -1.1620  -1.0550  -0.9963  -0.9419  -0.8829
 -0.7454  -0.7190  -0.6463  -0.5892  -0.5783  -0.5667  -0.5505  -0.5465
 -0.5069  -0.4955  -0.4649  -0.4545  -0.3393  -0.2910

          Ground-State Mulliken Net Atomic Charges

     Atom                 Charge (a.u.)
  ----------------------------------------
      1 C                     0.058071
      2 C                    -0.321766
      3 C                     0.060967
      4 H                     0.177331
      5 C                    -0.273636
      6 S                    -0.003877
      7 C                    -0.271171
      8 H                     0.101596
      9 H                     0.107588
     10 H                     0.107203
     11 C                    -0.371918
     12 H                     0.142559
     13 H                     0.140875
     14 H                     0.153051
     15 H                     0.193127
  ----------------------------------------
  Sum of atomic charges =     0.000000

                    Cartesian Multipole Moments
 -----------------------------------------------------------------
    Charge (ESU x 10^10)
                -0.0000
    Dipole Moment (Debye)
         X       1.0877      Y      -0.6034      Z       1.2470
       Tot       1.7613
    Quadrupole Moments (Debye-Ang)
        XX     -53.6944     XY       1.5308     YY     -42.8331
        XZ       0.3684     YZ       0.9443     ZZ     -48.6137

 Total job time:  15.98s(wall), 751.49s(cpu)
        *  Thank you very much for using Q-Chem.  Have a nice day.  *
