 Q-Chem 5.4, Q-Chem, Inc., Pleasanton, CA (2021)
 Q-Chem 5.4.0 for Intel X86 EM64T Linux

User input:
--------------------------------------------------------------
$molecule
0 1
C	0.007116	-0.576386	0.000015
C	0.004016	0.268214	1.113015
C	-0.000684	1.659214	0.820615
H	0.005416	-0.119886	2.142915
C	-0.001284	1.907314	-0.563585
S	0.003416	0.394214	-1.464685
C	-0.004284	2.723814	1.882415
H	-0.002784	2.275814	2.895015
H	-0.898784	3.376814	1.808115
H	0.886016	3.382714	1.808215
C	0.007116	-2.026486	0.000015
H	-1.007784	-2.026986	0.369415
H	-0.313584	-2.561586	-0.881585
H	0.292416	-2.713686	0.782815
H	-0.004584	2.865414	-1.097085
$end

$rem
JOBTYPE		SP
EXCHANGE	HF
CORRELATION	pRIMP2
BASIS		cc-pvtz
METHOD		rimp2
AUX_BASIS	rimp2-cc-pvtz
SOLVENT_METHOD	PCM
PURECART	11111
SYMMETRY	false
MEM_TOTAL	110000
SCF_CONVERGENCE = 6
THRESH=10
GUI = 2
$end

$solvent
dielectric 4.90
$end
--------------------------------------------------------------

             Standard Nuclear Orientation (Angstroms)
    I     Atom           X                Y                Z
 ----------------------------------------------------------------
    1      C       0.0071160000    -0.5763860000     0.0000150000
    2      C       0.0040160000     0.2682140000     1.1130150000
    3      C      -0.0006840000     1.6592140000     0.8206150000
    4      H       0.0054160000    -0.1198860000     2.1429150000
    5      C      -0.0012840000     1.9073140000    -0.5635850000
    6      S       0.0034160000     0.3942140000    -1.4646850000
    7      C      -0.0042840000     2.7238140000     1.8824150000
    8      H      -0.0027840000     2.2758140000     2.8950150000
    9      H      -0.8987840000     3.3768140000     1.8081150000
   10      H       0.8860160000     3.3827140000     1.8082150000
   11      C       0.0071160000    -2.0264860000     0.0000150000
   12      H      -1.0077840000    -2.0269860000     0.3694150000
   13      H      -0.3135840000    -2.5615860000    -0.8815850000
   14      H       0.2924160000    -2.7136860000     0.7828150000
   15      H      -0.0045840000     2.8654140000    -1.0970850000
 ----------------------------------------------------------------

   10    -629.4251286838      6.56e-07  Convergence criterion met
 Total energy in the final basis set =     -629.4251286838
        RIMP2         total energy =      -630.6006980799 a.u.

                    Orbital Energies (a.u.)
 --------------------------------------------------------------

 Alpha MOs
 -- Occupied --
-91.9794 -11.2851 -11.2494 -11.2473 -11.2266 -11.2229 -11.2221  -8.9790
 -6.6600  -6.6595  -6.6589  -1.1598  -1.0542  -0.9978  -0.9407  -0.8840
 -0.7429  -0.7189  -0.6486  -0.5874  -0.5730  -0.5671  -0.5570  -0.5444
 -0.5074  -0.4943  -0.4660  -0.4553  -0.3376  -0.2905

          Ground-State Mulliken Net Atomic Charges

     Atom                 Charge (a.u.)
  ----------------------------------------
      1 C                     0.063706
      2 C                    -0.302057
      3 C                     0.046937
      4 H                     0.173913
      5 C                    -0.278114
      6 S                     0.003386
      7 C                    -0.274915
      8 H                     0.101453
      9 H                     0.107327
     10 H                     0.107243
     11 C                    -0.384078
     12 H                     0.142952
     13 H                     0.139299
     14 H                     0.159866
     15 H                     0.193082
  ----------------------------------------
  Sum of atomic charges =     0.000000

                    Cartesian Multipole Moments
 -----------------------------------------------------------------
    Charge (ESU x 10^10)
                -0.0000
    Dipole Moment (Debye)
         X      -0.7006      Y      -0.6891      Z       1.6396
       Tot       1.9115
    Quadrupole Moments (Debye-Ang)
        XX     -54.3325     XY       1.4365     YY     -41.7871
        XZ       0.1676     YZ      -0.1992     ZZ     -48.5797

 Total job time:  19.24s(wall), 770.71s(cpu)
        *  Thank you very much for using Q-Chem.  Have a nice day.  *
