 Q-Chem 5.4, Q-Chem, Inc., Pleasanton, CA (2021)
 Q-Chem 5.4.0 for Intel X86 EM64T Linux

User input:
--------------------------------------------------------------
$molecule
0 1
C	-0.298596	-0.514588	0.000759
C	0.055604	0.252212	1.113759
C	0.639204	1.514812	0.821359
H	-0.107296	-0.100088	2.143659
C	0.743404	1.740012	-0.562841
S	0.108304	0.366612	-1.463941
C	1.085804	2.481212	1.883159
H	0.897804	2.074612	2.895759
H	0.551004	3.451112	1.808859
H	2.171204	2.702212	1.808959
C	-0.172196	-1.959188	0.000759
H	0.903704	-1.865588	0.000759
H	-0.125796	-2.492288	0.938859
H	-0.112596	-2.643788	-0.832441
H	1.145304	2.609612	-1.096341
$end

$rem
JOBTYPE		SP
EXCHANGE	HF
CORRELATION	pRIMP2
BASIS		cc-pvtz
METHOD		rimp2
AUX_BASIS	rimp2-cc-pvtz
SOLVENT_METHOD	PCM
PURECART	11111
SYMMETRY	false
MEM_TOTAL	110000
SCF_CONVERGENCE = 6
THRESH=10
GUI = 2
$end

$solvent
dielectric 4.90
$end
--------------------------------------------------------------

             Standard Nuclear Orientation (Angstroms)
    I     Atom           X                Y                Z
 ----------------------------------------------------------------
    1      C      -0.2985960000    -0.5145880000     0.0007590000
    2      C       0.0556040000     0.2522120000     1.1137590000
    3      C       0.6392040000     1.5148120000     0.8213590000
    4      H      -0.1072960000    -0.1000880000     2.1436590000
    5      C       0.7434040000     1.7400120000    -0.5628410000
    6      S       0.1083040000     0.3666120000    -1.4639410000
    7      C       1.0858040000     2.4812120000     1.8831590000
    8      H       0.8978040000     2.0746120000     2.8957590000
    9      H       0.5510040000     3.4511120000     1.8088590000
   10      H       2.1712040000     2.7022120000     1.8089590000
   11      C      -0.1721960000    -1.9591880000     0.0007590000
   12      H       0.9037040000    -1.8655880000     0.0007590000
   13      H      -0.1257960000    -2.4922880000     0.9388590000
   14      H      -0.1125960000    -2.6437880000    -0.8324410000
   15      H       1.1453040000     2.6096120000    -1.0963410000
 ----------------------------------------------------------------

   10    -629.4108446469      6.40e-07  Convergence criterion met
 Total energy in the final basis set =     -629.4108446469
        RIMP2         total energy =      -630.5896754099 a.u.

                    Orbital Energies (a.u.)
 --------------------------------------------------------------

 Alpha MOs
 -- Occupied --
-91.9773 -11.2819 -11.2542 -11.2483 -11.2273 -11.2260 -11.2221  -8.9774
 -6.6584  -6.6578  -6.6572  -1.1639  -1.0553  -0.9968  -0.9396  -0.8831
 -0.7450  -0.7204  -0.6456  -0.5880  -0.5797  -0.5675  -0.5521  -0.5454
 -0.5073  -0.4945  -0.4626  -0.4562  -0.3387  -0.2887

          Ground-State Mulliken Net Atomic Charges

     Atom                 Charge (a.u.)
  ----------------------------------------
      1 C                     0.041087
      2 C                    -0.301479
      3 C                     0.055402
      4 H                     0.174746
      5 C                    -0.273191
      6 S                     0.000636
      7 C                    -0.269942
      8 H                     0.101821
      9 H                     0.107799
     10 H                     0.106560
     11 C                    -0.373147
     12 H                     0.148336
     13 H                     0.134952
     14 H                     0.153100
     15 H                     0.193319
  ----------------------------------------
  Sum of atomic charges =     0.000000

                    Cartesian Multipole Moments
 -----------------------------------------------------------------
    Charge (ESU x 10^10)
                -0.0000
    Dipole Moment (Debye)
         X       1.3898      Y      -0.4901      Z       1.4906
       Tot       2.0961
    Quadrupole Moments (Debye-Ang)
        XX     -53.2465     XY       1.7825     YY     -43.8084
        XZ       0.1758     YZ       0.3810     ZZ     -48.4947

 Total job time:  26.78s(wall), 765.57s(cpu)
        *  Thank you very much for using Q-Chem.  Have a nice day.  *
