 Q-Chem 5.4, Q-Chem, Inc., Pleasanton, CA (2021)
 Q-Chem 5.4.0 for Intel X86 EM64T Linux

User input:
--------------------------------------------------------------
$molecule
0 1
C	-0.001620	-0.576386	0.003987
C	-0.004720	0.268214	1.116987
C	-0.009420	1.659214	0.824587
H	-0.003320	-0.119886	2.146887
C	-0.010020	1.907314	-0.559613
S	-0.005320	0.394214	-1.460713
C	-0.013020	2.723814	1.886387
H	-0.011520	2.275814	2.898987
H	-0.907520	3.376814	1.812087
H	0.877280	3.382714	1.812187
C	-0.001620	-2.026486	0.003987
H	0.825680	-2.026986	-0.690213
H	0.601280	-2.561586	0.722787
H	-0.537420	-2.713686	-0.634113
H	-0.013320	2.865414	-1.093113
$end

$rem
JOBTYPE		SP
EXCHANGE	HF
CORRELATION	pRIMP2
BASIS		cc-pvtz
METHOD		rimp2
AUX_BASIS	rimp2-cc-pvtz
SOLVENT_METHOD	PCM
PURECART	11111
SYMMETRY	false
MEM_TOTAL	110000
SCF_CONVERGENCE = 6
THRESH=10
GUI = 2
$end

$solvent
dielectric 4.90
$end
--------------------------------------------------------------

             Standard Nuclear Orientation (Angstroms)
    I     Atom           X                Y                Z
 ----------------------------------------------------------------
    1      C      -0.0016200000    -0.5763860000     0.0039870000
    2      C      -0.0047200000     0.2682140000     1.1169870000
    3      C      -0.0094200000     1.6592140000     0.8245870000
    4      H      -0.0033200000    -0.1198860000     2.1468870000
    5      C      -0.0100200000     1.9073140000    -0.5596130000
    6      S      -0.0053200000     0.3942140000    -1.4607130000
    7      C      -0.0130200000     2.7238140000     1.8863870000
    8      H      -0.0115200000     2.2758140000     2.8989870000
    9      H      -0.9075200000     3.3768140000     1.8120870000
   10      H       0.8772800000     3.3827140000     1.8121870000
   11      C      -0.0016200000    -2.0264860000     0.0039870000
   12      H       0.8256800000    -2.0269860000    -0.6902130000
   13      H       0.6012800000    -2.5615860000     0.7227870000
   14      H      -0.5374200000    -2.7136860000    -0.6341130000
   15      H      -0.0133200000     2.8654140000    -1.0931130000
 ----------------------------------------------------------------

   10    -629.4246446276      6.15e-07  Convergence criterion met
 Total energy in the final basis set =     -629.4246446276
        RIMP2         total energy =      -630.6004423636 a.u.

                    Orbital Energies (a.u.)
 --------------------------------------------------------------

 Alpha MOs
 -- Occupied --
-91.9788 -11.2814 -11.2538 -11.2470 -11.2268 -11.2261 -11.2202  -8.9786
 -6.6596  -6.6591  -6.6585  -1.1603  -1.0540  -0.9961  -0.9439  -0.8832
 -0.7459  -0.7181  -0.6468  -0.5903  -0.5756  -0.5676  -0.5509  -0.5464
 -0.5079  -0.4913  -0.4654  -0.4525  -0.3388  -0.2954

          Ground-State Mulliken Net Atomic Charges

     Atom                 Charge (a.u.)
  ----------------------------------------
      1 C                     0.047566
      2 C                    -0.275880
      3 C                     0.037977
      4 H                     0.180828
      5 C                    -0.263081
      6 S                    -0.006521
      7 C                    -0.273507
      8 H                     0.101589
      9 H                     0.107323
     10 H                     0.107125
     11 C                    -0.371065
     12 H                     0.124890
     13 H                     0.139931
     14 H                     0.148315
     15 H                     0.194509
  ----------------------------------------
  Sum of atomic charges =     0.000000

                    Cartesian Multipole Moments
 -----------------------------------------------------------------
    Charge (ESU x 10^10)
                -0.0000
    Dipole Moment (Debye)
         X       0.5337      Y      -0.3858      Z       1.0330
       Tot       1.2250
    Quadrupole Moments (Debye-Ang)
        XX     -54.1390     XY      -1.1448     YY     -41.8137
        XZ       0.3261     YZ       1.3522     ZZ     -48.6960

 Total job time:  19.44s(wall), 770.10s(cpu)
        *  Thank you very much for using Q-Chem.  Have a nice day.  *
