 Q-Chem 5.4, Q-Chem, Inc., Pleasanton, CA (2021)
 Q-Chem 5.4.0 for Intel X86 EM64T Linux

User input:
--------------------------------------------------------------
$molecule
0 1
C	-0.438614	-0.419059	-0.001602
C	0.101886	0.229941	1.111398
C	0.992386	1.298441	0.818998
H	-0.146514	-0.068259	2.141298
C	1.151486	1.489041	-0.565202
S	0.182486	0.326841	-1.466302
C	1.673986	2.116341	1.880798
H	1.387186	1.772241	2.893398
H	1.408486	3.191641	1.806498
H	2.779586	2.048841	1.806598
C	-0.438614	-1.869159	-0.001602
H	0.496686	-1.869659	0.538398
H	-0.907914	-2.404259	0.810698
H	-0.022314	-2.556359	-0.723302
H	1.764686	2.225041	-1.098702
$end

$rem
JOBTYPE		SP
EXCHANGE	HF
CORRELATION	pRIMP2
BASIS		cc-pvtz
METHOD		rimp2
AUX_BASIS	rimp2-cc-pvtz
SOLVENT_METHOD	PCM
PURECART	11111
SYMMETRY	false
MEM_TOTAL	110000
SCF_CONVERGENCE = 6
THRESH=10
GUI = 2
$end

$solvent
dielectric 4.90
$end
--------------------------------------------------------------

             Standard Nuclear Orientation (Angstroms)
    I     Atom           X                Y                Z
 ----------------------------------------------------------------
    1      C      -0.4386140000    -0.4190590000    -0.0016020000
    2      C       0.1018860000     0.2299410000     1.1113980000
    3      C       0.9923860000     1.2984410000     0.8189980000
    4      H      -0.1465140000    -0.0682590000     2.1412980000
    5      C       1.1514860000     1.4890410000    -0.5652020000
    6      S       0.1824860000     0.3268410000    -1.4663020000
    7      C       1.6739860000     2.1163410000     1.8807980000
    8      H       1.3871860000     1.7722410000     2.8933980000
    9      H       1.4084860000     3.1916410000     1.8064980000
   10      H       2.7795860000     2.0488410000     1.8065980000
   11      C      -0.4386140000    -1.8691590000    -0.0016020000
   12      H       0.4966860000    -1.8696590000     0.5383980000
   13      H      -0.9079140000    -2.4042590000     0.8106980000
   14      H      -0.0223140000    -2.5563590000    -0.7233020000
   15      H       1.7646860000     2.2250410000    -1.0987020000
 ----------------------------------------------------------------

   10    -629.3890980899      5.95e-07  Convergence criterion met
 Total energy in the final basis set =     -629.3890980899
        RIMP2         total energy =      -630.5738054264 a.u.

                    Orbital Energies (a.u.)
 --------------------------------------------------------------

 Alpha MOs
 -- Occupied --
-91.9791 -11.2736 -11.2599 -11.2490 -11.2305 -11.2279 -11.2157  -8.9789
 -6.6598  -6.6592  -6.6588  -1.1666  -1.0546  -0.9983  -0.9363  -0.8834
 -0.7447  -0.7236  -0.6444  -0.5885  -0.5775  -0.5714  -0.5544  -0.5439
 -0.5115  -0.4821  -0.4601  -0.4552  -0.3358  -0.2891

          Ground-State Mulliken Net Atomic Charges

     Atom                 Charge (a.u.)
  ----------------------------------------
      1 C                    -0.008781
      2 C                    -0.229767
      3 C                     0.024013
      4 H                     0.175949
      5 C                    -0.254317
      6 S                     0.012076
      7 C                    -0.269122
      8 H                     0.101805
      9 H                     0.107540
     10 H                     0.105451
     11 C                    -0.386366
     12 H                     0.146150
     13 H                     0.124628
     14 H                     0.156440
     15 H                     0.194301
  ----------------------------------------
  Sum of atomic charges =     0.000000

                    Cartesian Multipole Moments
 -----------------------------------------------------------------
    Charge (ESU x 10^10)
                -0.0000
    Dipole Moment (Debye)
         X       1.6142      Y      -0.3237      Z       1.8184
       Tot       2.4529
    Quadrupole Moments (Debye-Ang)
        XX     -51.4682     XY       3.3058     YY     -46.2706
        XZ      -0.1697     YZ      -0.3962     ZZ     -48.2499

 Total job time:  15.71s(wall), 753.97s(cpu)
        *  Thank you very much for using Q-Chem.  Have a nice day.  *
