 Q-Chem 5.4, Q-Chem, Inc., Pleasanton, CA (2021)
 Q-Chem 5.4.0 for Intel X86 EM64T Linux

User input:
--------------------------------------------------------------
$molecule
0 1
C	-0.176187	-0.553870	-0.002787
C	0.039413	0.262730	1.110213
C	0.394913	1.607530	0.817813
H	-0.059687	-0.112470	2.140113
C	0.458513	1.847430	-0.566387
S	0.071413	0.384630	-1.467487
C	0.667013	2.636830	1.879613
H	0.552413	2.203730	2.892213
H	-0.028087	3.499130	1.805313
H	1.697513	3.042930	1.805413
C	-0.176187	-2.003970	-0.002787
H	0.518013	-2.004470	0.824513
H	-0.894987	-2.539070	0.600113
H	0.461913	-2.691170	-0.538587
H	0.703313	2.773630	-1.099887
$end

$rem
JOBTYPE		SP
EXCHANGE	HF
CORRELATION	pRIMP2
BASIS		cc-pvtz
METHOD		rimp2
AUX_BASIS	rimp2-cc-pvtz
SOLVENT_METHOD	PCM
PURECART	11111
SYMMETRY	false
MEM_TOTAL	110000
SCF_CONVERGENCE = 6
THRESH=10
GUI = 2
$end

$solvent
dielectric 4.90
$end
--------------------------------------------------------------

             Standard Nuclear Orientation (Angstroms)
    I     Atom           X                Y                Z
 ----------------------------------------------------------------
    1      C      -0.1761870000    -0.5538700000    -0.0027870000
    2      C       0.0394130000     0.2627300000     1.1102130000
    3      C       0.3949130000     1.6075300000     0.8178130000
    4      H      -0.0596870000    -0.1124700000     2.1401130000
    5      C       0.4585130000     1.8474300000    -0.5663870000
    6      S       0.0714130000     0.3846300000    -1.4674870000
    7      C       0.6670130000     2.6368300000     1.8796130000
    8      H       0.5524130000     2.2037300000     2.8922130000
    9      H      -0.0280870000     3.4991300000     1.8053130000
   10      H       1.6975130000     3.0429300000     1.8054130000
   11      C      -0.1761870000    -2.0039700000    -0.0027870000
   12      H       0.5180130000    -2.0044700000     0.8245130000
   13      H      -0.8949870000    -2.5390700000     0.6001130000
   14      H       0.4619130000    -2.6911700000    -0.5385870000
   15      H       0.7033130000     2.7736300000    -1.0998870000
 ----------------------------------------------------------------

   10    -629.4194187415      5.47e-07  Convergence criterion met
 Total energy in the final basis set =     -629.4194187415
        RIMP2         total energy =      -630.5975966683 a.u.

                    Orbital Energies (a.u.)
 --------------------------------------------------------------

 Alpha MOs
 -- Occupied --
-91.9778 -11.2807 -11.2538 -11.2476 -11.2287 -11.2273 -11.2182  -8.9775
 -6.6585  -6.6579  -6.6574  -1.1611  -1.0533  -0.9989  -0.9384  -0.8847
 -0.7424  -0.7216  -0.6469  -0.5904  -0.5750  -0.5700  -0.5573  -0.5423
 -0.5099  -0.4843  -0.4678  -0.4481  -0.3364  -0.2965

          Ground-State Mulliken Net Atomic Charges

     Atom                 Charge (a.u.)
  ----------------------------------------
      1 C                     0.047930
      2 C                    -0.266892
      3 C                     0.032997
      4 H                     0.175048
      5 C                    -0.263562
      6 S                    -0.002030
      7 C                    -0.272734
      8 H                     0.101292
      9 H                     0.107339
     10 H                     0.106955
     11 C                    -0.387454
     12 H                     0.138198
     13 H                     0.134689
     14 H                     0.155406
     15 H                     0.192819
  ----------------------------------------
  Sum of atomic charges =     0.000000

                    Cartesian Multipole Moments
 -----------------------------------------------------------------
    Charge (ESU x 10^10)
                -0.0000
    Dipole Moment (Debye)
         X       0.7719      Y      -0.3698      Z       1.9947
       Tot       2.1706
    Quadrupole Moments (Debye-Ang)
        XX     -53.6022     XY       1.0958     YY     -42.7547
        XZ      -0.2738     YZ      -0.6504     ZZ     -48.7235

 Total job time:  19.20s(wall), 781.13s(cpu)
        *  Thank you very much for using Q-Chem.  Have a nice day.  *
