 Q-Chem 5.4, Q-Chem, Inc., Pleasanton, CA (2021)
 Q-Chem 5.4.0 for Intel X86 EM64T Linux

User input:
--------------------------------------------------------------
$molecule
0 1
C	-0.002037	-0.576386	0.003247
C	-0.005137	0.268214	1.116247
C	-0.009837	1.659214	0.823847
H	-0.003737	-0.119886	2.146147
C	-0.010437	1.907314	-0.560353
S	-0.005737	0.394214	-1.461453
C	-0.013437	2.723814	1.885647
H	-0.011937	2.275814	2.898247
H	-0.907937	3.376814	1.811347
H	0.876863	3.382714	1.811447
C	-0.002037	-2.026486	0.003247
H	0.933263	-2.026986	-0.536753
H	0.466863	-2.561586	0.815847
H	-0.418937	-2.713686	-0.718153
H	-0.013737	2.865414	-1.093853
$end

$rem
JOBTYPE		SP
EXCHANGE	HF
CORRELATION	pRIMP2
BASIS		cc-pvtz
METHOD		rimp2
AUX_BASIS	rimp2-cc-pvtz
SOLVENT_METHOD	PCM
PURECART	11111
SYMMETRY	false
MEM_TOTAL	110000
SCF_CONVERGENCE = 6
THRESH=10
GUI = 2
$end

$solvent
dielectric 4.90
$end
--------------------------------------------------------------

             Standard Nuclear Orientation (Angstroms)
    I     Atom           X                Y                Z
 ----------------------------------------------------------------
    1      C      -0.0020370000    -0.5763860000     0.0032470000
    2      C      -0.0051370000     0.2682140000     1.1162470000
    3      C      -0.0098370000     1.6592140000     0.8238470000
    4      H      -0.0037370000    -0.1198860000     2.1461470000
    5      C      -0.0104370000     1.9073140000    -0.5603530000
    6      S      -0.0057370000     0.3942140000    -1.4614530000
    7      C      -0.0134370000     2.7238140000     1.8856470000
    8      H      -0.0119370000     2.2758140000     2.8982470000
    9      H      -0.9079370000     3.3768140000     1.8113470000
   10      H       0.8768630000     3.3827140000     1.8114470000
   11      C      -0.0020370000    -2.0264860000     0.0032470000
   12      H       0.9332630000    -2.0269860000    -0.5367530000
   13      H       0.4668630000    -2.5615860000     0.8158470000
   14      H      -0.4189370000    -2.7136860000    -0.7181530000
   15      H      -0.0137370000     2.8654140000    -1.0938530000
 ----------------------------------------------------------------

   10    -629.4253649342      6.42e-07  Convergence criterion met
 Total energy in the final basis set =     -629.4253649342
        RIMP2         total energy =      -630.6006914008 a.u.

                    Orbital Energies (a.u.)
 --------------------------------------------------------------

 Alpha MOs
 -- Occupied --
-91.9784 -11.2832 -11.2522 -11.2470 -11.2267 -11.2250 -11.2214  -8.9783
 -6.6593  -6.6588  -6.6581  -1.1601  -1.0543  -0.9964  -0.9433  -0.8833
 -0.7453  -0.7180  -0.6468  -0.5899  -0.5756  -0.5680  -0.5505  -0.5465
 -0.5077  -0.4929  -0.4657  -0.4541  -0.3388  -0.2931

          Ground-State Mulliken Net Atomic Charges

     Atom                 Charge (a.u.)
  ----------------------------------------
      1 C                     0.049509
      2 C                    -0.283564
      3 C                     0.040150
      4 H                     0.180492
      5 C                    -0.267397
      6 S                    -0.007418
      7 C                    -0.273697
      8 H                     0.101503
      9 H                     0.107350
     10 H                     0.107222
     11 C                    -0.373295
     12 H                     0.130747
     13 H                     0.141329
     14 H                     0.152823
     15 H                     0.194244
  ----------------------------------------
  Sum of atomic charges =     0.000000

                    Cartesian Multipole Moments
 -----------------------------------------------------------------
    Charge (ESU x 10^10)
                -0.0000
    Dipole Moment (Debye)
         X       0.6152      Y      -0.5227      Z       1.1047
       Tot       1.3682
    Quadrupole Moments (Debye-Ang)
        XX     -54.2611     XY      -1.3154     YY     -41.7175
        XZ       0.2869     YZ       1.2062     ZZ     -48.6556

 Total job time:  15.75s(wall), 752.08s(cpu)
        *  Thank you very much for using Q-Chem.  Have a nice day.  *
