 Q-Chem 5.4, Q-Chem, Inc., Pleasanton, CA (2021)
 Q-Chem 5.4.0 for Intel X86 EM64T Linux

User input:
--------------------------------------------------------------
$molecule
0 1
C	-0.585660	-0.238938	0.005949
C	0.144240	0.186062	1.118949
C	1.346540	0.885562	0.826549
H	-0.191160	-0.009138	2.148849
C	1.561140	1.010262	-0.557651
S	0.253040	0.249562	-1.458751
C	2.266740	1.420962	1.888349
H	1.879440	1.195762	2.900949
H	2.384940	2.522262	1.814049
H	3.282540	0.979462	1.814149
C	-0.585660	-1.689038	0.005949
H	-0.955060	-1.689538	-1.008951
H	0.295940	-2.224138	-0.314751
H	-1.368460	-2.376238	0.291249
H	2.389140	1.492062	-1.091151
$end

$rem
JOBTYPE		SP
EXCHANGE	HF
CORRELATION	pRIMP2
BASIS		cc-pvtz
METHOD		rimp2
AUX_BASIS	rimp2-cc-pvtz
SOLVENT_METHOD	PCM
PURECART	11111
SYMMETRY	false
MEM_TOTAL	110000
SCF_CONVERGENCE = 6
THRESH=10
GUI = 2
$end

$solvent
dielectric 4.90
$end
--------------------------------------------------------------

             Standard Nuclear Orientation (Angstroms)
    I     Atom           X                Y                Z
 ----------------------------------------------------------------
    1      C      -0.5856600000    -0.2389380000     0.0059490000
    2      C       0.1442400000     0.1860620000     1.1189490000
    3      C       1.3465400000     0.8855620000     0.8265490000
    4      H      -0.1911600000    -0.0091380000     2.1488490000
    5      C       1.5611400000     1.0102620000    -0.5576510000
    6      S       0.2530400000     0.2495620000    -1.4587510000
    7      C       2.2667400000     1.4209620000     1.8883490000
    8      H       1.8794400000     1.1957620000     2.9009490000
    9      H       2.3849400000     2.5222620000     1.8140490000
   10      H       3.2825400000     0.9794620000     1.8141490000
   11      C      -0.5856600000    -1.6890380000     0.0059490000
   12      H      -0.9550600000    -1.6895380000    -1.0089510000
   13      H       0.2959400000    -2.2241380000    -0.3147510000
   14      H      -1.3684600000    -2.3762380000     0.2912490000
   15      H       2.3891400000     1.4920620000    -1.0911510000
 ----------------------------------------------------------------

   11    -629.3503944977      4.58e-07  Convergence criterion met
 Total energy in the final basis set =     -629.3503944977
        RIMP2         total energy =      -630.5399148305 a.u.

                    Orbital Energies (a.u.)
 --------------------------------------------------------------

 Alpha MOs
 -- Occupied --
-91.9761 -11.2850 -11.2523 -11.2484 -11.2410 -11.2288 -11.2091  -8.9770
 -6.6578  -6.6569  -6.6566  -1.1738  -1.0561  -0.9954  -0.9434  -0.8797
 -0.7555  -0.7282  -0.6427  -0.5941  -0.5798  -0.5675  -0.5511  -0.5456
 -0.5182  -0.4689  -0.4491  -0.4397  -0.3317  -0.3063

          Ground-State Mulliken Net Atomic Charges

     Atom                 Charge (a.u.)
  ----------------------------------------
      1 C                    -0.120973
      2 C                    -0.095511
      3 C                    -0.025634
      4 H                     0.183620
      5 C                    -0.179940
      6 S                     0.011162
      7 C                    -0.268595
      8 H                     0.102372
      9 H                     0.106624
     10 H                     0.103866
     11 C                    -0.365534
     12 H                     0.105041
     13 H                     0.114837
     14 H                     0.128815
     15 H                     0.199850
  ----------------------------------------
  Sum of atomic charges =     0.000000

                    Cartesian Multipole Moments
 -----------------------------------------------------------------
    Charge (ESU x 10^10)
                -0.0000
    Dipole Moment (Debye)
         X       2.3358      Y       0.2843      Z       1.2988
       Tot       2.6877
    Quadrupole Moments (Debye-Ang)
        XX     -47.6675     XY       4.9415     YY     -49.9721
        XZ      -0.3012     YZ       0.8150     ZZ     -47.9304

 Total job time:  21.46s(wall), 843.68s(cpu)
        *  Thank you very much for using Q-Chem.  Have a nice day.  *
