 Q-Chem 5.4, Q-Chem, Inc., Pleasanton, CA (2021)
 Q-Chem 5.4.0 for Intel X86 EM64T Linux

User input:
--------------------------------------------------------------
$molecule
0 1
C	-0.004119	-0.576256	0.011707
C	-0.004519	0.290944	1.107207
C	-0.004819	1.675644	0.786507
H	-0.004419	-0.076056	2.144807
C	-0.004719	1.895444	-0.602493
S	-0.004719	0.364244	-1.472593
C	-0.005119	2.761644	1.826307
H	-0.005019	2.334444	2.847807
H	-0.897619	3.415844	1.738707
H	0.887281	3.416144	1.738807
C	-0.008719	-2.026056	0.041307
H	1.054881	-2.026056	0.228907
H	-0.173519	-2.541656	0.975907
H	0.133481	-2.730356	-0.765093
H	-0.005019	2.842444	-1.155393
$end

$rem
JOBTYPE		SP
EXCHANGE	HF
CORRELATION	pRIMP2
BASIS		cc-pvtz
METHOD		rimp2
AUX_BASIS	rimp2-cc-pvtz
SOLVENT_METHOD	PCM
PURECART	11111
SYMMETRY	false
MEM_TOTAL	110000
SCF_CONVERGENCE = 6
THRESH=10
GUI = 2
$end

$solvent
dielectric 4.90
$end
--------------------------------------------------------------

             Standard Nuclear Orientation (Angstroms)
    I     Atom           X                Y                Z
 ----------------------------------------------------------------
    1      C      -0.0041190000    -0.5762560000     0.0117070000
    2      C      -0.0045190000     0.2909440000     1.1072070000
    3      C      -0.0048190000     1.6756440000     0.7865070000
    4      H      -0.0044190000    -0.0760560000     2.1448070000
    5      C      -0.0047190000     1.8954440000    -0.6024930000
    6      S      -0.0047190000     0.3642440000    -1.4725930000
    7      C      -0.0051190000     2.7616440000     1.8263070000
    8      H      -0.0050190000     2.3344440000     2.8478070000
    9      H      -0.8976190000     3.4158440000     1.7387070000
   10      H       0.8872810000     3.4161440000     1.7388070000
   11      C      -0.0087190000    -2.0260560000     0.0413070000
   12      H       1.0548810000    -2.0260560000     0.2289070000
   13      H      -0.1735190000    -2.5416560000     0.9759070000
   14      H       0.1334810000    -2.7303560000    -0.7650930000
   15      H      -0.0050190000     2.8424440000    -1.1553930000
 ----------------------------------------------------------------

   10    -629.4258041144      6.76e-07  Convergence criterion met
 Total energy in the final basis set =     -629.4258041144
        RIMP2         total energy =      -630.6010163473 a.u.

                    Orbital Energies (a.u.)
 --------------------------------------------------------------

 Alpha MOs
 -- Occupied --
-91.9785 -11.2866 -11.2487 -11.2472 -11.2266 -11.2231 -11.2229  -8.9782
 -6.6592  -6.6586  -6.6580  -1.1599  -1.0545  -0.9978  -0.9407  -0.8840
 -0.7432  -0.7184  -0.6470  -0.5892  -0.5737  -0.5702  -0.5539  -0.5447
 -0.5077  -0.4945  -0.4658  -0.4558  -0.3378  -0.2894

          Ground-State Mulliken Net Atomic Charges

     Atom                 Charge (a.u.)
  ----------------------------------------
      1 C                     0.065370
      2 C                    -0.306630
      3 C                     0.047638
      4 H                     0.174651
      5 C                    -0.279709
      6 S                     0.000562
      7 C                    -0.274829
      8 H                     0.101418
      9 H                     0.107339
     10 H                     0.107419
     11 C                    -0.385706
     12 H                     0.144098
     13 H                     0.144482
     14 H                     0.161142
     15 H                     0.192755
  ----------------------------------------
  Sum of atomic charges =     0.000000

                    Cartesian Multipole Moments
 -----------------------------------------------------------------
    Charge (ESU x 10^10)
                -0.0000
    Dipole Moment (Debye)
         X       0.7277      Y      -0.7489      Z       1.5503
       Tot       1.8691
    Quadrupole Moments (Debye-Ang)
        XX     -54.4014     XY      -1.5711     YY     -41.6537
        XZ      -0.0544     YZ       0.1556     ZZ     -48.5997

 Total job time:  19.53s(wall), 753.80s(cpu)
        *  Thank you very much for using Q-Chem.  Have a nice day.  *
