 Q-Chem 5.4, Q-Chem, Inc., Pleasanton, CA (2021)
 Q-Chem 5.4.0 for Intel X86 EM64T Linux

User input:
--------------------------------------------------------------
$molecule
0 1
C	-0.431818	-0.419059	-0.002733
C	0.108682	0.229941	1.110267
C	0.999182	1.298441	0.817867
H	-0.139718	-0.068259	2.140167
C	1.158282	1.489041	-0.566333
S	0.189282	0.326841	-1.467433
C	1.680782	2.116341	1.879667
H	1.393982	1.772241	2.892267
H	1.415282	3.191641	1.805367
H	2.786382	2.048841	1.805467
C	-0.431818	-1.869159	-0.002733
H	-0.971818	-1.869659	0.932567
H	-1.244118	-2.404259	-0.472033
H	0.289882	-2.556359	0.413567
H	1.771482	2.225041	-1.099833
$end

$rem
JOBTYPE		SP
EXCHANGE	HF
CORRELATION	pRIMP2
BASIS		cc-pvtz
METHOD		rimp2
AUX_BASIS	rimp2-cc-pvtz
SOLVENT_METHOD	PCM
PURECART	11111
SYMMETRY	false
MEM_TOTAL	110000
SCF_CONVERGENCE = 6
THRESH=10
GUI = 2
$end

$solvent
dielectric 4.90
$end
--------------------------------------------------------------

             Standard Nuclear Orientation (Angstroms)
    I     Atom           X                Y                Z
 ----------------------------------------------------------------
    1      C      -0.4318180000    -0.4190590000    -0.0027330000
    2      C       0.1086820000     0.2299410000     1.1102670000
    3      C       0.9991820000     1.2984410000     0.8178670000
    4      H      -0.1397180000    -0.0682590000     2.1401670000
    5      C       1.1582820000     1.4890410000    -0.5663330000
    6      S       0.1892820000     0.3268410000    -1.4674330000
    7      C       1.6807820000     2.1163410000     1.8796670000
    8      H       1.3939820000     1.7722410000     2.8922670000
    9      H       1.4152820000     3.1916410000     1.8053670000
   10      H       2.7863820000     2.0488410000     1.8054670000
   11      C      -0.4318180000    -1.8691590000    -0.0027330000
   12      H      -0.9718180000    -1.8696590000     0.9325670000
   13      H      -1.2441180000    -2.4042590000    -0.4720330000
   14      H       0.2898820000    -2.5563590000     0.4135670000
   15      H       1.7714820000     2.2250410000    -1.0998330000
 ----------------------------------------------------------------

   10    -629.3939546060      6.37e-07  Convergence criterion met
 Total energy in the final basis set =     -629.3939546060
        RIMP2         total energy =      -630.5785572183 a.u.

                    Orbital Energies (a.u.)
 --------------------------------------------------------------

 Alpha MOs
 -- Occupied --
-91.9730 -11.2687 -11.2625 -11.2485 -11.2422 -11.2284 -11.2127  -8.9735
 -6.6544  -6.6537  -6.6533  -1.1650  -1.0523  -0.9989  -0.9375  -0.8851
 -0.7446  -0.7267  -0.6455  -0.5856  -0.5807  -0.5675  -0.5559  -0.5415
 -0.5160  -0.4820  -0.4620  -0.4315  -0.3372  -0.3024

          Ground-State Mulliken Net Atomic Charges

     Atom                 Charge (a.u.)
  ----------------------------------------
      1 C                    -0.027816
      2 C                    -0.214198
      3 C                     0.017850
      4 H                     0.178654
      5 C                    -0.223762
      6 S                     0.000817
      7 C                    -0.269136
      8 H                     0.101529
      9 H                     0.106945
     10 H                     0.106300
     11 C                    -0.363494
     12 H                     0.114253
     13 H                     0.125680
     14 H                     0.151518
     15 H                     0.194861
  ----------------------------------------
  Sum of atomic charges =     0.000000

                    Cartesian Multipole Moments
 -----------------------------------------------------------------
    Charge (ESU x 10^10)
                -0.0000
    Dipole Moment (Debye)
         X       1.0163      Y       0.1888      Z       2.1991
       Tot       2.4299
    Quadrupole Moments (Debye-Ang)
        XX     -50.2478     XY       5.0856     YY     -46.3365
        XZ       0.1155     YZ      -0.9410     ZZ     -48.5877

 Total job time:  15.83s(wall), 756.51s(cpu)
        *  Thank you very much for using Q-Chem.  Have a nice day.  *
