 Q-Chem 5.4, Q-Chem, Inc., Pleasanton, CA (2021)
 Q-Chem 5.4.0 for Intel X86 EM64T Linux

User input:
--------------------------------------------------------------
$molecule
0 1
C	0.005231	-0.576386	-0.002733
C	0.002131	0.268214	1.110267
C	-0.002569	1.659214	0.817867
H	0.003531	-0.119886	2.140167
C	-0.003169	1.907314	-0.566333
S	0.001531	0.394214	-1.467433
C	-0.006169	2.723814	1.879667
H	-0.004669	2.275814	2.892267
H	-0.900669	3.376814	1.805367
H	0.884131	3.382714	1.805467
C	0.005231	-2.026486	-0.002733
H	-0.534769	-2.026986	0.932567
H	-0.807069	-2.561586	-0.472033
H	0.726931	-2.713686	0.413567
H	-0.006469	2.865414	-1.099833
$end

$rem
JOBTYPE		SP
EXCHANGE	HF
CORRELATION	pRIMP2
BASIS		cc-pvtz
METHOD		rimp2
AUX_BASIS	rimp2-cc-pvtz
SOLVENT_METHOD	PCM
PURECART	11111
SYMMETRY	false
MEM_TOTAL	110000
SCF_CONVERGENCE = 6
THRESH=10
GUI = 2
$end

$solvent
dielectric 4.90
$end
--------------------------------------------------------------

             Standard Nuclear Orientation (Angstroms)
    I     Atom           X                Y                Z
 ----------------------------------------------------------------
    1      C       0.0052310000    -0.5763860000    -0.0027330000
    2      C       0.0021310000     0.2682140000     1.1102670000
    3      C      -0.0025690000     1.6592140000     0.8178670000
    4      H       0.0035310000    -0.1198860000     2.1401670000
    5      C      -0.0031690000     1.9073140000    -0.5663330000
    6      S       0.0015310000     0.3942140000    -1.4674330000
    7      C      -0.0061690000     2.7238140000     1.8796670000
    8      H      -0.0046690000     2.2758140000     2.8922670000
    9      H      -0.9006690000     3.3768140000     1.8053670000
   10      H       0.8841310000     3.3827140000     1.8054670000
   11      C       0.0052310000    -2.0264860000    -0.0027330000
   12      H      -0.5347690000    -2.0269860000     0.9325670000
   13      H      -0.8070690000    -2.5615860000    -0.4720330000
   14      H       0.7269310000    -2.7136860000     0.4135670000
   15      H      -0.0064690000     2.8654140000    -1.0998330000
 ----------------------------------------------------------------

   10    -629.4256268898      5.16e-07  Convergence criterion met
 Total energy in the final basis set =     -629.4256268898
        RIMP2         total energy =      -630.6028732465 a.u.

                    Orbital Energies (a.u.)
 --------------------------------------------------------------

 Alpha MOs
 -- Occupied --
-91.9768 -11.2797 -11.2555 -11.2473 -11.2308 -11.2273 -11.2182  -8.9767
 -6.6576  -6.6571  -6.6565  -1.1605  -1.0528  -0.9992  -0.9393  -0.8851
 -0.7424  -0.7223  -0.6483  -0.5899  -0.5760  -0.5657  -0.5597  -0.5418
 -0.5093  -0.4880  -0.4673  -0.4440  -0.3372  -0.3006

          Ground-State Mulliken Net Atomic Charges

     Atom                 Charge (a.u.)
  ----------------------------------------
      1 C                     0.059484
      2 C                    -0.267209
      3 C                     0.030539
      4 H                     0.176580
      5 C                    -0.257127
      6 S                    -0.006660
      7 C                    -0.274258
      8 H                     0.101342
      9 H                     0.107197
     10 H                     0.107319
     11 C                    -0.377147
     12 H                     0.126666
     13 H                     0.136740
     14 H                     0.143000
     15 H                     0.193534
  ----------------------------------------
  Sum of atomic charges =     0.000000

                    Cartesian Multipole Moments
 -----------------------------------------------------------------
    Charge (ESU x 10^10)
                -0.0000
    Dipole Moment (Debye)
         X      -0.3520      Y      -0.2250      Z       2.0591
       Tot       2.1011
    Quadrupole Moments (Debye-Ang)
        XX     -53.8671     XY       0.6962     YY     -42.0824
        XZ       0.2826     YZ      -0.9021     ZZ     -48.8483

 Total job time:  15.64s(wall), 743.76s(cpu)
        *  Thank you very much for using Q-Chem.  Have a nice day.  *
