 Q-Chem 5.4, Q-Chem, Inc., Pleasanton, CA (2021)
 Q-Chem 5.4.0 for Intel X86 EM64T Linux

User input:
--------------------------------------------------------------
$molecule
0 1
C	-0.284438	-0.513776	0.006088
C	0.069762	0.253024	1.119088
C	0.653362	1.515624	0.826688
H	-0.093138	-0.099276	2.148988
C	0.757562	1.740824	-0.557512
S	0.122462	0.367424	-1.458612
C	1.099962	2.482024	1.888488
H	0.911962	2.075424	2.901088
H	0.565162	3.451924	1.814188
H	2.185362	2.703024	1.814288
C	-0.284438	-1.963876	0.006088
H	-0.472038	-1.964376	-1.057512
H	0.639462	-2.498976	-0.156612
H	-1.104938	-2.651076	0.151088
H	1.159462	2.610424	-1.091012
$end

$rem
JOBTYPE		SP
EXCHANGE	HF
CORRELATION	pRIMP2
BASIS		cc-pvtz
METHOD		rimp2
AUX_BASIS	rimp2-cc-pvtz
SOLVENT_METHOD	PCM
PURECART	11111
SYMMETRY	false
MEM_TOTAL	110000
SCF_CONVERGENCE = 6
THRESH=10
GUI = 2
$end

$solvent
dielectric 4.90
$end
--------------------------------------------------------------

             Standard Nuclear Orientation (Angstroms)
    I     Atom           X                Y                Z
 ----------------------------------------------------------------
    1      C      -0.2844380000    -0.5137760000     0.0060880000
    2      C       0.0697620000     0.2530240000     1.1190880000
    3      C       0.6533620000     1.5156240000     0.8266880000
    4      H      -0.0931380000    -0.0992760000     2.1489880000
    5      C       0.7575620000     1.7408240000    -0.5575120000
    6      S       0.1224620000     0.3674240000    -1.4586120000
    7      C       1.0999620000     2.4820240000     1.8884880000
    8      H       0.9119620000     2.0754240000     2.9010880000
    9      H       0.5651620000     3.4519240000     1.8141880000
   10      H       2.1853620000     2.7030240000     1.8142880000
   11      C      -0.2844380000    -1.9638760000     0.0060880000
   12      H      -0.4720380000    -1.9643760000    -1.0575120000
   13      H       0.6394620000    -2.4989760000    -0.1566120000
   14      H      -1.1049380000    -2.6510760000     0.1510880000
   15      H       1.1594620000     2.6104240000    -1.0910120000
 ----------------------------------------------------------------

   10    -629.4100826554      5.20e-07  Convergence criterion met
 Total energy in the final basis set =     -629.4100826554
        RIMP2         total energy =      -630.5902838760 a.u.

                    Orbital Energies (a.u.)
 --------------------------------------------------------------

 Alpha MOs
 -- Occupied --
-91.9804 -11.2700 -11.2621 -11.2474 -11.2317 -11.2272 -11.2152  -8.9803
 -6.6612  -6.6607  -6.6601  -1.1623  -1.0534  -0.9947  -0.9452  -0.8823
 -0.7486  -0.7195  -0.6458  -0.5909  -0.5756  -0.5663  -0.5530  -0.5462
 -0.5109  -0.4807  -0.4646  -0.4438  -0.3373  -0.3046

          Ground-State Mulliken Net Atomic Charges

     Atom                 Charge (a.u.)
  ----------------------------------------
      1 C                     0.014429
      2 C                    -0.248080
      3 C                     0.039278
      4 H                     0.178051
      5 C                    -0.249853
      6 S                    -0.000433
      7 C                    -0.271536
      8 H                     0.102142
      9 H                     0.106843
     10 H                     0.106280
     11 C                    -0.359733
     12 H                     0.110179
     13 H                     0.130017
     14 H                     0.146498
     15 H                     0.195917
  ----------------------------------------
  Sum of atomic charges =     0.000000

                    Cartesian Multipole Moments
 -----------------------------------------------------------------
    Charge (ESU x 10^10)
                -0.0000
    Dipole Moment (Debye)
         X       0.6328      Y       0.1247      Z       0.9417
       Tot       1.1414
    Quadrupole Moments (Debye-Ang)
        XX     -52.2238     XY       3.7769     YY     -43.9059
        XZ       0.1095     YZ       1.3656     ZZ     -48.7442

 Total job time:  15.56s(wall), 749.82s(cpu)
        *  Thank you very much for using Q-Chem.  Have a nice day.  *
