 Q-Chem 5.4, Q-Chem, Inc., Pleasanton, CA (2021)
 Q-Chem 5.4.0 for Intel X86 EM64T Linux

User input:
--------------------------------------------------------------
$molecule
0 1
C	-0.439508	-0.419059	0.001609
C	0.100992	0.229941	1.114609
C	0.991492	1.298441	0.822209
H	-0.147408	-0.068259	2.144509
C	1.150592	1.489041	-0.561991
S	0.181592	0.326841	-1.463091
C	1.673092	2.116341	1.884009
H	1.386292	1.772241	2.896609
H	1.407592	3.191641	1.809709
H	2.778692	2.048841	1.809809
C	-0.439508	-1.869159	0.001609
H	0.624092	-1.869659	-0.185991
H	-0.276808	-2.404259	0.925509
H	-0.584508	-2.556359	-0.818891
H	1.763792	2.225041	-1.095491
$end

$rem
JOBTYPE		SP
EXCHANGE	HF
CORRELATION	pRIMP2
BASIS		cc-pvtz
METHOD		rimp2
AUX_BASIS	rimp2-cc-pvtz
SOLVENT_METHOD	PCM
PURECART	11111
SYMMETRY	false
MEM_TOTAL	110000
SCF_CONVERGENCE = 6
THRESH=10
GUI = 2
$end

$solvent
dielectric 4.90
$end
--------------------------------------------------------------

             Standard Nuclear Orientation (Angstroms)
    I     Atom           X                Y                Z
 ----------------------------------------------------------------
    1      C      -0.4395080000    -0.4190590000     0.0016090000
    2      C       0.1009920000     0.2299410000     1.1146090000
    3      C       0.9914920000     1.2984410000     0.8222090000
    4      H      -0.1474080000    -0.0682590000     2.1445090000
    5      C       1.1505920000     1.4890410000    -0.5619910000
    6      S       0.1815920000     0.3268410000    -1.4630910000
    7      C       1.6730920000     2.1163410000     1.8840090000
    8      H       1.3862920000     1.7722410000     2.8966090000
    9      H       1.4075920000     3.1916410000     1.8097090000
   10      H       2.7786920000     2.0488410000     1.8098090000
   11      C      -0.4395080000    -1.8691590000     0.0016090000
   12      H       0.6240920000    -1.8696590000    -0.1859910000
   13      H      -0.2768080000    -2.4042590000     0.9255090000
   14      H      -0.5845080000    -2.5563590000    -0.8188910000
   15      H       1.7637920000     2.2250410000    -1.0954910000
 ----------------------------------------------------------------

   10    -629.3968568630      5.98e-07  Convergence criterion met
 Total energy in the final basis set =     -629.3968568630
        RIMP2         total energy =      -630.5789533426 a.u.

                    Orbital Energies (a.u.)
 --------------------------------------------------------------

 Alpha MOs
 -- Occupied --
-91.9752 -11.2761 -11.2606 -11.2489 -11.2312 -11.2279 -11.2201  -8.9757
 -6.6567  -6.6560  -6.6555  -1.1671  -1.0559  -0.9962  -0.9396  -0.8824
 -0.7471  -0.7224  -0.6446  -0.5874  -0.5826  -0.5665  -0.5514  -0.5457
 -0.5078  -0.4961  -0.4602  -0.4513  -0.3395  -0.2892

          Ground-State Mulliken Net Atomic Charges

     Atom                 Charge (a.u.)
  ----------------------------------------
      1 C                     0.021769
      2 C                    -0.278946
      3 C                     0.045755
      4 H                     0.176650
      5 C                    -0.255389
      6 S                    -0.002158
      7 C                    -0.269119
      8 H                     0.101937
      9 H                     0.107957
     10 H                     0.106274
     11 C                    -0.368000
     12 H                     0.140893
     13 H                     0.132393
     14 H                     0.145986
     15 H                     0.193998
  ----------------------------------------
  Sum of atomic charges =     0.000000

                    Cartesian Multipole Moments
 -----------------------------------------------------------------
    Charge (ESU x 10^10)
                -0.0000
    Dipole Moment (Debye)
         X       1.6730      Y      -0.4267      Z       1.4781
       Tot       2.2728
    Quadrupole Moments (Debye-Ang)
        XX     -51.6149     XY       3.4140     YY     -45.9136
        XZ       0.2871     YZ       0.4906     ZZ     -48.3912

 Total job time:  15.94s(wall), 760.53s(cpu)
        *  Thank you very much for using Q-Chem.  Have a nice day.  *
