 Q-Chem 5.4, Q-Chem, Inc., Pleasanton, CA (2021)
 Q-Chem 5.4.0 for Intel X86 EM64T Linux

User input:
--------------------------------------------------------------
$molecule
0 1
C	-0.584043	-0.238938	-0.002733
C	0.145857	0.186062	1.110267
C	1.348157	0.885562	0.817867
H	-0.189543	-0.009138	2.140167
C	1.562757	1.010262	-0.566333
S	0.254657	0.249562	-1.467433
C	2.268357	1.420962	1.879667
H	1.881057	1.195762	2.892267
H	2.386557	2.522262	1.805367
H	3.284157	0.979462	1.805467
C	-0.584043	-1.689038	-0.002733
H	-1.124043	-1.689538	0.932567
H	-1.396343	-2.224138	-0.472033
H	0.137657	-2.376238	0.413567
H	2.390757	1.492062	-1.099833
$end

$rem
JOBTYPE		SP
EXCHANGE	HF
CORRELATION	pRIMP2
BASIS		cc-pvtz
METHOD		rimp2
AUX_BASIS	rimp2-cc-pvtz
SOLVENT_METHOD	PCM
PURECART	11111
SYMMETRY	false
MEM_TOTAL	110000
SCF_CONVERGENCE = 6
THRESH=10
GUI = 2
$end

$solvent
dielectric 4.90
$end
--------------------------------------------------------------

             Standard Nuclear Orientation (Angstroms)
    I     Atom           X                Y                Z
 ----------------------------------------------------------------
    1      C      -0.5840430000    -0.2389380000    -0.0027330000
    2      C       0.1458570000     0.1860620000     1.1102670000
    3      C       1.3481570000     0.8855620000     0.8178670000
    4      H      -0.1895430000    -0.0091380000     2.1401670000
    5      C       1.5627570000     1.0102620000    -0.5663330000
    6      S       0.2546570000     0.2495620000    -1.4674330000
    7      C       2.2683570000     1.4209620000     1.8796670000
    8      H       1.8810570000     1.1957620000     2.8922670000
    9      H       2.3865570000     2.5222620000     1.8053670000
   10      H       3.2841570000     0.9794620000     1.8054670000
   11      C      -0.5840430000    -1.6890380000    -0.0027330000
   12      H      -1.1240430000    -1.6895380000     0.9325670000
   13      H      -1.3963430000    -2.2241380000    -0.4720330000
   14      H       0.1376570000    -2.3762380000     0.4135670000
   15      H       2.3907570000     1.4920620000    -1.0998330000
 ----------------------------------------------------------------

   10    -629.3541329029      9.93e-07  Convergence criterion met
 Total energy in the final basis set =     -629.3541329029
        RIMP2         total energy =      -630.5444531620 a.u.

                    Orbital Energies (a.u.)
 --------------------------------------------------------------

 Alpha MOs
 -- Occupied --
-91.9714 -11.2845 -11.2558 -11.2501 -11.2419 -11.2298 -11.2088  -8.9725
 -6.6533  -6.6524  -6.6522  -1.1733  -1.0546  -1.0007  -0.9347  -0.8846
 -0.7486  -0.7332  -0.6443  -0.5869  -0.5849  -0.5681  -0.5526  -0.5423
 -0.5207  -0.4783  -0.4590  -0.4158  -0.3357  -0.3046

          Ground-State Mulliken Net Atomic Charges

     Atom                 Charge (a.u.)
  ----------------------------------------
      1 C                    -0.111501
      2 C                    -0.115208
      3 C                    -0.025191
      4 H                     0.183809
      5 C                    -0.177274
      6 S                     0.010435
      7 C                    -0.266976
      8 H                     0.102171
      9 H                     0.106942
     10 H                     0.105194
     11 C                    -0.367255
     12 H                     0.101855
     13 H                     0.115775
     14 H                     0.139266
     15 H                     0.197956
  ----------------------------------------
  Sum of atomic charges =     0.000000

                    Cartesian Multipole Moments
 -----------------------------------------------------------------
    Charge (ESU x 10^10)
                -0.0000
    Dipole Moment (Debye)
         X       2.2498      Y       0.2834      Z       2.3063
       Tot       3.2343
    Quadrupole Moments (Debye-Ang)
        XX     -47.5076     XY       4.7968     YY     -50.0192
        XZ      -0.1992     YZ      -0.7703     ZZ     -48.0845

 Total job time:  15.95s(wall), 759.02s(cpu)
        *  Thank you very much for using Q-Chem.  Have a nice day.  *
