 Q-Chem 5.4, Q-Chem, Inc., Pleasanton, CA (2021)
 Q-Chem 5.4.0 for Intel X86 EM64T Linux

User input:
--------------------------------------------------------------
$molecule
0 1
C	-0.590894	-0.238938	0.003987
C	0.139006	0.186062	1.116987
C	1.341306	0.885562	0.824587
H	-0.196394	-0.009138	2.146887
C	1.555906	1.010262	-0.559613
S	0.247806	0.249562	-1.460713
C	2.261506	1.420962	1.886387
H	1.874206	1.195762	2.898987
H	2.379706	2.522262	1.812087
H	3.277306	0.979462	1.812187
C	-0.590894	-1.689038	0.003987
H	0.236406	-1.689538	-0.690213
H	0.012006	-2.224138	0.722787
H	-1.126694	-2.376238	-0.634113
H	2.383906	1.492062	-1.093113
$end

$rem
JOBTYPE		SP
EXCHANGE	HF
CORRELATION	pRIMP2
BASIS		cc-pvtz
METHOD		rimp2
AUX_BASIS	rimp2-cc-pvtz
SOLVENT_METHOD	PCM
PURECART	11111
SYMMETRY	false
MEM_TOTAL	110000
SCF_CONVERGENCE = 6
THRESH=10
GUI = 2
$end

$solvent
dielectric 4.90
$end
--------------------------------------------------------------

             Standard Nuclear Orientation (Angstroms)
    I     Atom           X                Y                Z
 ----------------------------------------------------------------
    1      C      -0.5908940000    -0.2389380000     0.0039870000
    2      C       0.1390060000     0.1860620000     1.1169870000
    3      C       1.3413060000     0.8855620000     0.8245870000
    4      H      -0.1963940000    -0.0091380000     2.1468870000
    5      C       1.5559060000     1.0102620000    -0.5596130000
    6      S       0.2478060000     0.2495620000    -1.4607130000
    7      C       2.2615060000     1.4209620000     1.8863870000
    8      H       1.8742060000     1.1957620000     2.8989870000
    9      H       2.3797060000     2.5222620000     1.8120870000
   10      H       3.2773060000     0.9794620000     1.8121870000
   11      C      -0.5908940000    -1.6890380000     0.0039870000
   12      H       0.2364060000    -1.6895380000    -0.6902130000
   13      H       0.0120060000    -2.2241380000     0.7227870000
   14      H      -1.1266940000    -2.3762380000    -0.6341130000
   15      H       2.3839060000     1.4920620000    -1.0931130000
 ----------------------------------------------------------------

   10    -629.3432069143      7.97e-07  Convergence criterion met
 Total energy in the final basis set =     -629.3432069143
        RIMP2         total energy =      -630.5343050965 a.u.

                    Orbital Energies (a.u.)
 --------------------------------------------------------------

 Alpha MOs
 -- Occupied --
-91.9692 -11.2811 -11.2530 -11.2516 -11.2498 -11.2296 -11.2084  -8.9713
 -6.6521  -6.6512  -6.6509  -1.1778  -1.0588  -0.9961  -0.9412  -0.8788
 -0.7556  -0.7292  -0.6434  -0.5901  -0.5855  -0.5653  -0.5533  -0.5457
 -0.5140  -0.4882  -0.4610  -0.4291  -0.3368  -0.2922

          Ground-State Mulliken Net Atomic Charges

     Atom                 Charge (a.u.)
  ----------------------------------------
      1 C                    -0.076623
      2 C                    -0.145520
      3 C                    -0.014152
      4 H                     0.186260
      5 C                    -0.192265
      6 S                    -0.004137
      7 C                    -0.267553
      8 H                     0.102319
      9 H                     0.107948
     10 H                     0.105608
     11 C                    -0.375764
     12 H                     0.128755
     13 H                     0.124887
     14 H                     0.122023
     15 H                     0.198215
  ----------------------------------------
  Sum of atomic charges =     0.000000

                    Cartesian Multipole Moments
 -----------------------------------------------------------------
    Charge (ESU x 10^10)
                -0.0000
    Dipole Moment (Debye)
         X       2.7991      Y      -0.0408      Z       1.4964
       Tot       3.1743
    Quadrupole Moments (Debye-Ang)
        XX     -48.5786     XY       3.5356     YY     -50.1709
        XZ       0.2201     YZ       1.1095     ZZ     -47.8558

 Total job time:  16.48s(wall), 788.77s(cpu)
        *  Thank you very much for using Q-Chem.  Have a nice day.  *
