 Q-Chem 5.4, Q-Chem, Inc., Pleasanton, CA (2021)
 Q-Chem 5.4.0 for Intel X86 EM64T Linux

User input:
--------------------------------------------------------------
$molecule
0 1
C	-0.587254	-0.238938	-0.003627
C	0.142646	0.186062	1.109373
C	1.344946	0.885562	0.816973
H	-0.192754	-0.009138	2.139273
C	1.559546	1.010262	-0.567227
S	0.251446	0.249562	-1.468327
C	2.265146	1.420962	1.878773
H	1.877846	1.195762	2.891373
H	2.383346	2.522262	1.804473
H	3.280946	0.979462	1.804573
C	-0.587254	-1.689038	-0.003627
H	-0.399654	-1.689538	1.059973
H	-1.511154	-2.224138	0.159073
H	0.233246	-2.376238	-0.148627
H	2.387546	1.492062	-1.100727
$end

$rem
JOBTYPE		SP
EXCHANGE	HF
CORRELATION	pRIMP2
BASIS		cc-pvtz
METHOD		rimp2
AUX_BASIS	rimp2-cc-pvtz
SOLVENT_METHOD	PCM
PURECART	11111
SYMMETRY	false
MEM_TOTAL	110000
SCF_CONVERGENCE = 6
THRESH=10
GUI = 2
$end

$solvent
dielectric 4.90
$end
--------------------------------------------------------------

             Standard Nuclear Orientation (Angstroms)
    I     Atom           X                Y                Z
 ----------------------------------------------------------------
    1      C      -0.5872540000    -0.2389380000    -0.0036270000
    2      C       0.1426460000     0.1860620000     1.1093730000
    3      C       1.3449460000     0.8855620000     0.8169730000
    4      H      -0.1927540000    -0.0091380000     2.1392730000
    5      C       1.5595460000     1.0102620000    -0.5672270000
    6      S       0.2514460000     0.2495620000    -1.4683270000
    7      C       2.2651460000     1.4209620000     1.8787730000
    8      H       1.8778460000     1.1957620000     2.8913730000
    9      H       2.3833460000     2.5222620000     1.8044730000
   10      H       3.2809460000     0.9794620000     1.8045730000
   11      C      -0.5872540000    -1.6890380000    -0.0036270000
   12      H      -0.3996540000    -1.6895380000     1.0599730000
   13      H      -1.5111540000    -2.2241380000     0.1590730000
   14      H       0.2332460000    -2.3762380000    -0.1486270000
   15      H       2.3875460000     1.4920620000    -1.1007270000
 ----------------------------------------------------------------

   11    -629.3436427810      4.96e-07  Convergence criterion met
 Total energy in the final basis set =     -629.3436427810
        RIMP2         total energy =      -630.5355957455 a.u.

                    Orbital Energies (a.u.)
 --------------------------------------------------------------

 Alpha MOs
 -- Occupied --
-91.9742 -11.2838 -11.2550 -11.2489 -11.2425 -11.2297 -11.2059  -8.9748
 -6.6556  -6.6548  -6.6546  -1.1753  -1.0557  -1.0023  -0.9322  -0.8836
 -0.7485  -0.7358  -0.6431  -0.5902  -0.5843  -0.5707  -0.5519  -0.5427
 -0.5205  -0.4716  -0.4525  -0.4307  -0.3280  -0.3058

          Ground-State Mulliken Net Atomic Charges

     Atom                 Charge (a.u.)
  ----------------------------------------
      1 C                    -0.113877
      2 C                    -0.106520
      3 C                    -0.028015
      4 H                     0.181231
      5 C                    -0.180529
      6 S                     0.013544
      7 C                    -0.267725
      8 H                     0.101941
      9 H                     0.106763
     10 H                     0.104389
     11 C                    -0.356990
     12 H                     0.110246
     13 H                     0.101153
     14 H                     0.136330
     15 H                     0.198060
  ----------------------------------------
  Sum of atomic charges =     0.000000

                    Cartesian Multipole Moments
 -----------------------------------------------------------------
    Charge (ESU x 10^10)
                -0.0000
    Dipole Moment (Debye)
         X       2.6252      Y       0.2472      Z       2.3674
       Tot       3.5437
    Quadrupole Moments (Debye-Ang)
        XX     -47.9795     XY       3.8108     YY     -50.2371
        XZ      -0.7121     YZ      -0.8490     ZZ     -48.0118

 Total job time:  21.16s(wall), 837.69s(cpu)
        *  Thank you very much for using Q-Chem.  Have a nice day.  *
