 Q-Chem 5.4, Q-Chem, Inc., Pleasanton, CA (2021)
 Q-Chem 5.4.0 for Intel X86 EM64T Linux

User input:
--------------------------------------------------------------
$molecule
0 1
C	-0.513929	-0.335659	0.000015
C	0.131071	0.209641	1.113015
C	1.193671	1.107341	0.820615
H	-0.165329	-0.040859	2.142915
C	1.383271	1.267341	-0.563585
S	0.227271	0.291041	-1.464685
C	2.006871	1.794341	1.882415
H	1.664671	1.505341	2.895015
H	1.932071	2.899441	1.808115
H	3.083871	1.535941	1.808215
C	-0.513929	-1.785759	0.000015
H	-1.528829	-1.786259	0.369415
H	-0.834629	-2.320859	-0.881585
H	-0.228629	-2.472959	0.782815
H	2.115071	1.885641	-1.097085
$end

$rem
JOBTYPE		SP
EXCHANGE	HF
CORRELATION	pRIMP2
BASIS		cc-pvtz
METHOD		rimp2
AUX_BASIS	rimp2-cc-pvtz
SOLVENT_METHOD	PCM
PURECART	11111
SYMMETRY	false
MEM_TOTAL	110000
SCF_CONVERGENCE = 6
THRESH=10
GUI = 2
$end

$solvent
dielectric 4.90
$end
--------------------------------------------------------------

             Standard Nuclear Orientation (Angstroms)
    I     Atom           X                Y                Z
 ----------------------------------------------------------------
    1      C      -0.5139290000    -0.3356590000     0.0000150000
    2      C       0.1310710000     0.2096410000     1.1130150000
    3      C       1.1936710000     1.1073410000     0.8206150000
    4      H      -0.1653290000    -0.0408590000     2.1429150000
    5      C       1.3832710000     1.2673410000    -0.5635850000
    6      S       0.2272710000     0.2910410000    -1.4646850000
    7      C       2.0068710000     1.7943410000     1.8824150000
    8      H       1.6646710000     1.5053410000     2.8950150000
    9      H       1.9320710000     2.8994410000     1.8081150000
   10      H       3.0838710000     1.5359410000     1.8082150000
   11      C      -0.5139290000    -1.7857590000     0.0000150000
   12      H      -1.5288290000    -1.7862590000     0.3694150000
   13      H      -0.8346290000    -2.3208590000    -0.8815850000
   14      H      -0.2286290000    -2.4729590000     0.7828150000
   15      H       2.1150710000     1.8856410000    -1.0970850000
 ----------------------------------------------------------------

   11    -629.3661961279      4.17e-07  Convergence criterion met
 Total energy in the final basis set =     -629.3661961279
        RIMP2         total energy =      -630.5552918489 a.u.

                    Orbital Energies (a.u.)
 --------------------------------------------------------------

 Alpha MOs
 -- Occupied --
-91.9726 -11.2708 -11.2557 -11.2485 -11.2435 -11.2282 -11.2093  -8.9733
 -6.6542  -6.6533  -6.6530  -1.1665  -1.0525  -0.9968  -0.9388  -0.8836
 -0.7468  -0.7261  -0.6435  -0.5845  -0.5777  -0.5640  -0.5550  -0.5420
 -0.5164  -0.4925  -0.4584  -0.4293  -0.3360  -0.2884

          Ground-State Mulliken Net Atomic Charges

     Atom                 Charge (a.u.)
  ----------------------------------------
      1 C                    -0.052833
      2 C                    -0.192830
      3 C                     0.010999
      4 H                     0.178953
      5 C                    -0.212689
      6 S                     0.007853
      7 C                    -0.269154
      8 H                     0.101637
      9 H                     0.106949
     10 H                     0.105477
     11 C                    -0.390311
     12 H                     0.126751
     13 H                     0.133066
     14 H                     0.152228
     15 H                     0.193903
  ----------------------------------------
  Sum of atomic charges =     0.000000

                    Cartesian Multipole Moments
 -----------------------------------------------------------------
    Charge (ESU x 10^10)
                -0.0000
    Dipole Moment (Debye)
         X       1.0915      Y       0.0043      Z       1.9121
       Tot       2.2017
    Quadrupole Moments (Debye-Ang)
        XX     -49.0564     XY       5.7200     YY     -48.1761
        XZ       0.1094     YZ      -0.3126     ZZ     -47.9885

 Total job time:  16.86s(wall), 804.40s(cpu)
        *  Thank you very much for using Q-Chem.  Have a nice day.  *
