 Q-Chem 5.4, Q-Chem, Inc., Pleasanton, CA (2021)
 Q-Chem 5.4.0 for Intel X86 EM64T Linux

User input:
--------------------------------------------------------------
$molecule
0 1
C	0.005810	-0.576386	0.004709
C	0.002710	0.268214	1.117709
C	-0.001990	1.659214	0.825309
H	0.004110	-0.119886	2.147609
C	-0.002590	1.907314	-0.558891
S	0.002110	0.394214	-1.459991
C	-0.005590	2.723814	1.887109
H	-0.004090	2.275814	2.899709
H	-0.900090	3.376814	1.812809
H	0.884710	3.382714	1.812909
C	0.005810	-2.026486	0.004709
H	-0.821490	-2.026986	-0.689491
H	0.609010	-2.561586	-0.713791
H	-0.529490	-2.713686	0.643209
H	-0.005890	2.865414	-1.092391
$end

$rem
JOBTYPE		SP
EXCHANGE	HF
CORRELATION	pRIMP2
BASIS		cc-pvtz
METHOD		rimp2
AUX_BASIS	rimp2-cc-pvtz
SOLVENT_METHOD	PCM
PURECART	11111
SYMMETRY	false
MEM_TOTAL	110000
SCF_CONVERGENCE = 6
THRESH=10
GUI = 2
$end

$solvent
dielectric 4.90
$end
--------------------------------------------------------------

             Standard Nuclear Orientation (Angstroms)
    I     Atom           X                Y                Z
 ----------------------------------------------------------------
    1      C       0.0058100000    -0.5763860000     0.0047090000
    2      C       0.0027100000     0.2682140000     1.1177090000
    3      C      -0.0019900000     1.6592140000     0.8253090000
    4      H       0.0041100000    -0.1198860000     2.1476090000
    5      C      -0.0025900000     1.9073140000    -0.5588910000
    6      S       0.0021100000     0.3942140000    -1.4599910000
    7      C      -0.0055900000     2.7238140000     1.8871090000
    8      H      -0.0040900000     2.2758140000     2.8997090000
    9      H      -0.9000900000     3.3768140000     1.8128090000
   10      H       0.8847100000     3.3827140000     1.8129090000
   11      C       0.0058100000    -2.0264860000     0.0047090000
   12      H      -0.8214900000    -2.0269860000    -0.6894910000
   13      H       0.6090100000    -2.5615860000    -0.7137910000
   14      H      -0.5294900000    -2.7136860000     0.6432090000
   15      H      -0.0058900000     2.8654140000    -1.0923910000
 ----------------------------------------------------------------

   10    -629.4240921557      6.32e-07  Convergence criterion met
 Total energy in the final basis set =     -629.4240921557
        RIMP2         total energy =      -630.5996820450 a.u.

                    Orbital Energies (a.u.)
 --------------------------------------------------------------

 Alpha MOs
 -- Occupied --
-91.9795 -11.2814 -11.2536 -11.2469 -11.2266 -11.2251 -11.2202  -8.9793
 -6.6603  -6.6598  -6.6592  -1.1602  -1.0541  -0.9958  -0.9443  -0.8830
 -0.7458  -0.7178  -0.6479  -0.5892  -0.5753  -0.5655  -0.5530  -0.5462
 -0.5078  -0.4915  -0.4656  -0.4528  -0.3389  -0.2951

          Ground-State Mulliken Net Atomic Charges

     Atom                 Charge (a.u.)
  ----------------------------------------
      1 C                     0.050413
      2 C                    -0.282214
      3 C                     0.041091
      4 H                     0.180091
      5 C                    -0.264789
      6 S                    -0.004279
      7 C                    -0.273471
      8 H                     0.101644
      9 H                     0.107157
     10 H                     0.107265
     11 C                    -0.375227
     12 H                     0.125328
     13 H                     0.133713
     14 H                     0.158407
     15 H                     0.194869
  ----------------------------------------
  Sum of atomic charges =     0.000000

                    Cartesian Multipole Moments
 -----------------------------------------------------------------
    Charge (ESU x 10^10)
                -0.0000
    Dipole Moment (Debye)
         X      -0.5323      Y      -0.3986      Z       1.0068
       Tot       1.2066
    Quadrupole Moments (Debye-Ang)
        XX     -54.1340     XY       1.1992     YY     -41.7871
        XZ      -0.3278     YZ       1.1763     ZZ     -48.7103

 Total job time:  16.23s(wall), 738.78s(cpu)
        *  Thank you very much for using Q-Chem.  Have a nice day.  *
