 Q-Chem 5.4, Q-Chem, Inc., Pleasanton, CA (2021)
 Q-Chem 5.4.0 for Intel X86 EM64T Linux

User input:
--------------------------------------------------------------
$molecule
0 1
C	-0.523342	-0.335659	-0.000076
C	0.121658	0.209641	1.112924
C	1.184258	1.107341	0.820524
H	-0.174742	-0.040859	2.142824
C	1.373858	1.267341	-0.563676
S	0.217858	0.291041	-1.464776
C	1.997458	1.794341	1.882324
H	1.655258	1.505341	2.894924
H	1.922658	2.899441	1.808024
H	3.074458	1.535941	1.808124
C	-0.523342	-1.785759	-0.000076
H	0.540258	-1.786259	0.187424
H	-0.686442	-2.320859	0.923824
H	-0.378942	-2.472959	-0.820676
H	2.105658	1.885641	-1.097176
$end

$rem
JOBTYPE		SP
EXCHANGE	HF
CORRELATION	pRIMP2
BASIS		cc-pvtz
METHOD		rimp2
AUX_BASIS	rimp2-cc-pvtz
SOLVENT_METHOD	PCM
PURECART	11111
SYMMETRY	false
MEM_TOTAL	110000
SCF_CONVERGENCE = 6
THRESH=10
GUI = 2
$end

$solvent
dielectric 4.90
$end
--------------------------------------------------------------

             Standard Nuclear Orientation (Angstroms)
    I     Atom           X                Y                Z
 ----------------------------------------------------------------
    1      C      -0.5233420000    -0.3356590000    -0.0000760000
    2      C       0.1216580000     0.2096410000     1.1129240000
    3      C       1.1842580000     1.1073410000     0.8205240000
    4      H      -0.1747420000    -0.0408590000     2.1428240000
    5      C       1.3738580000     1.2673410000    -0.5636760000
    6      S       0.2178580000     0.2910410000    -1.4647760000
    7      C       1.9974580000     1.7943410000     1.8823240000
    8      H       1.6552580000     1.5053410000     2.8949240000
    9      H       1.9226580000     2.8994410000     1.8080240000
   10      H       3.0744580000     1.5359410000     1.8081240000
   11      C      -0.5233420000    -1.7857590000    -0.0000760000
   12      H       0.5402580000    -1.7862590000     0.1874240000
   13      H      -0.6864420000    -2.3208590000     0.9238240000
   14      H      -0.3789420000    -2.4729590000    -0.8206760000
   15      H       2.1056580000     1.8856410000    -1.0971760000
 ----------------------------------------------------------------

   10    -629.3745829632      7.04e-07  Convergence criterion met
 Total energy in the final basis set =     -629.3745829632
        RIMP2         total energy =      -630.5622799367 a.u.

                    Orbital Energies (a.u.)
 --------------------------------------------------------------

 Alpha MOs
 -- Occupied --
-91.9774 -11.2682 -11.2678 -11.2504 -11.2352 -11.2286 -11.2170  -8.9778
 -6.6587  -6.6580  -6.6576  -1.1715  -1.0565  -0.9981  -0.9365  -0.8828
 -0.7479  -0.7258  -0.6441  -0.5887  -0.5825  -0.5687  -0.5530  -0.5453
 -0.5103  -0.4905  -0.4592  -0.4486  -0.3377  -0.2881

          Ground-State Mulliken Net Atomic Charges

     Atom                 Charge (a.u.)
  ----------------------------------------
      1 C                    -0.034206
      2 C                    -0.204115
      3 C                     0.013234
      4 H                     0.177612
      5 C                    -0.237182
      6 S                     0.013545
      7 C                    -0.267807
      8 H                     0.102427
      9 H                     0.107615
     10 H                     0.105113
     11 C                    -0.371819
     12 H                     0.130902
     13 H                     0.121141
     14 H                     0.147619
     15 H                     0.195921
  ----------------------------------------
  Sum of atomic charges =     0.000000

                    Cartesian Multipole Moments
 -----------------------------------------------------------------
    Charge (ESU x 10^10)
                -0.0000
    Dipole Moment (Debye)
         X       2.0834      Y      -0.2570      Z       1.6725
       Tot       2.6840
    Quadrupole Moments (Debye-Ang)
        XX     -50.3183     XY       3.7841     YY     -47.8899
        XZ      -0.0342     YZ      -0.0731     ZZ     -48.0234

 Total job time:  18.96s(wall), 785.99s(cpu)
        *  Thank you very much for using Q-Chem.  Have a nice day.  *
