 Q-Chem 5.4, Q-Chem, Inc., Pleasanton, CA (2021)
 Q-Chem 5.4.0 for Intel X86 EM64T Linux

User input:
--------------------------------------------------------------
$molecule
0 1
C	-0.286032	-0.513776	-0.003488
C	0.068168	0.253024	1.109512
C	0.651768	1.515624	0.817112
H	-0.094732	-0.099276	2.139412
C	0.755968	1.740824	-0.567088
S	0.120868	0.367424	-1.468188
C	1.098368	2.482024	1.878912
H	0.910368	2.075424	2.891512
H	0.563568	3.451924	1.804612
H	2.183768	2.703024	1.804712
C	-0.286032	-1.963876	-0.003488
H	0.083368	-1.964376	1.011412
H	-1.167632	-2.498976	0.317212
H	0.496768	-2.651076	-0.288788
H	1.157868	2.610424	-1.100588
$end

$rem
JOBTYPE		SP
EXCHANGE	HF
CORRELATION	pRIMP2
BASIS		cc-pvtz
METHOD		rimp2
AUX_BASIS	rimp2-cc-pvtz
SOLVENT_METHOD	PCM
PURECART	11111
SYMMETRY	false
MEM_TOTAL	110000
SCF_CONVERGENCE = 6
THRESH=10
GUI = 2
$end

$solvent
dielectric 4.90
$end
--------------------------------------------------------------

             Standard Nuclear Orientation (Angstroms)
    I     Atom           X                Y                Z
 ----------------------------------------------------------------
    1      C      -0.2860320000    -0.5137760000    -0.0034880000
    2      C       0.0681680000     0.2530240000     1.1095120000
    3      C       0.6517680000     1.5156240000     0.8171120000
    4      H      -0.0947320000    -0.0992760000     2.1394120000
    5      C       0.7559680000     1.7408240000    -0.5670880000
    6      S       0.1208680000     0.3674240000    -1.4681880000
    7      C       1.0983680000     2.4820240000     1.8789120000
    8      H       0.9103680000     2.0754240000     2.8915120000
    9      H       0.5635680000     3.4519240000     1.8046120000
   10      H       2.1837680000     2.7030240000     1.8047120000
   11      C      -0.2860320000    -1.9638760000    -0.0034880000
   12      H       0.0833680000    -1.9643760000     1.0114120000
   13      H      -1.1676320000    -2.4989760000     0.3172120000
   14      H       0.4967680000    -2.6510760000    -0.2887880000
   15      H       1.1578680000     2.6104240000    -1.1005880000
 ----------------------------------------------------------------

   10    -629.4106051475      5.00e-07  Convergence criterion met
 Total energy in the final basis set =     -629.4106051475
        RIMP2         total energy =      -630.5913178089 a.u.

                    Orbital Energies (a.u.)
 --------------------------------------------------------------

 Alpha MOs
 -- Occupied --
-91.9762 -11.2740 -11.2598 -11.2475 -11.2346 -11.2278 -11.2147  -8.9762
 -6.6571  -6.6566  -6.6561  -1.1627  -1.0526  -0.9994  -0.9374  -0.8849
 -0.7428  -0.7247  -0.6462  -0.5895  -0.5780  -0.5698  -0.5566  -0.5413
 -0.5124  -0.4776  -0.4684  -0.4413  -0.3358  -0.3021

          Ground-State Mulliken Net Atomic Charges

     Atom                 Charge (a.u.)
  ----------------------------------------
      1 C                     0.026290
      2 C                    -0.255496
      3 C                     0.031310
      4 H                     0.174933
      5 C                    -0.247695
      6 S                    -0.001561
      7 C                    -0.271230
      8 H                     0.101371
      9 H                     0.107195
     10 H                     0.106672
     11 C                    -0.372904
     12 H                     0.129310
     13 H                     0.125312
     14 H                     0.153305
     15 H                     0.193188
  ----------------------------------------
  Sum of atomic charges =     0.000000

                    Cartesian Multipole Moments
 -----------------------------------------------------------------
    Charge (ESU x 10^10)
                -0.0000
    Dipole Moment (Debye)
         X       0.8965      Y      -0.0460      Z       2.1523
       Tot       2.3320
    Quadrupole Moments (Debye-Ang)
        XX     -52.4856     XY       2.7314     YY     -44.0294
        XZ      -0.2577     YZ      -0.9331     ZZ     -48.7651

 Total job time:  15.92s(wall), 762.00s(cpu)
        *  Thank you very much for using Q-Chem.  Have a nice day.  *
