 Q-Chem 5.4, Q-Chem, Inc., Pleasanton, CA (2021)
 Q-Chem 5.4.0 for Intel X86 EM64T Linux

User input:
--------------------------------------------------------------
$molecule
0 1
C	-0.582182	-0.238938	0.002537
C	0.147718	0.186062	1.115537
C	1.350018	0.885562	0.823137
H	-0.187682	-0.009138	2.145437
C	1.564618	1.010262	-0.561063
S	0.256518	0.249562	-1.462163
C	2.270218	1.420962	1.884937
H	1.882918	1.195762	2.897537
H	2.388418	2.522262	1.810637
H	3.286018	0.979462	1.810737
C	-0.582182	-1.689038	0.002537
H	-1.645782	-1.689538	-0.184963
H	-0.419082	-2.224138	-0.921363
H	-0.726582	-2.376238	0.823137
H	2.392618	1.492062	-1.094563
$end

$rem
JOBTYPE		SP
EXCHANGE	HF
CORRELATION	pRIMP2
BASIS		cc-pvtz
METHOD		rimp2
AUX_BASIS	rimp2-cc-pvtz
SOLVENT_METHOD	PCM
PURECART	11111
SYMMETRY	false
MEM_TOTAL	110000
SCF_CONVERGENCE = 6
THRESH=10
GUI = 2
$end

$solvent
dielectric 4.90
$end
--------------------------------------------------------------

             Standard Nuclear Orientation (Angstroms)
    I     Atom           X                Y                Z
 ----------------------------------------------------------------
    1      C      -0.5821820000    -0.2389380000     0.0025370000
    2      C       0.1477180000     0.1860620000     1.1155370000
    3      C       1.3500180000     0.8855620000     0.8231370000
    4      H      -0.1876820000    -0.0091380000     2.1454370000
    5      C       1.5646180000     1.0102620000    -0.5610630000
    6      S       0.2565180000     0.2495620000    -1.4621630000
    7      C       2.2702180000     1.4209620000     1.8849370000
    8      H       1.8829180000     1.1957620000     2.8975370000
    9      H       2.3884180000     2.5222620000     1.8106370000
   10      H       3.2860180000     0.9794620000     1.8107370000
   11      C      -0.5821820000    -1.6890380000     0.0025370000
   12      H      -1.6457820000    -1.6895380000    -0.1849630000
   13      H      -0.4190820000    -2.2241380000    -0.9213630000
   14      H      -0.7265820000    -2.3762380000     0.8231370000
   15      H       2.3926180000     1.4920620000    -1.0945630000
 ----------------------------------------------------------------

   11    -629.3366811302      6.60e-07  Convergence criterion met
 Total energy in the final basis set =     -629.3366811302
        RIMP2         total energy =      -630.5289314672 a.u.

                    Orbital Energies (a.u.)
 --------------------------------------------------------------

 Alpha MOs
 -- Occupied --
-91.9731 -11.2805 -11.2509 -11.2482 -11.2414 -11.2285 -11.2045  -8.9740
 -6.6549  -6.6539  -6.6537  -1.1708  -1.0534  -0.9961  -0.9398  -0.8817
 -0.7510  -0.7287  -0.6413  -0.5882  -0.5760  -0.5667  -0.5519  -0.5420
 -0.5172  -0.4908  -0.4579  -0.4225  -0.3344  -0.2845

          Ground-State Mulliken Net Atomic Charges

     Atom                 Charge (a.u.)
  ----------------------------------------
      1 C                    -0.116285
      2 C                    -0.118969
      3 C                    -0.015176
      4 H                     0.185137
      5 C                    -0.187794
      6 S                     0.010744
      7 C                    -0.269036
      8 H                     0.101810
      9 H                     0.106465
     10 H                     0.104041
     11 C                    -0.398399
     12 H                     0.124597
     13 H                     0.131601
     14 H                     0.143502
     15 H                     0.197761
  ----------------------------------------
  Sum of atomic charges =     0.000000

                    Cartesian Multipole Moments
 -----------------------------------------------------------------
    Charge (ESU x 10^10)
                -0.0000
    Dipole Moment (Debye)
         X       1.8084      Y       0.0435      Z       1.6867
       Tot       2.4733
    Quadrupole Moments (Debye-Ang)
        XX     -47.8849     XY       5.2899     YY     -50.0508
        XZ      -0.4133     YZ       0.1710     ZZ     -47.4929

 Total job time:  18.06s(wall), 827.41s(cpu)
        *  Thank you very much for using Q-Chem.  Have a nice day.  *
