 Q-Chem 5.4, Q-Chem, Inc., Pleasanton, CA (2021)
 Q-Chem 5.4.0 for Intel X86 EM64T Linux

User input:
--------------------------------------------------------------
$molecule
0 1
C	-0.113537	-0.566489	0.005666
C	0.030063	0.265811	1.118666
C	0.266963	1.636511	0.826266
H	-0.035937	-0.116589	2.148566
C	0.309463	1.881011	-0.557934
S	0.051363	0.390011	-1.459034
C	0.448363	2.685511	1.888066
H	0.371963	2.244111	2.900666
H	-0.319237	3.484011	1.813766
H	1.439463	3.179911	1.813866
C	-0.113537	-2.016589	0.005666
H	-0.653537	-2.017089	-0.929634
H	0.699063	-2.551689	-0.463234
H	-0.834937	-2.703789	0.422566
H	0.472563	2.825011	-1.091434
$end

$rem
JOBTYPE		SP
EXCHANGE	HF
CORRELATION	pRIMP2
BASIS		cc-pvtz
METHOD		rimp2
AUX_BASIS	rimp2-cc-pvtz
SOLVENT_METHOD	PCM
PURECART	11111
SYMMETRY	false
MEM_TOTAL	110000
SCF_CONVERGENCE = 6
THRESH=10
GUI = 2
$end

$solvent
dielectric 4.90
$end
--------------------------------------------------------------

             Standard Nuclear Orientation (Angstroms)
    I     Atom           X                Y                Z
 ----------------------------------------------------------------
    1      C      -0.1135370000    -0.5664890000     0.0056660000
    2      C       0.0300630000     0.2658110000     1.1186660000
    3      C       0.2669630000     1.6365110000     0.8262660000
    4      H      -0.0359370000    -0.1165890000     2.1485660000
    5      C       0.3094630000     1.8810110000    -0.5579340000
    6      S       0.0513630000     0.3900110000    -1.4590340000
    7      C       0.4483630000     2.6855110000     1.8880660000
    8      H       0.3719630000     2.2441110000     2.9006660000
    9      H      -0.3192370000     3.4840110000     1.8137660000
   10      H       1.4394630000     3.1799110000     1.8138660000
   11      C      -0.1135370000    -2.0165890000     0.0056660000
   12      H      -0.6535370000    -2.0170890000    -0.9296340000
   13      H       0.6990630000    -2.5516890000    -0.4632340000
   14      H      -0.8349370000    -2.7037890000     0.4225660000
   15      H       0.4725630000     2.8250110000    -1.0914340000
 ----------------------------------------------------------------

   10    -629.4206921080      5.53e-07  Convergence criterion met
 Total energy in the final basis set =     -629.4206921080
        RIMP2         total energy =      -630.5979156009 a.u.

                    Orbital Energies (a.u.)
 --------------------------------------------------------------

 Alpha MOs
 -- Occupied --
-91.9807 -11.2767 -11.2572 -11.2471 -11.2276 -11.2269 -11.2176  -8.9804
 -6.6614  -6.6609  -6.6602  -1.1606  -1.0535  -0.9954  -0.9452  -0.8829
 -0.7470  -0.7182  -0.6471  -0.5905  -0.5749  -0.5659  -0.5535  -0.5461
 -0.5088  -0.4874  -0.4649  -0.4482  -0.3384  -0.3005

          Ground-State Mulliken Net Atomic Charges

     Atom                 Charge (a.u.)
  ----------------------------------------
      1 C                     0.034796
      2 C                    -0.257948
      3 C                     0.034730
      4 H                     0.179540
      5 C                    -0.255664
      6 S                    -0.002671
      7 C                    -0.273381
      8 H                     0.101836
      9 H                     0.106927
     10 H                     0.107003
     11 C                    -0.368011
     12 H                     0.115062
     13 H                     0.127080
     14 H                     0.155329
     15 H                     0.195371
  ----------------------------------------
  Sum of atomic charges =     0.000000

                    Cartesian Multipole Moments
 -----------------------------------------------------------------
    Charge (ESU x 10^10)
                -0.0000
    Dipole Moment (Debye)
         X      -0.0689      Y      -0.1032      Z       0.9272
       Tot       0.9355
    Quadrupole Moments (Debye-Ang)
        XX     -53.5622     XY       2.3382     YY     -42.2620
        XZ      -0.1890     YZ       1.3637     ZZ     -48.7932

 Total job time:  15.42s(wall), 749.65s(cpu)
        *  Thank you very much for using Q-Chem.  Have a nice day.  *
