 Q-Chem 5.4, Q-Chem, Inc., Pleasanton, CA (2021)
 Q-Chem 5.4.0 for Intel X86 EM64T Linux

User input:
--------------------------------------------------------------
$molecule
0 1
C	0.006416	-0.576386	-0.001525
C	0.003316	0.268214	1.111475
C	-0.001384	1.659214	0.819075
H	0.004716	-0.119886	2.141375
C	-0.001984	1.907314	-0.565125
S	0.002716	0.394214	-1.466225
C	-0.004984	2.723814	1.880875
H	-0.003484	2.275814	2.893475
H	-0.899484	3.376814	1.806575
H	0.885316	3.382714	1.806675
C	0.006416	-2.026486	-0.001525
H	-0.820884	-2.026986	0.692675
H	-0.596484	-2.561586	-0.720325
H	0.542216	-2.713686	0.636575
H	-0.005284	2.865414	-1.098625
$end

$rem
JOBTYPE		SP
EXCHANGE	HF
CORRELATION	pRIMP2
BASIS		cc-pvtz
METHOD		rimp2
AUX_BASIS	rimp2-cc-pvtz
SOLVENT_METHOD	PCM
PURECART	11111
SYMMETRY	false
MEM_TOTAL	110000
SCF_CONVERGENCE = 6
THRESH=10
GUI = 2
$end

$solvent
dielectric 4.90
$end
--------------------------------------------------------------

             Standard Nuclear Orientation (Angstroms)
    I     Atom           X                Y                Z
 ----------------------------------------------------------------
    1      C       0.0064160000    -0.5763860000    -0.0015250000
    2      C       0.0033160000     0.2682140000     1.1114750000
    3      C      -0.0013840000     1.6592140000     0.8190750000
    4      H       0.0047160000    -0.1198860000     2.1413750000
    5      C      -0.0019840000     1.9073140000    -0.5651250000
    6      S       0.0027160000     0.3942140000    -1.4662250000
    7      C      -0.0049840000     2.7238140000     1.8808750000
    8      H      -0.0034840000     2.2758140000     2.8934750000
    9      H      -0.8994840000     3.3768140000     1.8065750000
   10      H       0.8853160000     3.3827140000     1.8066750000
   11      C       0.0064160000    -2.0264860000    -0.0015250000
   12      H      -0.8208840000    -2.0269860000     0.6926750000
   13      H      -0.5964840000    -2.5615860000    -0.7203250000
   14      H       0.5422160000    -2.7136860000     0.6365750000
   15      H      -0.0052840000     2.8654140000    -1.0986250000
 ----------------------------------------------------------------

   10    -629.4249920372      5.82e-07  Convergence criterion met
 Total energy in the final basis set =     -629.4249920372
        RIMP2         total energy =      -630.6015800040 a.u.

                    Orbital Energies (a.u.)
 --------------------------------------------------------------

 Alpha MOs
 -- Occupied --
-91.9783 -11.2826 -11.2520 -11.2474 -11.2270 -11.2264 -11.2200  -8.9780
 -6.6590  -6.6585  -6.6579  -1.1601  -1.0534  -0.9985  -0.9398  -0.8846
 -0.7425  -0.7204  -0.6485  -0.5887  -0.5739  -0.5660  -0.5592  -0.5430
 -0.5083  -0.4910  -0.4665  -0.4505  -0.3371  -0.2948

          Ground-State Mulliken Net Atomic Charges

     Atom                 Charge (a.u.)
  ----------------------------------------
      1 C                     0.063036
      2 C                    -0.283046
      3 C                     0.038118
      4 H                     0.175411
      5 C                    -0.268344
      6 S                    -0.002358
      7 C                    -0.274965
      8 H                     0.101378
      9 H                     0.107203
     10 H                     0.107309
     11 C                    -0.382359
     12 H                     0.135800
     13 H                     0.138433
     14 H                     0.151225
     15 H                     0.193159
  ----------------------------------------
  Sum of atomic charges =     0.000000

                    Cartesian Multipole Moments
 -----------------------------------------------------------------
    Charge (ESU x 10^10)
                -0.0000
    Dipole Moment (Debye)
         X      -0.5554      Y      -0.4717      Z       1.8811
       Tot       2.0173
    Quadrupole Moments (Debye-Ang)
        XX     -54.1094     XY       1.1424     YY     -41.9744
        XZ       0.2973     YZ      -0.6201     ZZ     -48.6849

 Total job time:  15.79s(wall), 769.43s(cpu)
        *  Thank you very much for using Q-Chem.  Have a nice day.  *
