 Q-Chem 5.4, Q-Chem, Inc., Pleasanton, CA (2021)
 Q-Chem 5.4.0 for Intel X86 EM64T Linux

User input:
--------------------------------------------------------------
$molecule
0 1
C	-0.169036	-0.553870	0.003333
C	0.046564	0.262730	1.116333
C	0.402064	1.607530	0.823933
H	-0.052536	-0.112470	2.146233
C	0.465664	1.847430	-0.560267
S	0.078564	0.384630	-1.461367
C	0.674164	2.636830	1.885733
H	0.559564	2.203730	2.898333
H	-0.020936	3.499130	1.811433
H	1.704664	3.042930	1.811533
C	-0.169036	-2.003970	0.003333
H	-1.183936	-2.004470	-0.366067
H	0.152064	-2.539070	-0.878167
H	-0.453736	-2.691170	0.786333
H	0.710464	2.773630	-1.093767
$end

$rem
JOBTYPE		SP
EXCHANGE	HF
CORRELATION	pRIMP2
BASIS		cc-pvtz
METHOD		rimp2
AUX_BASIS	rimp2-cc-pvtz
SOLVENT_METHOD	PCM
PURECART	11111
SYMMETRY	false
MEM_TOTAL	110000
SCF_CONVERGENCE = 6
THRESH=10
GUI = 2
$end

$solvent
dielectric 4.90
$end
--------------------------------------------------------------

             Standard Nuclear Orientation (Angstroms)
    I     Atom           X                Y                Z
 ----------------------------------------------------------------
    1      C      -0.1690360000    -0.5538700000     0.0033330000
    2      C       0.0465640000     0.2627300000     1.1163330000
    3      C       0.4020640000     1.6075300000     0.8239330000
    4      H      -0.0525360000    -0.1124700000     2.1462330000
    5      C       0.4656640000     1.8474300000    -0.5602670000
    6      S       0.0785640000     0.3846300000    -1.4613670000
    7      C       0.6741640000     2.6368300000     1.8857330000
    8      H       0.5595640000     2.2037300000     2.8983330000
    9      H      -0.0209360000     3.4991300000     1.8114330000
   10      H       1.7046640000     3.0429300000     1.8115330000
   11      C      -0.1690360000    -2.0039700000     0.0033330000
   12      H      -1.1839360000    -2.0044700000    -0.3660670000
   13      H       0.1520640000    -2.5390700000    -0.8781670000
   14      H      -0.4537360000    -2.6911700000     0.7863330000
   15      H       0.7104640000     2.7736300000    -1.0937670000
 ----------------------------------------------------------------

   10    -629.4180124343      6.30e-07  Convergence criterion met
 Total energy in the final basis set =     -629.4180124343
        RIMP2         total energy =      -630.5946752770 a.u.

                    Orbital Energies (a.u.)
 --------------------------------------------------------------

 Alpha MOs
 -- Occupied --
-91.9792 -11.2816 -11.2524 -11.2470 -11.2265 -11.2243 -11.2201  -8.9790
 -6.6600  -6.6595  -6.6589  -1.1601  -1.0539  -0.9962  -0.9431  -0.8833
 -0.7448  -0.7182  -0.6473  -0.5874  -0.5737  -0.5674  -0.5527  -0.5458
 -0.5087  -0.4937  -0.4624  -0.4556  -0.3383  -0.2904

          Ground-State Mulliken Net Atomic Charges

     Atom                 Charge (a.u.)
  ----------------------------------------
      1 C                     0.032585
      2 C                    -0.273089
      3 C                     0.039068
      4 H                     0.178787
      5 C                    -0.268682
      6 S                    -0.002836
      7 C                    -0.272995
      8 H                     0.101448
      9 H                     0.107129
     10 H                     0.107003
     11 C                    -0.378137
     12 H                     0.132472
     13 H                     0.140702
     14 H                     0.161694
     15 H                     0.194850
  ----------------------------------------
  Sum of atomic charges =     0.000000

                    Cartesian Multipole Moments
 -----------------------------------------------------------------
    Charge (ESU x 10^10)
                -0.0000
    Dipole Moment (Debye)
         X      -0.3552      Y      -0.5297      Z       1.1928
       Tot       1.3526
    Quadrupole Moments (Debye-Ang)
        XX     -53.6066     XY       3.6751     YY     -42.3895
        XZ      -0.1249     YZ       0.7249     ZZ     -48.5466

 Total job time:  21.50s(wall), 756.14s(cpu)
        *  Thank you very much for using Q-Chem.  Have a nice day.  *
