 Q-Chem 5.4, Q-Chem, Inc., Pleasanton, CA (2021)
 Q-Chem 5.4.0 for Intel X86 EM64T Linux

User input:
--------------------------------------------------------------
$molecule
0 1
C	-0.282800	-0.513776	0.005666
C	0.071400	0.253024	1.118666
C	0.655000	1.515624	0.826266
H	-0.091500	-0.099276	2.148566
C	0.759200	1.740824	-0.557934
S	0.124100	0.367424	-1.459034
C	1.101600	2.482024	1.888066
H	0.913600	2.075424	2.900666
H	0.566800	3.451924	1.813766
H	2.187000	2.703024	1.813866
C	-0.282800	-1.963876	0.005666
H	-0.822800	-1.964376	-0.929634
H	0.529800	-2.498976	-0.463234
H	-1.004200	-2.651076	0.422566
H	1.161100	2.610424	-1.091434
$end

$rem
JOBTYPE		SP
EXCHANGE	HF
CORRELATION	pRIMP2
BASIS		cc-pvtz
METHOD		rimp2
AUX_BASIS	rimp2-cc-pvtz
SOLVENT_METHOD	PCM
PURECART	11111
SYMMETRY	false
MEM_TOTAL	110000
SCF_CONVERGENCE = 6
THRESH=10
GUI = 2
$end

$solvent
dielectric 4.90
$end
--------------------------------------------------------------

             Standard Nuclear Orientation (Angstroms)
    I     Atom           X                Y                Z
 ----------------------------------------------------------------
    1      C      -0.2828000000    -0.5137760000     0.0056660000
    2      C       0.0714000000     0.2530240000     1.1186660000
    3      C       0.6550000000     1.5156240000     0.8262660000
    4      H      -0.0915000000    -0.0992760000     2.1485660000
    5      C       0.7592000000     1.7408240000    -0.5579340000
    6      S       0.1241000000     0.3674240000    -1.4590340000
    7      C       1.1016000000     2.4820240000     1.8880660000
    8      H       0.9136000000     2.0754240000     2.9006660000
    9      H       0.5668000000     3.4519240000     1.8137660000
   10      H       2.1870000000     2.7030240000     1.8138660000
   11      C      -0.2828000000    -1.9638760000     0.0056660000
   12      H      -0.8228000000    -1.9643760000    -0.9296340000
   13      H       0.5298000000    -2.4989760000    -0.4632340000
   14      H      -1.0042000000    -2.6510760000     0.4225660000
   15      H       1.1611000000     2.6104240000    -1.0914340000
 ----------------------------------------------------------------

   10    -629.4098605860      5.16e-07  Convergence criterion met
 Total energy in the final basis set =     -629.4098605860
        RIMP2         total energy =      -630.5896928002 a.u.

                    Orbital Energies (a.u.)
 --------------------------------------------------------------

 Alpha MOs
 -- Occupied --
-91.9803 -11.2715 -11.2610 -11.2474 -11.2305 -11.2271 -11.2156  -8.9801
 -6.6611  -6.6605  -6.6599  -1.1619  -1.0532  -0.9950  -0.9448  -0.8827
 -0.7477  -0.7193  -0.6456  -0.5904  -0.5749  -0.5669  -0.5529  -0.5458
 -0.5108  -0.4827  -0.4636  -0.4468  -0.3378  -0.3006

          Ground-State Mulliken Net Atomic Charges

     Atom                 Charge (a.u.)
  ----------------------------------------
      1 C                     0.002411
      2 C                    -0.239135
      3 C                     0.032399
      4 H                     0.178730
      5 C                    -0.246458
      6 S                    -0.000164
      7 C                    -0.271814
      8 H                     0.101955
      9 H                     0.106926
     10 H                     0.106343
     11 C                    -0.364685
     12 H                     0.112893
     13 H                     0.132592
     14 H                     0.152642
     15 H                     0.195365
  ----------------------------------------
  Sum of atomic charges =     0.000000

                    Cartesian Multipole Moments
 -----------------------------------------------------------------
    Charge (ESU x 10^10)
                -0.0000
    Dipole Moment (Debye)
         X       0.3941      Y       0.0298      Z       0.9999
       Tot       1.0752
    Quadrupole Moments (Debye-Ang)
        XX     -52.2620     XY       4.2376     YY     -43.7969
        XZ      -0.1003     YZ       1.1779     ZZ     -48.6954

 Total job time:  15.67s(wall), 746.41s(cpu)
        *  Thank you very much for using Q-Chem.  Have a nice day.  *
