 Q-Chem 5.4, Q-Chem, Inc., Pleasanton, CA (2021)
 Q-Chem 5.4.0 for Intel X86 EM64T Linux

User input:
--------------------------------------------------------------
$molecule
0 1
C	-0.059550	-0.574004	-0.002787
C	0.010950	0.267696	1.110213
C	0.127550	1.653696	0.817813
H	-0.021450	-0.119104	2.140113
C	0.148550	1.900996	-0.566387
S	0.021350	0.393196	-1.467487
C	0.216750	2.714596	1.879613
H	0.179150	2.268196	2.892213
H	-0.617550	3.443096	1.805313
H	1.161050	3.293496	1.805413
C	-0.059550	-2.024104	-0.002787
H	0.634650	-2.024604	0.824513
H	-0.778350	-2.559204	0.600113
H	0.578550	-2.711304	-0.538587
H	0.228750	2.855696	-1.099887
$end

$rem
JOBTYPE		SP
EXCHANGE	HF
CORRELATION	pRIMP2
BASIS		cc-pvtz
METHOD		rimp2
AUX_BASIS	rimp2-cc-pvtz
SOLVENT_METHOD	PCM
PURECART	11111
SYMMETRY	false
MEM_TOTAL	110000
SCF_CONVERGENCE = 6
THRESH=10
GUI = 2
$end

$solvent
dielectric 4.90
$end
--------------------------------------------------------------

             Standard Nuclear Orientation (Angstroms)
    I     Atom           X                Y                Z
 ----------------------------------------------------------------
    1      C      -0.0595500000    -0.5740040000    -0.0027870000
    2      C       0.0109500000     0.2676960000     1.1102130000
    3      C       0.1275500000     1.6536960000     0.8178130000
    4      H      -0.0214500000    -0.1191040000     2.1401130000
    5      C       0.1485500000     1.9009960000    -0.5663870000
    6      S       0.0213500000     0.3931960000    -1.4674870000
    7      C       0.2167500000     2.7145960000     1.8796130000
    8      H       0.1791500000     2.2681960000     2.8922130000
    9      H      -0.6175500000     3.4430960000     1.8053130000
   10      H       1.1610500000     3.2934960000     1.8054130000
   11      C      -0.0595500000    -2.0241040000    -0.0027870000
   12      H       0.6346500000    -2.0246040000     0.8245130000
   13      H      -0.7783500000    -2.5592040000     0.6001130000
   14      H       0.5785500000    -2.7113040000    -0.5385870000
   15      H       0.2287500000     2.8556960000    -1.0998870000
 ----------------------------------------------------------------

   10    -629.4243895215      5.54e-07  Convergence criterion met
 Total energy in the final basis set =     -629.4243895215
        RIMP2         total energy =      -630.6015518878 a.u.

                    Orbital Energies (a.u.)
 --------------------------------------------------------------

 Alpha MOs
 -- Occupied --
-91.9773 -11.2819 -11.2530 -11.2475 -11.2285 -11.2272 -11.2191  -8.9771
 -6.6581  -6.6575  -6.6570  -1.1604  -1.0532  -0.9990  -0.9390  -0.8849
 -0.7422  -0.7212  -0.6474  -0.5908  -0.5751  -0.5687  -0.5581  -0.5423
 -0.5093  -0.4875  -0.4672  -0.4473  -0.3368  -0.2970

          Ground-State Mulliken Net Atomic Charges

     Atom                 Charge (a.u.)
  ----------------------------------------
      1 C                     0.060206
      2 C                    -0.271282
      3 C                     0.032632
      4 H                     0.175741
      5 C                    -0.264559
      6 S                    -0.004554
      7 C                    -0.274234
      8 H                     0.101287
      9 H                     0.107342
     10 H                     0.107172
     11 C                    -0.385805
     12 H                     0.133798
     13 H                     0.134534
     14 H                     0.154843
     15 H                     0.192879
  ----------------------------------------
  Sum of atomic charges =     0.000000

                    Cartesian Multipole Moments
 -----------------------------------------------------------------
    Charge (ESU x 10^10)
                -0.0000
    Dipole Moment (Debye)
         X       0.5447      Y      -0.3996      Z       1.9930
       Tot       2.1044
    Quadrupole Moments (Debye-Ang)
        XX     -53.9641     XY      -0.3653     YY     -42.1021
        XZ      -0.2984     YZ      -0.6312     ZZ     -48.7833

 Total job time:  22.48s(wall), 765.75s(cpu)
        *  Thank you very much for using Q-Chem.  Have a nice day.  *
