 Q-Chem 5.4, Q-Chem, Inc., Pleasanton, CA (2021)
 Q-Chem 5.4.0 for Intel X86 EM64T Linux

User input:
--------------------------------------------------------------
$molecule
0 1
C	-0.225285	-0.536244	0.000015
C	0.060715	0.258456	1.113015
C	0.532015	1.567156	0.820615
H	-0.070785	-0.106644	2.142915
C	0.616315	1.800556	-0.563585
S	0.103215	0.377056	-1.464685
C	0.892815	2.568756	1.882415
H	0.740915	2.147356	2.895015
H	0.275515	3.488456	1.808115
H	1.954715	2.883556	1.808215
C	-0.225285	-1.986344	0.000015
H	-1.240185	-1.986844	0.369415
H	-0.545985	-2.521444	-0.881585
H	0.060015	-2.673544	0.782815
H	0.940815	2.701956	-1.097085
$end

$rem
JOBTYPE		SP
EXCHANGE	HF
CORRELATION	pRIMP2
BASIS		cc-pvtz
METHOD		rimp2
AUX_BASIS	rimp2-cc-pvtz
SOLVENT_METHOD	PCM
PURECART	11111
SYMMETRY	false
MEM_TOTAL	110000
SCF_CONVERGENCE = 6
THRESH=10
GUI = 2
$end

$solvent
dielectric 4.90
$end
--------------------------------------------------------------

             Standard Nuclear Orientation (Angstroms)
    I     Atom           X                Y                Z
 ----------------------------------------------------------------
    1      C      -0.2252850000    -0.5362440000     0.0000150000
    2      C       0.0607150000     0.2584560000     1.1130150000
    3      C       0.5320150000     1.5671560000     0.8206150000
    4      H      -0.0707850000    -0.1066440000     2.1429150000
    5      C       0.6163150000     1.8005560000    -0.5635850000
    6      S       0.1032150000     0.3770560000    -1.4646850000
    7      C       0.8928150000     2.5687560000     1.8824150000
    8      H       0.7409150000     2.1473560000     2.8950150000
    9      H       0.2755150000     3.4884560000     1.8081150000
   10      H       1.9547150000     2.8835560000     1.8082150000
   11      C      -0.2252850000    -1.9863440000     0.0000150000
   12      H      -1.2401850000    -1.9868440000     0.3694150000
   13      H      -0.5459850000    -2.5214440000    -0.8815850000
   14      H       0.0600150000    -2.6735440000     0.7828150000
   15      H       0.9408150000     2.7019560000    -1.0970850000
 ----------------------------------------------------------------

   10    -629.4145158113      5.98e-07  Convergence criterion met
 Total energy in the final basis set =     -629.4145158113
        RIMP2         total energy =      -630.5930647400 a.u.

                    Orbital Energies (a.u.)
 --------------------------------------------------------------

 Alpha MOs
 -- Occupied --
-91.9776 -11.2798 -11.2531 -11.2475 -11.2270 -11.2269 -11.2190  -8.9775
 -6.6584  -6.6578  -6.6572  -1.1603  -1.0533  -0.9974  -0.9408  -0.8842
 -0.7434  -0.7199  -0.6474  -0.5859  -0.5738  -0.5657  -0.5574  -0.5438
 -0.5101  -0.4947  -0.4607  -0.4520  -0.3373  -0.2903

          Ground-State Mulliken Net Atomic Charges

     Atom                 Charge (a.u.)
  ----------------------------------------
      1 C                     0.042699
      2 C                    -0.299523
      3 C                     0.050548
      4 H                     0.174349
      5 C                    -0.267938
      6 S                     0.005271
      7 C                    -0.272332
      8 H                     0.101479
      9 H                     0.107122
     10 H                     0.107101
     11 C                    -0.377904
     12 H                     0.136877
     13 H                     0.138672
     14 H                     0.161159
     15 H                     0.192421
  ----------------------------------------
  Sum of atomic charges =     0.000000

                    Cartesian Multipole Moments
 -----------------------------------------------------------------
    Charge (ESU x 10^10)
                -0.0000
    Dipole Moment (Debye)
         X      -0.2518      Y      -0.4928      Z       1.6994
       Tot       1.7872
    Quadrupole Moments (Debye-Ang)
        XX     -53.0907     XY       4.2746     YY     -43.0436
        XZ       0.2724     YZ      -0.2357     ZZ     -48.4984

 Total job time:  20.61s(wall), 740.22s(cpu)
        *  Thank you very much for using Q-Chem.  Have a nice day.  *
