 Q-Chem 5.4, Q-Chem, Inc., Pleasanton, CA (2021)
 Q-Chem 5.4.0 for Intel X86 EM64T Linux

User input:
--------------------------------------------------------------
$molecule
0 1
C	-0.515892	-0.335659	0.005249
C	0.129108	0.209641	1.118249
C	1.191708	1.107341	0.825849
H	-0.167292	-0.040859	2.148149
C	1.381308	1.267341	-0.558351
S	0.225308	0.291041	-1.459451
C	2.004908	1.794341	1.887649
H	1.662708	1.505341	2.900249
H	1.930108	2.899441	1.813349
H	3.081908	1.535941	1.813449
C	-0.515892	-1.785759	0.005249
H	-1.210092	-1.786259	-0.822051
H	0.202908	-2.320859	-0.597651
H	-1.153992	-2.472959	0.541049
H	2.113108	1.885641	-1.091851
$end

$rem
JOBTYPE		SP
EXCHANGE	HF
CORRELATION	pRIMP2
BASIS		cc-pvtz
METHOD		rimp2
AUX_BASIS	rimp2-cc-pvtz
SOLVENT_METHOD	PCM
PURECART	11111
SYMMETRY	false
MEM_TOTAL	110000
SCF_CONVERGENCE = 6
THRESH=10
GUI = 2
$end

$solvent
dielectric 4.90
$end
--------------------------------------------------------------

             Standard Nuclear Orientation (Angstroms)
    I     Atom           X                Y                Z
 ----------------------------------------------------------------
    1      C      -0.5158920000    -0.3356590000     0.0052490000
    2      C       0.1291080000     0.2096410000     1.1182490000
    3      C       1.1917080000     1.1073410000     0.8258490000
    4      H      -0.1672920000    -0.0408590000     2.1481490000
    5      C       1.3813080000     1.2673410000    -0.5583510000
    6      S       0.2253080000     0.2910410000    -1.4594510000
    7      C       2.0049080000     1.7943410000     1.8876490000
    8      H       1.6627080000     1.5053410000     2.9002490000
    9      H       1.9301080000     2.8994410000     1.8133490000
   10      H       3.0819080000     1.5359410000     1.8134490000
   11      C      -0.5158920000    -1.7857590000     0.0052490000
   12      H      -1.2100920000    -1.7862590000    -0.8220510000
   13      H       0.2029080000    -2.3208590000    -0.5976510000
   14      H      -1.1539920000    -2.4729590000     0.5410490000
   15      H       2.1131080000     1.8856410000    -1.0918510000
 ----------------------------------------------------------------

   10    -629.3698961150      9.86e-07  Convergence criterion met
 Total energy in the final basis set =     -629.3698961150
        RIMP2         total energy =      -630.5571764082 a.u.

                    Orbital Energies (a.u.)
 --------------------------------------------------------------

 Alpha MOs
 -- Occupied --
-91.9775 -11.2750 -11.2527 -11.2484 -11.2426 -11.2281 -11.2097  -8.9779
 -6.6588  -6.6581  -6.6577  -1.1679  -1.0536  -0.9948  -0.9432  -0.8815
 -0.7511  -0.7246  -0.6422  -0.5909  -0.5765  -0.5683  -0.5516  -0.5447
 -0.5159  -0.4771  -0.4561  -0.4397  -0.3359  -0.2978

          Ground-State Mulliken Net Atomic Charges

     Atom                 Charge (a.u.)
  ----------------------------------------
      1 C                    -0.080213
      2 C                    -0.150254
      3 C                     0.000364
      4 H                     0.181014
      5 C                    -0.204626
      6 S                     0.006862
      7 C                    -0.269337
      8 H                     0.101962
      9 H                     0.106772
     10 H                     0.104764
     11 C                    -0.376931
     12 H                     0.110129
     13 H                     0.132153
     14 H                     0.139839
     15 H                     0.197500
  ----------------------------------------
  Sum of atomic charges =     0.000000

                    Cartesian Multipole Moments
 -----------------------------------------------------------------
    Charge (ESU x 10^10)
                -0.0000
    Dipole Moment (Debye)
         X       1.4941      Y       0.2500      Z       1.2857
       Tot       1.9869
    Quadrupole Moments (Debye-Ang)
        XX     -48.9419     XY       5.5266     YY     -48.1323
        XZ      -0.3339     YZ       0.6506     ZZ     -48.1692

 Total job time:  16.95s(wall), 745.89s(cpu)
        *  Thank you very much for using Q-Chem.  Have a nice day.  *
