 Q-Chem 5.4, Q-Chem, Inc., Pleasanton, CA (2021)
 Q-Chem 5.4.0 for Intel X86 EM64T Linux

User input:
--------------------------------------------------------------
$molecule
0 1
C	-0.437407	-0.419059	-0.002787
C	0.103093	0.229941	1.110213
C	0.993593	1.298441	0.817813
H	-0.145307	-0.068259	2.140113
C	1.152693	1.489041	-0.566387
S	0.183693	0.326841	-1.467487
C	1.675193	2.116341	1.879613
H	1.388393	1.772241	2.892213
H	1.409693	3.191641	1.805313
H	2.780793	2.048841	1.805413
C	-0.437407	-1.869159	-0.002787
H	0.256793	-1.869659	0.824513
H	-1.156207	-2.404259	0.600113
H	0.200693	-2.556359	-0.538587
H	1.765893	2.225041	-1.099887
$end

$rem
JOBTYPE		SP
EXCHANGE	HF
CORRELATION	pRIMP2
BASIS		cc-pvtz
METHOD		rimp2
AUX_BASIS	rimp2-cc-pvtz
SOLVENT_METHOD	PCM
PURECART	11111
SYMMETRY	false
MEM_TOTAL	110000
SCF_CONVERGENCE = 6
THRESH=10
GUI = 2
$end

$solvent
dielectric 4.90
$end
--------------------------------------------------------------

             Standard Nuclear Orientation (Angstroms)
    I     Atom           X                Y                Z
 ----------------------------------------------------------------
    1      C      -0.4374070000    -0.4190590000    -0.0027870000
    2      C       0.1030930000     0.2299410000     1.1102130000
    3      C       0.9935930000     1.2984410000     0.8178130000
    4      H      -0.1453070000    -0.0682590000     2.1401130000
    5      C       1.1526930000     1.4890410000    -0.5663870000
    6      S       0.1836930000     0.3268410000    -1.4674870000
    7      C       1.6751930000     2.1163410000     1.8796130000
    8      H       1.3883930000     1.7722410000     2.8922130000
    9      H       1.4096930000     3.1916410000     1.8053130000
   10      H       2.7807930000     2.0488410000     1.8054130000
   11      C      -0.4374070000    -1.8691590000    -0.0027870000
   12      H       0.2567930000    -1.8696590000     0.8245130000
   13      H      -1.1562070000    -2.4042590000     0.6001130000
   14      H       0.2006930000    -2.5563590000    -0.5385870000
   15      H       1.7658930000     2.2250410000    -1.0998870000
 ----------------------------------------------------------------

   10    -629.3858289774      6.28e-07  Convergence criterion met
 Total energy in the final basis set =     -629.3858289774
        RIMP2         total energy =      -630.5715469291 a.u.

                    Orbital Energies (a.u.)
 --------------------------------------------------------------

 Alpha MOs
 -- Occupied --
-91.9782 -11.2691 -11.2627 -11.2484 -11.2347 -11.2281 -11.2121  -8.9781
 -6.6590  -6.6583  -6.6579  -1.1663  -1.0537  -0.9991  -0.9355  -0.8837
 -0.7441  -0.7256  -0.6442  -0.5886  -0.5768  -0.5728  -0.5548  -0.5427
 -0.5137  -0.4744  -0.4634  -0.4488  -0.3339  -0.2941

          Ground-State Mulliken Net Atomic Charges

     Atom                 Charge (a.u.)
  ----------------------------------------
      1 C                    -0.015252
      2 C                    -0.217394
      3 C                     0.016173
      4 H                     0.176576
      5 C                    -0.241615
      6 S                     0.009679
      7 C                    -0.269427
      8 H                     0.101543
      9 H                     0.107316
     10 H                     0.105475
     11 C                    -0.386223
     12 H                     0.140633
     13 H                     0.121350
     14 H                     0.157224
     15 H                     0.193942
  ----------------------------------------
  Sum of atomic charges =     0.000000

                    Cartesian Multipole Moments
 -----------------------------------------------------------------
    Charge (ESU x 10^10)
                -0.0000
    Dipole Moment (Debye)
         X       1.5769      Y      -0.1071      Z       2.0372
       Tot       2.5785
    Quadrupole Moments (Debye-Ang)
        XX     -51.1222     XY       3.4089     YY     -46.5118
        XZ      -0.3559     YZ      -0.7230     ZZ     -48.3234

 Total job time:  16.29s(wall), 767.05s(cpu)
        *  Thank you very much for using Q-Chem.  Have a nice day.  *
