 Q-Chem 5.4, Q-Chem, Inc., Pleasanton, CA (2021)
 Q-Chem 5.4.0 for Intel X86 EM64T Linux

User input:
--------------------------------------------------------------
$molecule
0 1
C	-0.520750	-0.335659	0.005627
C	0.124250	0.209641	1.118627
C	1.186850	1.107341	0.826227
H	-0.172150	-0.040859	2.148527
C	1.376450	1.267341	-0.557973
S	0.220450	0.291041	-1.459073
C	2.000050	1.794341	1.888027
H	1.657850	1.505341	2.900627
H	1.925250	2.899441	1.813727
H	3.077050	1.535941	1.813827
C	-0.520750	-1.785759	0.005627
H	-0.151350	-1.786259	-1.009273
H	0.360750	-2.320859	0.326727
H	-1.303750	-2.472959	-0.279073
H	2.108250	1.885641	-1.091473
$end

$rem
JOBTYPE		SP
EXCHANGE	HF
CORRELATION	pRIMP2
BASIS		cc-pvtz
METHOD		rimp2
AUX_BASIS	rimp2-cc-pvtz
SOLVENT_METHOD	PCM
PURECART	11111
SYMMETRY	false
MEM_TOTAL	110000
SCF_CONVERGENCE = 6
THRESH=10
GUI = 2
$end

$solvent
dielectric 4.90
$end
--------------------------------------------------------------

             Standard Nuclear Orientation (Angstroms)
    I     Atom           X                Y                Z
 ----------------------------------------------------------------
    1      C      -0.5207500000    -0.3356590000     0.0056270000
    2      C       0.1242500000     0.2096410000     1.1186270000
    3      C       1.1868500000     1.1073410000     0.8262270000
    4      H      -0.1721500000    -0.0408590000     2.1485270000
    5      C       1.3764500000     1.2673410000    -0.5579730000
    6      S       0.2204500000     0.2910410000    -1.4590730000
    7      C       2.0000500000     1.7943410000     1.8880270000
    8      H       1.6578500000     1.5053410000     2.9006270000
    9      H       1.9252500000     2.8994410000     1.8137270000
   10      H       3.0770500000     1.5359410000     1.8138270000
   11      C      -0.5207500000    -1.7857590000     0.0056270000
   12      H      -0.1513500000    -1.7862590000    -1.0092730000
   13      H       0.3607500000    -2.3208590000     0.3267270000
   14      H      -1.3037500000    -2.4729590000    -0.2790730000
   15      H       2.1082500000     1.8856410000    -1.0914730000
 ----------------------------------------------------------------

   10    -629.3675878635      8.05e-07  Convergence criterion met
 Total energy in the final basis set =     -629.3675878635
        RIMP2         total energy =      -630.5552994027 a.u.

                    Orbital Energies (a.u.)
 --------------------------------------------------------------

 Alpha MOs
 -- Occupied --
-91.9737 -11.2744 -11.2557 -11.2477 -11.2449 -11.2283 -11.2085  -8.9749
 -6.6557  -6.6549  -6.6545  -1.1703  -1.0558  -0.9941  -0.9435  -0.8794
 -0.7532  -0.7246  -0.6436  -0.5899  -0.5800  -0.5657  -0.5510  -0.5470
 -0.5151  -0.4727  -0.4630  -0.4380  -0.3329  -0.3022

          Ground-State Mulliken Net Atomic Charges

     Atom                 Charge (a.u.)
  ----------------------------------------
      1 C                    -0.055706
      2 C                    -0.176087
      3 C                     0.010967
      4 H                     0.180502
      5 C                    -0.212012
      6 S                    -0.000050
      7 C                    -0.268624
      8 H                     0.102036
      9 H                     0.107259
     10 H                     0.104846
     11 C                    -0.374095
     12 H                     0.128714
     13 H                     0.129290
     14 H                     0.125589
     15 H                     0.197371
  ----------------------------------------
  Sum of atomic charges =     0.000000

                    Cartesian Multipole Moments
 -----------------------------------------------------------------
    Charge (ESU x 10^10)
                -0.0000
    Dipole Moment (Debye)
         X       2.0508      Y       0.1854      Z       1.1238
       Tot       2.3459
    Quadrupole Moments (Debye-Ang)
        XX     -49.4107     XY       4.1834     YY     -48.4255
        XZ       0.3342     YZ       1.3464     ZZ     -48.1482

 Total job time:  15.44s(wall), 750.09s(cpu)
        *  Thank you very much for using Q-Chem.  Have a nice day.  *
