 Q-Chem 5.4, Q-Chem, Inc., Pleasanton, CA (2021)
 Q-Chem 5.4.0 for Intel X86 EM64T Linux

User input:
--------------------------------------------------------------
$molecule
0 1
C	-0.286918	-0.513776	0.005627
C	0.067282	0.253024	1.118627
C	0.650882	1.515624	0.826227
H	-0.095618	-0.099276	2.148527
C	0.755082	1.740824	-0.557973
S	0.119982	0.367424	-1.459073
C	1.097482	2.482024	1.888027
H	0.909482	2.075424	2.900627
H	0.562682	3.451924	1.813727
H	2.182882	2.703024	1.813827
C	-0.286918	-1.963876	0.005627
H	0.082482	-1.964376	-1.009273
H	0.594582	-2.498976	0.326727
H	-1.069918	-2.651076	-0.279073
H	1.156982	2.610424	-1.091473
$end

$rem
JOBTYPE		SP
EXCHANGE	HF
CORRELATION	pRIMP2
BASIS		cc-pvtz
METHOD		rimp2
AUX_BASIS	rimp2-cc-pvtz
SOLVENT_METHOD	PCM
PURECART	11111
SYMMETRY	false
MEM_TOTAL	110000
SCF_CONVERGENCE = 6
THRESH=10
GUI = 2
$end

$solvent
dielectric 4.90
$end
--------------------------------------------------------------

             Standard Nuclear Orientation (Angstroms)
    I     Atom           X                Y                Z
 ----------------------------------------------------------------
    1      C      -0.2869180000    -0.5137760000     0.0056270000
    2      C       0.0672820000     0.2530240000     1.1186270000
    3      C       0.6508820000     1.5156240000     0.8262270000
    4      H      -0.0956180000    -0.0992760000     2.1485270000
    5      C       0.7550820000     1.7408240000    -0.5579730000
    6      S       0.1199820000     0.3674240000    -1.4590730000
    7      C       1.0974820000     2.4820240000     1.8880270000
    8      H       0.9094820000     2.0754240000     2.9006270000
    9      H       0.5626820000     3.4519240000     1.8137270000
   10      H       2.1828820000     2.7030240000     1.8138270000
   11      C      -0.2869180000    -1.9638760000     0.0056270000
   12      H       0.0824820000    -1.9643760000    -1.0092730000
   13      H       0.5945820000    -2.4989760000     0.3267270000
   14      H      -1.0699180000    -2.6510760000    -0.2790730000
   15      H       1.1569820000     2.6104240000    -1.0914730000
 ----------------------------------------------------------------

   10    -629.4101094216      5.45e-07  Convergence criterion met
 Total energy in the final basis set =     -629.4101094216
        RIMP2         total energy =      -630.5899513497 a.u.

                    Orbital Energies (a.u.)
 --------------------------------------------------------------

 Alpha MOs
 -- Occupied --
-91.9783 -11.2721 -11.2609 -11.2472 -11.2320 -11.2273 -11.2153  -8.9785
 -6.6594  -6.6589  -6.6583  -1.1627  -1.0539  -0.9946  -0.9447  -0.8819
 -0.7485  -0.7195  -0.6458  -0.5904  -0.5767  -0.5656  -0.5523  -0.5466
 -0.5102  -0.4840  -0.4639  -0.4447  -0.3375  -0.3025

          Ground-State Mulliken Net Atomic Charges

     Atom                 Charge (a.u.)
  ----------------------------------------
      1 C                     0.029523
      2 C                    -0.266488
      3 C                     0.047523
      4 H                     0.178245
      5 C                    -0.252561
      6 S                    -0.003708
      7 C                    -0.271288
      8 H                     0.102005
      9 H                     0.107266
     10 H                     0.106354
     11 C                    -0.369364
     12 H                     0.120475
     13 H                     0.136020
     14 H                     0.140384
     15 H                     0.195614
  ----------------------------------------
  Sum of atomic charges =     0.000000

                    Cartesian Multipole Moments
 -----------------------------------------------------------------
    Charge (ESU x 10^10)
                -0.0000
    Dipole Moment (Debye)
         X       0.9404      Y       0.0204      Z       0.9499
       Tot       1.3368
    Quadrupole Moments (Debye-Ang)
        XX     -52.4840     XY       2.9783     YY     -43.9702
        XZ       0.4282     YZ       1.5113     ZZ     -48.6748

 Total job time:  17.38s(wall), 756.51s(cpu)
        *  Thank you very much for using Q-Chem.  Have a nice day.  *
