 Q-Chem 5.4, Q-Chem, Inc., Pleasanton, CA (2021)
 Q-Chem 5.4.0 for Intel X86 EM64T Linux

User input:
--------------------------------------------------------------
$molecule
0 1
C	-0.173810	-0.553870	-0.003627
C	0.041790	0.262730	1.109373
C	0.397290	1.607530	0.816973
H	-0.057310	-0.112470	2.139273
C	0.460890	1.847430	-0.567227
S	0.073790	0.384630	-1.468327
C	0.669390	2.636830	1.878773
H	0.554790	2.203730	2.891373
H	-0.025710	3.499130	1.804473
H	1.699890	3.042930	1.804573
C	-0.173810	-2.003970	-0.003627
H	0.013790	-2.004470	1.059973
H	-1.097710	-2.539070	0.159073
H	0.646690	-2.691170	-0.148627
H	0.705690	2.773630	-1.100727
$end

$rem
JOBTYPE		SP
EXCHANGE	HF
CORRELATION	pRIMP2
BASIS		cc-pvtz
METHOD		rimp2
AUX_BASIS	rimp2-cc-pvtz
SOLVENT_METHOD	PCM
PURECART	11111
SYMMETRY	false
MEM_TOTAL	110000
SCF_CONVERGENCE = 6
THRESH=10
GUI = 2
$end

$solvent
dielectric 4.90
$end
--------------------------------------------------------------

             Standard Nuclear Orientation (Angstroms)
    I     Atom           X                Y                Z
 ----------------------------------------------------------------
    1      C      -0.1738100000    -0.5538700000    -0.0036270000
    2      C       0.0417900000     0.2627300000     1.1093730000
    3      C       0.3972900000     1.6075300000     0.8169730000
    4      H      -0.0573100000    -0.1124700000     2.1392730000
    5      C       0.4608900000     1.8474300000    -0.5672270000
    6      S       0.0737900000     0.3846300000    -1.4683270000
    7      C       0.6693900000     2.6368300000     1.8787730000
    8      H       0.5547900000     2.2037300000     2.8913730000
    9      H      -0.0257100000     3.4991300000     1.8044730000
   10      H       1.6998900000     3.0429300000     1.8045730000
   11      C      -0.1738100000    -2.0039700000    -0.0036270000
   12      H       0.0137900000    -2.0044700000     1.0599730000
   13      H      -1.0977100000    -2.5390700000     0.1590730000
   14      H       0.6466900000    -2.6911700000    -0.1486270000
   15      H       0.7056900000     2.7736300000    -1.1007270000
 ----------------------------------------------------------------

   10    -629.4207617188      4.88e-07  Convergence criterion met
 Total energy in the final basis set =     -629.4207617188
        RIMP2         total energy =      -630.5994409372 a.u.

                    Orbital Energies (a.u.)
 --------------------------------------------------------------

 Alpha MOs
 -- Occupied --
-91.9756 -11.2763 -11.2588 -11.2473 -11.2344 -11.2277 -11.2163  -8.9757
 -6.6566  -6.6560  -6.6555  -1.1615  -1.0524  -0.9996  -0.9384  -0.8854
 -0.7425  -0.7242  -0.6473  -0.5903  -0.5781  -0.5681  -0.5579  -0.5411
 -0.5112  -0.4825  -0.4681  -0.4390  -0.3371  -0.3045

          Ground-State Mulliken Net Atomic Charges

     Atom                 Charge (a.u.)
  ----------------------------------------
      1 C                     0.045874
      2 C                    -0.264902
      3 C                     0.032445
      4 H                     0.175599
      5 C                    -0.249325
      6 S                    -0.005526
      7 C                    -0.272601
      8 H                     0.101243
      9 H                     0.107168
     10 H                     0.107186
     11 C                    -0.367079
     12 H                     0.122823
     13 H                     0.127304
     14 H                     0.146233
     15 H                     0.193556
  ----------------------------------------
  Sum of atomic charges =     0.000000

                    Cartesian Multipole Moments
 -----------------------------------------------------------------
    Charge (ESU x 10^10)
                -0.0000
    Dipole Moment (Debye)
         X       0.4970      Y      -0.0426      Z       2.1661
       Tot       2.2228
    Quadrupole Moments (Debye-Ang)
        XX     -53.2150     XY       1.8148     YY     -42.8200
        XZ      -0.1429     YZ      -0.9947     ZZ     -48.9283

 Total job time:  15.72s(wall), 744.19s(cpu)
        *  Thank you very much for using Q-Chem.  Have a nice day.  *
