 Q-Chem 5.4, Q-Chem, Inc., Pleasanton, CA (2021)
 Q-Chem 5.4.0 for Intel X86 EM64T Linux

User input:
--------------------------------------------------------------
$molecule
0 1
C	-0.583398	-0.238938	-0.002181
C	0.146502	0.186062	1.110819
C	1.348802	0.885562	0.818419
H	-0.188898	-0.009138	2.140719
C	1.563402	1.010262	-0.565781
S	0.255302	0.249562	-1.466881
C	2.269002	1.420962	1.880219
H	1.881702	1.195762	2.892819
H	2.387202	2.522262	1.805919
H	3.284802	0.979462	1.806019
C	-0.583398	-1.689038	-0.002181
H	-1.277598	-1.689538	0.825119
H	-1.301898	-2.224138	-0.605381
H	0.055102	-2.376238	0.533119
H	2.391402	1.492062	-1.099281
$end

$rem
JOBTYPE		SP
EXCHANGE	HF
CORRELATION	pRIMP2
BASIS		cc-pvtz
METHOD		rimp2
AUX_BASIS	rimp2-cc-pvtz
SOLVENT_METHOD	PCM
PURECART	11111
SYMMETRY	false
MEM_TOTAL	110000
SCF_CONVERGENCE = 6
THRESH=10
GUI = 2
$end

$solvent
dielectric 4.90
$end
--------------------------------------------------------------

             Standard Nuclear Orientation (Angstroms)
    I     Atom           X                Y                Z
 ----------------------------------------------------------------
    1      C      -0.5833980000    -0.2389380000    -0.0021810000
    2      C       0.1465020000     0.1860620000     1.1108190000
    3      C       1.3488020000     0.8855620000     0.8184190000
    4      H      -0.1888980000    -0.0091380000     2.1407190000
    5      C       1.5634020000     1.0102620000    -0.5657810000
    6      S       0.2553020000     0.2495620000    -1.4668810000
    7      C       2.2690020000     1.4209620000     1.8802190000
    8      H       1.8817020000     1.1957620000     2.8928190000
    9      H       2.3872020000     2.5222620000     1.8059190000
   10      H       3.2848020000     0.9794620000     1.8060190000
   11      C      -0.5833980000    -1.6890380000    -0.0021810000
   12      H      -1.2775980000    -1.6895380000     0.8251190000
   13      H      -1.3018980000    -2.2241380000    -0.6053810000
   14      H       0.0551020000    -2.3762380000     0.5331190000
   15      H       2.3914020000     1.4920620000    -1.0992810000
 ----------------------------------------------------------------

   11    -629.3524705774      4.40e-07  Convergence criterion met
 Total energy in the final basis set =     -629.3524705774
        RIMP2         total energy =      -630.5430763117 a.u.

                    Orbital Energies (a.u.)
 --------------------------------------------------------------

 Alpha MOs
 -- Occupied --
-91.9711 -11.2838 -11.2554 -11.2501 -11.2418 -11.2297 -11.2085  -8.9722
 -6.6530  -6.6520  -6.6519  -1.1727  -1.0543  -1.0000  -0.9354  -0.8844
 -0.7487  -0.7324  -0.6442  -0.5863  -0.5839  -0.5671  -0.5528  -0.5423
 -0.5204  -0.4820  -0.4594  -0.4153  -0.3361  -0.3006

          Ground-State Mulliken Net Atomic Charges

     Atom                 Charge (a.u.)
  ----------------------------------------
      1 C                    -0.112249
      2 C                    -0.115451
      3 C                    -0.025692
      4 H                     0.184867
      5 C                    -0.177204
      6 S                     0.011118
      7 C                    -0.267360
      8 H                     0.102127
      9 H                     0.106937
     10 H                     0.105193
     11 C                    -0.379275
     12 H                     0.108237
     13 H                     0.120299
     14 H                     0.140982
     15 H                     0.197473
  ----------------------------------------
  Sum of atomic charges =     0.000000

                    Cartesian Multipole Moments
 -----------------------------------------------------------------
    Charge (ESU x 10^10)
                -0.0000
    Dipole Moment (Debye)
         X       2.1333      Y       0.2438      Z       2.2537
       Tot       3.1128
    Quadrupole Moments (Debye-Ang)
        XX     -47.5214     XY       4.9842     YY     -50.0087
        XZ      -0.1052     YZ      -0.6729     ZZ     -47.9905

 Total job time:  17.42s(wall), 810.93s(cpu)
        *  Thank you very much for using Q-Chem.  Have a nice day.  *
