 Q-Chem 5.4, Q-Chem, Inc., Pleasanton, CA (2021)
 Q-Chem 5.4.0 for Intel X86 EM64T Linux

User input:
--------------------------------------------------------------
$molecule
0 1
C	-0.001566	-0.576386	-0.001602
C	-0.004666	0.268214	1.111398
C	-0.009366	1.659214	0.818998
H	-0.003266	-0.119886	2.141298
C	-0.009966	1.907314	-0.565202
S	-0.005266	0.394214	-1.466302
C	-0.012966	2.723814	1.880798
H	-0.011466	2.275814	2.893398
H	-0.907466	3.376814	1.806498
H	0.877334	3.382714	1.806598
C	-0.001566	-2.026486	-0.001602
H	0.933734	-2.026986	0.538398
H	-0.470866	-2.561586	0.810698
H	0.414734	-2.713686	-0.723302
H	-0.013266	2.865414	-1.098702
$end

$rem
JOBTYPE		SP
EXCHANGE	HF
CORRELATION	pRIMP2
BASIS		cc-pvtz
METHOD		rimp2
AUX_BASIS	rimp2-cc-pvtz
SOLVENT_METHOD	PCM
PURECART	11111
SYMMETRY	false
MEM_TOTAL	110000
SCF_CONVERGENCE = 6
THRESH=10
GUI = 2
$end

$solvent
dielectric 4.90
$end
--------------------------------------------------------------

             Standard Nuclear Orientation (Angstroms)
    I     Atom           X                Y                Z
 ----------------------------------------------------------------
    1      C      -0.0015660000    -0.5763860000    -0.0016020000
    2      C      -0.0046660000     0.2682140000     1.1113980000
    3      C      -0.0093660000     1.6592140000     0.8189980000
    4      H      -0.0032660000    -0.1198860000     2.1412980000
    5      C      -0.0099660000     1.9073140000    -0.5652020000
    6      S      -0.0052660000     0.3942140000    -1.4663020000
    7      C      -0.0129660000     2.7238140000     1.8807980000
    8      H      -0.0114660000     2.2758140000     2.8933980000
    9      H      -0.9074660000     3.3768140000     1.8064980000
   10      H       0.8773340000     3.3827140000     1.8065980000
   11      C      -0.0015660000    -2.0264860000    -0.0016020000
   12      H       0.9337340000    -2.0269860000     0.5383980000
   13      H      -0.4708660000    -2.5615860000     0.8106980000
   14      H       0.4147340000    -2.7136860000    -0.7233020000
   15      H      -0.0132660000     2.8654140000    -1.0987020000
 ----------------------------------------------------------------

   10    -629.4251724235      6.27e-07  Convergence criterion met
 Total energy in the final basis set =     -629.4251724235
        RIMP2         total energy =      -630.6013360336 a.u.

                    Orbital Energies (a.u.)
 --------------------------------------------------------------

 Alpha MOs
 -- Occupied --
-91.9781 -11.2848 -11.2500 -11.2475 -11.2269 -11.2249 -11.2213  -8.9778
 -6.6588  -6.6582  -6.6577  -1.1599  -1.0539  -0.9984  -0.9397  -0.8845
 -0.7425  -0.7194  -0.6472  -0.5900  -0.5733  -0.5698  -0.5567  -0.5434
 -0.5083  -0.4917  -0.4660  -0.4525  -0.3372  -0.2920

          Ground-State Mulliken Net Atomic Charges

     Atom                 Charge (a.u.)
  ----------------------------------------
      1 C                     0.067470
      2 C                    -0.293797
      3 C                     0.042054
      4 H                     0.174953
      5 C                    -0.274382
      6 S                    -0.001738
      7 C                    -0.275218
      8 H                     0.101324
      9 H                     0.107408
     10 H                     0.107283
     11 C                    -0.387666
     12 H                     0.140046
     13 H                     0.140652
     14 H                     0.159102
     15 H                     0.192508
  ----------------------------------------
  Sum of atomic charges =     0.000000

                    Cartesian Multipole Moments
 -----------------------------------------------------------------
    Charge (ESU x 10^10)
                -0.0000
    Dipole Moment (Debye)
         X       0.6249      Y      -0.6425      Z       1.7867
       Tot       1.9989
    Quadrupole Moments (Debye-Ang)
        XX     -54.2119     XY      -1.4672     YY     -41.8498
        XZ      -0.2599     YZ      -0.2091     ZZ     -48.6592

 Total job time:  16.66s(wall), 767.48s(cpu)
        *  Thank you very much for using Q-Chem.  Have a nice day.  *
