 Q-Chem 5.4, Q-Chem, Inc., Pleasanton, CA (2021)
 Q-Chem 5.4.0 for Intel X86 EM64T Linux

User input:
--------------------------------------------------------------
$molecule
0 1
C	-0.282060	-0.513776	0.005249
C	0.072140	0.253024	1.118249
C	0.655740	1.515624	0.825849
H	-0.090760	-0.099276	2.148149
C	0.759940	1.740824	-0.558351
S	0.124840	0.367424	-1.459451
C	1.102340	2.482024	1.887649
H	0.914340	2.075424	2.900249
H	0.567540	3.451924	1.813349
H	2.187740	2.703024	1.813449
C	-0.282060	-1.963876	0.005249
H	-0.976260	-1.964376	-0.822051
H	0.436740	-2.498976	-0.597651
H	-0.920160	-2.651076	0.541049
H	1.161840	2.610424	-1.091851
$end

$rem
JOBTYPE		SP
EXCHANGE	HF
CORRELATION	pRIMP2
BASIS		cc-pvtz
METHOD		rimp2
AUX_BASIS	rimp2-cc-pvtz
SOLVENT_METHOD	PCM
PURECART	11111
SYMMETRY	false
MEM_TOTAL	110000
SCF_CONVERGENCE = 6
THRESH=10
GUI = 2
$end

$solvent
dielectric 4.90
$end
--------------------------------------------------------------

             Standard Nuclear Orientation (Angstroms)
    I     Atom           X                Y                Z
 ----------------------------------------------------------------
    1      C      -0.2820600000    -0.5137760000     0.0052490000
    2      C       0.0721400000     0.2530240000     1.1182490000
    3      C       0.6557400000     1.5156240000     0.8258490000
    4      H      -0.0907600000    -0.0992760000     2.1481490000
    5      C       0.7599400000     1.7408240000    -0.5583510000
    6      S       0.1248400000     0.3674240000    -1.4594510000
    7      C       1.1023400000     2.4820240000     1.8876490000
    8      H       0.9143400000     2.0754240000     2.9002490000
    9      H       0.5675400000     3.4519240000     1.8133490000
   10      H       2.1877400000     2.7030240000     1.8134490000
   11      C      -0.2820600000    -1.9638760000     0.0052490000
   12      H      -0.9762600000    -1.9643760000    -0.8220510000
   13      H       0.4367400000    -2.4989760000    -0.5976510000
   14      H      -0.9201600000    -2.6510760000     0.5410490000
   15      H       1.1618400000     2.6104240000    -1.0918510000
 ----------------------------------------------------------------

   10    -629.4093747866      5.20e-07  Convergence criterion met
 Total energy in the final basis set =     -629.4093747866
        RIMP2         total energy =      -630.5889806734 a.u.

                    Orbital Energies (a.u.)
 --------------------------------------------------------------

 Alpha MOs
 -- Occupied --
-91.9799 -11.2729 -11.2598 -11.2473 -11.2296 -11.2270 -11.2160  -8.9798
 -6.6607  -6.6602  -6.6596  -1.1616  -1.0532  -0.9952  -0.9445  -0.8828
 -0.7471  -0.7192  -0.6456  -0.5898  -0.5745  -0.5673  -0.5528  -0.5455
 -0.5107  -0.4848  -0.4626  -0.4488  -0.3380  -0.2976

          Ground-State Mulliken Net Atomic Charges

     Atom                 Charge (a.u.)
  ----------------------------------------
      1 C                    -0.001374
      2 C                    -0.237603
      3 C                     0.031057
      4 H                     0.179092
      5 C                    -0.246542
      6 S                    -0.001640
      7 C                    -0.272057
      8 H                     0.101812
      9 H                     0.107005
     10 H                     0.106380
     11 C                    -0.368995
     12 H                     0.117261
     13 H                     0.135754
     14 H                     0.154600
     15 H                     0.195250
  ----------------------------------------
  Sum of atomic charges =     0.000000

                    Cartesian Multipole Moments
 -----------------------------------------------------------------
    Charge (ESU x 10^10)
                -0.0000
    Dipole Moment (Debye)
         X       0.2684      Y      -0.0637      Z       1.0417
       Tot       1.0776
    Quadrupole Moments (Debye-Ang)
        XX     -52.3327     XY       4.4265     YY     -43.7410
        XZ      -0.1618     YZ       1.0685     ZZ     -48.6395

 Total job time:  16.56s(wall), 783.75s(cpu)
        *  Thank you very much for using Q-Chem.  Have a nice day.  *
