 Q-Chem 5.4, Q-Chem, Inc., Pleasanton, CA (2021)
 Q-Chem 5.4.0 for Intel X86 EM64T Linux

User input:
--------------------------------------------------------------
$molecule
0 1
C	-0.169413	-0.553870	-0.001525
C	0.046187	0.262730	1.111475
C	0.401687	1.607530	0.819075
H	-0.052913	-0.112470	2.141375
C	0.465287	1.847430	-0.565125
S	0.078187	0.384630	-1.466225
C	0.673787	2.636830	1.880875
H	0.559187	2.203730	2.893475
H	-0.021313	3.499130	1.806575
H	1.704287	3.042930	1.806675
C	-0.169413	-2.003970	-0.001525
H	-0.996713	-2.004470	0.692675
H	-0.772313	-2.539070	-0.720325
H	0.366387	-2.691170	0.636575
H	0.710087	2.773630	-1.098625
$end

$rem
JOBTYPE		SP
EXCHANGE	HF
CORRELATION	pRIMP2
BASIS		cc-pvtz
METHOD		rimp2
AUX_BASIS	rimp2-cc-pvtz
SOLVENT_METHOD	PCM
PURECART	11111
SYMMETRY	false
MEM_TOTAL	110000
SCF_CONVERGENCE = 6
THRESH=10
GUI = 2
$end

$solvent
dielectric 4.90
$end
--------------------------------------------------------------

             Standard Nuclear Orientation (Angstroms)
    I     Atom           X                Y                Z
 ----------------------------------------------------------------
    1      C      -0.1694130000    -0.5538700000    -0.0015250000
    2      C       0.0461870000     0.2627300000     1.1114750000
    3      C       0.4016870000     1.6075300000     0.8190750000
    4      H      -0.0529130000    -0.1124700000     2.1413750000
    5      C       0.4652870000     1.8474300000    -0.5651250000
    6      S       0.0781870000     0.3846300000    -1.4662250000
    7      C       0.6737870000     2.6368300000     1.8808750000
    8      H       0.5591870000     2.2037300000     2.8934750000
    9      H      -0.0213130000     3.4991300000     1.8065750000
   10      H       1.7042870000     3.0429300000     1.8066750000
   11      C      -0.1694130000    -2.0039700000    -0.0015250000
   12      H      -0.9967130000    -2.0044700000     0.6926750000
   13      H      -0.7723130000    -2.5390700000    -0.7203250000
   14      H       0.3663870000    -2.6911700000     0.6365750000
   15      H       0.7100870000     2.7736300000    -1.0986250000
 ----------------------------------------------------------------

   10    -629.4200731186      5.58e-07  Convergence criterion met
 Total energy in the final basis set =     -629.4200731186
        RIMP2         total energy =      -630.5981739157 a.u.

                    Orbital Energies (a.u.)
 --------------------------------------------------------------

 Alpha MOs
 -- Occupied --
-91.9770 -11.2793 -11.2545 -11.2476 -11.2292 -11.2272 -11.2186  -8.9769
 -6.6578  -6.6572  -6.6567  -1.1603  -1.0529  -0.9983  -0.9400  -0.8847
 -0.7428  -0.7210  -0.6480  -0.5874  -0.5749  -0.5648  -0.5596  -0.5428
 -0.5101  -0.4915  -0.4638  -0.4476  -0.3372  -0.2953

          Ground-State Mulliken Net Atomic Charges

     Atom                 Charge (a.u.)
  ----------------------------------------
      1 C                     0.048770
      2 C                    -0.289434
      3 C                     0.043589
      4 H                     0.176088
      5 C                    -0.262096
      6 S                    -0.000889
      7 C                    -0.273940
      8 H                     0.101331
      9 H                     0.107090
     10 H                     0.107271
     11 C                    -0.374372
     12 H                     0.132146
     13 H                     0.138190
     14 H                     0.153366
     15 H                     0.192890
  ----------------------------------------
  Sum of atomic charges =     0.000000

                    Cartesian Multipole Moments
 -----------------------------------------------------------------
    Charge (ESU x 10^10)
                -0.0000
    Dipole Moment (Debye)
         X      -0.2024      Y      -0.3488      Z       1.9196
       Tot       1.9615
    Quadrupole Moments (Debye-Ang)
        XX     -53.3774     XY       3.3534     YY     -42.6413
        XZ       0.3408     YZ      -0.6384     ZZ     -48.6667

 Total job time:  15.92s(wall), 752.12s(cpu)
        *  Thank you very much for using Q-Chem.  Have a nice day.  *
