 Q-Chem 5.4, Q-Chem, Inc., Pleasanton, CA (2021)
 Q-Chem 5.4.0 for Intel X86 EM64T Linux

User input:
--------------------------------------------------------------
$molecule
0 1
C	-0.513798	-0.335659	0.001702
C	0.131202	0.209641	1.114702
C	1.193802	1.107341	0.822302
H	-0.165198	-0.040859	2.144602
C	1.383402	1.267341	-0.561898
S	0.227402	0.291041	-1.462998
C	2.007002	1.794341	1.884102
H	1.664802	1.505341	2.896702
H	1.932202	2.899441	1.809802
H	3.084002	1.535941	1.809902
C	-0.513798	-1.785759	0.001702
H	-1.593798	-1.786259	0.001702
H	-0.513598	-2.320859	-0.936398
H	-0.513498	-2.472959	0.834902
H	2.115202	1.885641	-1.095398
$end

$rem
JOBTYPE		SP
EXCHANGE	HF
CORRELATION	pRIMP2
BASIS		cc-pvtz
METHOD		rimp2
AUX_BASIS	rimp2-cc-pvtz
SOLVENT_METHOD	PCM
PURECART	11111
SYMMETRY	false
MEM_TOTAL	110000
SCF_CONVERGENCE = 6
THRESH=10
GUI = 2
$end

$solvent
dielectric 4.90
$end
--------------------------------------------------------------

             Standard Nuclear Orientation (Angstroms)
    I     Atom           X                Y                Z
 ----------------------------------------------------------------
    1      C      -0.5137980000    -0.3356590000     0.0017020000
    2      C       0.1312020000     0.2096410000     1.1147020000
    3      C       1.1938020000     1.1073410000     0.8223020000
    4      H      -0.1651980000    -0.0408590000     2.1446020000
    5      C       1.3834020000     1.2673410000    -0.5618980000
    6      S       0.2274020000     0.2910410000    -1.4629980000
    7      C       2.0070020000     1.7943410000     1.8841020000
    8      H       1.6648020000     1.5053410000     2.8967020000
    9      H       1.9322020000     2.8994410000     1.8098020000
   10      H       3.0840020000     1.5359410000     1.8099020000
   11      C      -0.5137980000    -1.7857590000     0.0017020000
   12      H      -1.5937980000    -1.7862590000     0.0017020000
   13      H      -0.5135980000    -2.3208590000    -0.9363980000
   14      H      -0.5134980000    -2.4729590000     0.8349020000
   15      H       2.1152020000     1.8856410000    -1.0953980000
 ----------------------------------------------------------------

   10    -629.3623964901      9.79e-07  Convergence criterion met
 Total energy in the final basis set =     -629.3623964901
        RIMP2         total energy =      -630.5516355684 a.u.

                    Orbital Energies (a.u.)
 --------------------------------------------------------------

 Alpha MOs
 -- Occupied --
-91.9738 -11.2697 -11.2563 -11.2480 -11.2413 -11.2278 -11.2085  -8.9744
 -6.6553  -6.6545  -6.6542  -1.1662  -1.0525  -0.9957  -0.9401  -0.8828
 -0.7476  -0.7249  -0.6426  -0.5853  -0.5755  -0.5655  -0.5534  -0.5423
 -0.5154  -0.4934  -0.4576  -0.4326  -0.3357  -0.2852

          Ground-State Mulliken Net Atomic Charges

     Atom                 Charge (a.u.)
  ----------------------------------------
      1 C                    -0.054843
      2 C                    -0.191571
      3 C                     0.015765
      4 H                     0.180267
      5 C                    -0.220998
      6 S                     0.007846
      7 C                    -0.269464
      8 H                     0.101620
      9 H                     0.106931
     10 H                     0.105056
     11 C                    -0.389408
     12 H                     0.126119
     13 H                     0.136567
     14 H                     0.151081
     15 H                     0.195032
  ----------------------------------------
  Sum of atomic charges =     0.000000

                    Cartesian Multipole Moments
 -----------------------------------------------------------------
    Charge (ESU x 10^10)
                -0.0000
    Dipole Moment (Debye)
         X       1.0215      Y      -0.0592      Z       1.6752
       Tot       1.9630
    Quadrupole Moments (Debye-Ang)
        XX     -49.1755     XY       5.7580     YY     -48.1640
        XZ      -0.0749     YZ       0.0332     ZZ     -47.8784

 Total job time:  15.57s(wall), 747.56s(cpu)
        *  Thank you very much for using Q-Chem.  Have a nice day.  *
