 Q-Chem 5.4, Q-Chem, Inc., Pleasanton, CA (2021)
 Q-Chem 5.4.0 for Intel X86 EM64T Linux

User input:
--------------------------------------------------------------
$molecule
0 1
C	-0.174738	-0.553870	0.005925
C	0.040862	0.262730	1.118925
C	0.396362	1.607530	0.826525
H	-0.058238	-0.112470	2.148825
C	0.459962	1.847430	-0.557675
S	0.072862	0.384630	-1.458775
C	0.668462	2.636830	1.888325
H	0.553862	2.203730	2.900925
H	-0.026638	3.499130	1.814025
H	1.698962	3.042930	1.814125
C	-0.174738	-2.003970	0.005925
H	0.012762	-2.004470	-1.057675
H	0.749162	-2.539070	0.169025
H	-0.995338	-2.691170	-0.138475
H	0.704762	2.773630	-1.091175
$end

$rem
JOBTYPE		SP
EXCHANGE	HF
CORRELATION	pRIMP2
BASIS		cc-pvtz
METHOD		rimp2
AUX_BASIS	rimp2-cc-pvtz
SOLVENT_METHOD	PCM
PURECART	11111
SYMMETRY	false
MEM_TOTAL	110000
SCF_CONVERGENCE = 6
THRESH=10
GUI = 2
$end

$solvent
dielectric 4.90
$end
--------------------------------------------------------------

             Standard Nuclear Orientation (Angstroms)
    I     Atom           X                Y                Z
 ----------------------------------------------------------------
    1      C      -0.1747380000    -0.5538700000     0.0059250000
    2      C       0.0408620000     0.2627300000     1.1189250000
    3      C       0.3963620000     1.6075300000     0.8265250000
    4      H      -0.0582380000    -0.1124700000     2.1488250000
    5      C       0.4599620000     1.8474300000    -0.5576750000
    6      S       0.0728620000     0.3846300000    -1.4587750000
    7      C       0.6684620000     2.6368300000     1.8883250000
    8      H       0.5538620000     2.2037300000     2.9009250000
    9      H      -0.0266380000     3.4991300000     1.8140250000
   10      H       1.6989620000     3.0429300000     1.8141250000
   11      C      -0.1747380000    -2.0039700000     0.0059250000
   12      H       0.0127620000    -2.0044700000    -1.0576750000
   13      H       0.7491620000    -2.5390700000     0.1690250000
   14      H      -0.9953380000    -2.6911700000    -0.1384750000
   15      H       0.7047620000     2.7736300000    -1.0911750000
 ----------------------------------------------------------------

   10    -629.4179581348      5.37e-07  Convergence criterion met
 Total energy in the final basis set =     -629.4179581348
        RIMP2         total energy =      -630.5963137381 a.u.

                    Orbital Energies (a.u.)
 --------------------------------------------------------------

 Alpha MOs
 -- Occupied --
-91.9803 -11.2740 -11.2592 -11.2472 -11.2298 -11.2271 -11.2163  -8.9802
 -6.6611  -6.6606  -6.6600  -1.1613  -1.0535  -0.9950  -0.9454  -0.8825
 -0.7480  -0.7186  -0.6467  -0.5909  -0.5757  -0.5658  -0.5531  -0.5464
 -0.5091  -0.4856  -0.4647  -0.4445  -0.3378  -0.3044

          Ground-State Mulliken Net Atomic Charges

     Atom                 Charge (a.u.)
  ----------------------------------------
      1 C                     0.042704
      2 C                    -0.264548
      3 C                     0.044140
      4 H                     0.178625
      5 C                    -0.258210
      6 S                    -0.002662
      7 C                    -0.272422
      8 H                     0.102024
      9 H                     0.106994
     10 H                     0.106731
     11 C                    -0.367003
     12 H                     0.113855
     13 H                     0.130571
     14 H                     0.143278
     15 H                     0.195924
  ----------------------------------------
  Sum of atomic charges =     0.000000

                    Cartesian Multipole Moments
 -----------------------------------------------------------------
    Charge (ESU x 10^10)
                -0.0000
    Dipole Moment (Debye)
         X       0.5325      Y       0.0331      Z       0.8899
       Tot       1.0376
    Quadrupole Moments (Debye-Ang)
        XX     -53.2183     XY       2.0348     YY     -42.8009
        XZ       0.2728     YZ       1.5648     ZZ     -48.8032

 Total job time:  22.71s(wall), 748.27s(cpu)
        *  Thank you very much for using Q-Chem.  Have a nice day.  *
