 Q-Chem 5.4, Q-Chem, Inc., Pleasanton, CA (2021)
 Q-Chem 5.4.0 for Intel X86 EM64T Linux

User input:
--------------------------------------------------------------
$molecule
0 1
C	-0.430255	-0.419059	0.003333
C	0.110245	0.229941	1.116333
C	1.000745	1.298441	0.823933
H	-0.138155	-0.068259	2.146233
C	1.159845	1.489041	-0.560267
S	0.190845	0.326841	-1.461367
C	1.682345	2.116341	1.885733
H	1.395545	1.772241	2.898333
H	1.416845	3.191641	1.811433
H	2.787945	2.048841	1.811533
C	-0.430255	-1.869159	0.003333
H	-1.445155	-1.869659	-0.366067
H	-0.109155	-2.404259	-0.878167
H	-0.714955	-2.556359	0.786333
H	1.773045	2.225041	-1.093767
$end

$rem
JOBTYPE		SP
EXCHANGE	HF
CORRELATION	pRIMP2
BASIS		cc-pvtz
METHOD		rimp2
AUX_BASIS	rimp2-cc-pvtz
SOLVENT_METHOD	PCM
PURECART	11111
SYMMETRY	false
MEM_TOTAL	110000
SCF_CONVERGENCE = 6
THRESH=10
GUI = 2
$end

$solvent
dielectric 4.90
$end
--------------------------------------------------------------

             Standard Nuclear Orientation (Angstroms)
    I     Atom           X                Y                Z
 ----------------------------------------------------------------
    1      C      -0.4302550000    -0.4190590000     0.0033330000
    2      C       0.1102450000     0.2299410000     1.1163330000
    3      C       1.0007450000     1.2984410000     0.8239330000
    4      H      -0.1381550000    -0.0682590000     2.1462330000
    5      C       1.1598450000     1.4890410000    -0.5602670000
    6      S       0.1908450000     0.3268410000    -1.4613670000
    7      C       1.6823450000     2.1163410000     1.8857330000
    8      H       1.3955450000     1.7722410000     2.8983330000
    9      H       1.4168450000     3.1916410000     1.8114330000
   10      H       2.7879450000     2.0488410000     1.8115330000
   11      C      -0.4302550000    -1.8691590000     0.0033330000
   12      H      -1.4451550000    -1.8696590000    -0.3660670000
   13      H      -0.1091550000    -2.4042590000    -0.8781670000
   14      H      -0.7149550000    -2.5563590000     0.7863330000
   15      H       1.7730450000     2.2250410000    -1.0937670000
 ----------------------------------------------------------------

   10    -629.3841186695      6.07e-07  Convergence criterion met
 Total energy in the final basis set =     -629.3841186695
        RIMP2         total energy =      -630.5687766694 a.u.

                    Orbital Energies (a.u.)
 --------------------------------------------------------------

 Alpha MOs
 -- Occupied --
-91.9769 -11.2663 -11.2631 -11.2475 -11.2337 -11.2272 -11.2123  -8.9771
 -6.6581  -6.6574  -6.6569  -1.1635  -1.0527  -0.9951  -0.9421  -0.8827
 -0.7469  -0.7216  -0.6435  -0.5865  -0.5737  -0.5682  -0.5525  -0.5438
 -0.5131  -0.4903  -0.4570  -0.4451  -0.3369  -0.2884

          Ground-State Mulliken Net Atomic Charges

     Atom                 Charge (a.u.)
  ----------------------------------------
      1 C                    -0.029402
      2 C                    -0.220893
      3 C                     0.031997
      4 H                     0.180297
      5 C                    -0.241611
      6 S                     0.002726
      7 C                    -0.270409
      8 H                     0.101486
      9 H                     0.107063
     10 H                     0.105530
     11 C                    -0.382884
     12 H                     0.126118
     13 H                     0.142124
     14 H                     0.152268
     15 H                     0.195591
  ----------------------------------------
  Sum of atomic charges =     0.000000

                    Cartesian Multipole Moments
 -----------------------------------------------------------------
    Charge (ESU x 10^10)
                -0.0000
    Dipole Moment (Debye)
         X       0.5550      Y      -0.1350      Z       1.3658
       Tot       1.4804
    Quadrupole Moments (Debye-Ang)
        XX     -50.5649     XY       5.7141     YY     -46.2033
        XZ      -0.1550     YZ       0.4311     ZZ     -48.1959

 Total job time:  15.87s(wall), 742.40s(cpu)
        *  Thank you very much for using Q-Chem.  Have a nice day.  *
