 Q-Chem 5.4, Q-Chem, Inc., Pleasanton, CA (2021)
 Q-Chem 5.4.0 for Intel X86 EM64T Linux

User input:
--------------------------------------------------------------
$molecule
0 1
C	-0.234021	-0.536244	0.003987
C	0.051979	0.258456	1.116987
C	0.523279	1.567156	0.824587
H	-0.079521	-0.106644	2.146887
C	0.607579	1.800556	-0.559613
S	0.094479	0.377056	-1.460713
C	0.884079	2.568756	1.886387
H	0.732179	2.147356	2.898987
H	0.266779	3.488456	1.812087
H	1.945979	2.883556	1.812187
C	-0.234021	-1.986344	0.003987
H	0.593279	-1.986844	-0.690213
H	0.368879	-2.521444	0.722787
H	-0.769821	-2.673544	-0.634113
H	0.932079	2.701956	-1.093113
$end

$rem
JOBTYPE		SP
EXCHANGE	HF
CORRELATION	pRIMP2
BASIS		cc-pvtz
METHOD		rimp2
AUX_BASIS	rimp2-cc-pvtz
SOLVENT_METHOD	PCM
PURECART	11111
SYMMETRY	false
MEM_TOTAL	110000
SCF_CONVERGENCE = 6
THRESH=10
GUI = 2
$end

$solvent
dielectric 4.90
$end
--------------------------------------------------------------

             Standard Nuclear Orientation (Angstroms)
    I     Atom           X                Y                Z
 ----------------------------------------------------------------
    1      C      -0.2340210000    -0.5362440000     0.0039870000
    2      C       0.0519790000     0.2584560000     1.1169870000
    3      C       0.5232790000     1.5671560000     0.8245870000
    4      H      -0.0795210000    -0.1066440000     2.1468870000
    5      C       0.6075790000     1.8005560000    -0.5596130000
    6      S       0.0944790000     0.3770560000    -1.4607130000
    7      C       0.8840790000     2.5687560000     1.8863870000
    8      H       0.7321790000     2.1473560000     2.8989870000
    9      H       0.2667790000     3.4884560000     1.8120870000
   10      H       1.9459790000     2.8835560000     1.8121870000
   11      C      -0.2340210000    -1.9863440000     0.0039870000
   12      H       0.5932790000    -1.9868440000    -0.6902130000
   13      H       0.3688790000    -2.5214440000     0.7227870000
   14      H      -0.7698210000    -2.6735440000    -0.6341130000
   15      H       0.9320790000     2.7019560000    -1.0931130000
 ----------------------------------------------------------------

   10    -629.4181356531      6.38e-07  Convergence criterion met
 Total energy in the final basis set =     -629.4181356531
        RIMP2         total energy =      -630.5952975938 a.u.

                    Orbital Energies (a.u.)
 --------------------------------------------------------------

 Alpha MOs
 -- Occupied --
-91.9768 -11.2797 -11.2556 -11.2472 -11.2284 -11.2270 -11.2195  -8.9770
 -6.6580  -6.6575  -6.6568  -1.1620  -1.0545  -0.9955  -0.9433  -0.8825
 -0.7466  -0.7190  -0.6462  -0.5899  -0.5775  -0.5659  -0.5509  -0.5467
 -0.5081  -0.4920  -0.4641  -0.4512  -0.3392  -0.2950

          Ground-State Mulliken Net Atomic Charges

     Atom                 Charge (a.u.)
  ----------------------------------------
      1 C                     0.052047
      2 C                    -0.306221
      3 C                     0.056051
      4 H                     0.179225
      5 C                    -0.263695
      6 S                    -0.004406
      7 C                    -0.271135
      8 H                     0.101642
      9 H                     0.107566
     10 H                     0.106986
     11 C                    -0.373217
     12 H                     0.133022
     13 H                     0.140288
     14 H                     0.148099
     15 H                     0.193748
  ----------------------------------------
  Sum of atomic charges =     0.000000

                    Cartesian Multipole Moments
 -----------------------------------------------------------------
    Charge (ESU x 10^10)
                -0.0000
    Dipole Moment (Debye)
         X       1.0066      Y      -0.3632      Z       1.0829
       Tot       1.5225
    Quadrupole Moments (Debye-Ang)
        XX     -53.4247     XY       1.7784     YY     -43.0461
        XZ       0.4797     YZ       1.3174     ZZ     -48.6502

 Total job time:  15.85s(wall), 762.49s(cpu)
        *  Thank you very much for using Q-Chem.  Have a nice day.  *
