 Q-Chem 5.4, Q-Chem, Inc., Pleasanton, CA (2021)
 Q-Chem 5.4.0 for Intel X86 EM64T Linux

User input:
--------------------------------------------------------------
$molecule
0 1
C	-0.129332	-0.567301	0.000759
C	0.014268	0.264999	1.113759
C	0.251168	1.635699	0.821359
H	-0.051732	-0.117401	2.143659
C	0.293668	1.880199	-0.562841
S	0.035568	0.389199	-1.463941
C	0.432568	2.684699	1.883159
H	0.356168	2.243299	2.895759
H	-0.335032	3.483199	1.808859
H	1.423668	3.179099	1.808959
C	-0.002932	-2.011901	0.000759
H	1.072968	-1.918301	0.000759
H	0.043468	-2.545001	0.938859
H	0.056668	-2.696501	-0.832441
H	0.456768	2.824199	-1.096341
$end

$rem
JOBTYPE		SP
EXCHANGE	HF
CORRELATION	pRIMP2
BASIS		cc-pvtz
METHOD		rimp2
AUX_BASIS	rimp2-cc-pvtz
SOLVENT_METHOD	PCM
PURECART	11111
SYMMETRY	false
MEM_TOTAL	110000
SCF_CONVERGENCE = 6
THRESH=10
GUI = 2
$end

$solvent
dielectric 4.90
$end
--------------------------------------------------------------

             Standard Nuclear Orientation (Angstroms)
    I     Atom           X                Y                Z
 ----------------------------------------------------------------
    1      C      -0.1293320000    -0.5673010000     0.0007590000
    2      C       0.0142680000     0.2649990000     1.1137590000
    3      C       0.2511680000     1.6356990000     0.8213590000
    4      H      -0.0517320000    -0.1174010000     2.1436590000
    5      C       0.2936680000     1.8801990000    -0.5628410000
    6      S       0.0355680000     0.3891990000    -1.4639410000
    7      C       0.4325680000     2.6846990000     1.8831590000
    8      H       0.3561680000     2.2432990000     2.8957590000
    9      H      -0.3350320000     3.4831990000     1.8088590000
   10      H       1.4236680000     3.1790990000     1.8089590000
   11      C      -0.0029320000    -2.0119010000     0.0007590000
   12      H       1.0729680000    -1.9183010000     0.0007590000
   13      H       0.0434680000    -2.5450010000     0.9388590000
   14      H       0.0566680000    -2.6965010000    -0.8324410000
   15      H       0.4567680000     2.8241990000    -1.0963410000
 ----------------------------------------------------------------

   10    -629.4236660216      6.89e-07  Convergence criterion met
 Total energy in the final basis set =     -629.4236660216
        RIMP2         total energy =      -630.5991951380 a.u.

                    Orbital Energies (a.u.)
 --------------------------------------------------------------

 Alpha MOs
 -- Occupied --
-91.9782 -11.2861 -11.2498 -11.2475 -11.2268 -11.2237 -11.2230  -8.9780
 -6.6590  -6.6585  -6.6579  -1.1611  -1.0550  -0.9972  -0.9407  -0.8835
 -0.7440  -0.7187  -0.6467  -0.5889  -0.5768  -0.5683  -0.5522  -0.5455
 -0.5068  -0.4948  -0.4666  -0.4563  -0.3385  -0.2892

          Ground-State Mulliken Net Atomic Charges

     Atom                 Charge (a.u.)
  ----------------------------------------
      1 C                     0.058338
      2 C                    -0.314151
      3 C                     0.055829
      4 H                     0.174904
      5 C                    -0.281617
      6 S                     0.000308
      7 C                    -0.272280
      8 H                     0.101491
      9 H                     0.107425
     10 H                     0.107296
     11 C                    -0.378276
     12 H                     0.148288
     13 H                     0.141395
     14 H                     0.158001
     15 H                     0.193050
  ----------------------------------------
  Sum of atomic charges =     0.000000

                    Cartesian Multipole Moments
 -----------------------------------------------------------------
    Charge (ESU x 10^10)
                -0.0000
    Dipole Moment (Debye)
         X       1.0713      Y      -0.6695      Z       1.4281
       Tot       1.9067
    Quadrupole Moments (Debye-Ang)
        XX     -54.1607     XY      -0.3262     YY     -42.2492
        XZ       0.0981     YZ       0.5111     ZZ     -48.5917

 Total job time:  34.25s(wall), 747.48s(cpu)
        *  Thank you very much for using Q-Chem.  Have a nice day.  *
