 Q-Chem 5.4, Q-Chem, Inc., Pleasanton, CA (2021)
 Q-Chem 5.4.0 for Intel X86 EM64T Linux

User input:
--------------------------------------------------------------
$molecule
0 1
C	-0.055578	-0.574004	0.005949
C	0.014922	0.267696	1.118949
C	0.131522	1.653696	0.826549
H	-0.017478	-0.119104	2.148849
C	0.152522	1.900996	-0.557651
S	0.025322	0.393196	-1.458751
C	0.220722	2.714596	1.888349
H	0.183122	2.268196	2.900949
H	-0.613578	3.443096	1.814049
H	1.165022	3.293496	1.814149
C	-0.055578	-2.024104	0.005949
H	-0.424978	-2.024604	-1.008951
H	0.826022	-2.559204	-0.314751
H	-0.838378	-2.711304	0.291249
H	0.232722	2.855696	-1.091151
$end

$rem
JOBTYPE		SP
EXCHANGE	HF
CORRELATION	pRIMP2
BASIS		cc-pvtz
METHOD		rimp2
AUX_BASIS	rimp2-cc-pvtz
SOLVENT_METHOD	PCM
PURECART	11111
SYMMETRY	false
MEM_TOTAL	110000
SCF_CONVERGENCE = 6
THRESH=10
GUI = 2
$end

$solvent
dielectric 4.90
$end
--------------------------------------------------------------

             Standard Nuclear Orientation (Angstroms)
    I     Atom           X                Y                Z
 ----------------------------------------------------------------
    1      C      -0.0555780000    -0.5740040000     0.0059490000
    2      C       0.0149220000     0.2676960000     1.1189490000
    3      C       0.1315220000     1.6536960000     0.8265490000
    4      H      -0.0174780000    -0.1191040000     2.1488490000
    5      C       0.1525220000     1.9009960000    -0.5576510000
    6      S       0.0253220000     0.3931960000    -1.4587510000
    7      C       0.2207220000     2.7145960000     1.8883490000
    8      H       0.1831220000     2.2681960000     2.9009490000
    9      H      -0.6135780000     3.4430960000     1.8140490000
   10      H       1.1650220000     3.2934960000     1.8141490000
   11      C      -0.0555780000    -2.0241040000     0.0059490000
   12      H      -0.4249780000    -2.0246040000    -1.0089510000
   13      H       0.8260220000    -2.5592040000    -0.3147510000
   14      H      -0.8383780000    -2.7113040000     0.2912490000
   15      H       0.2327220000     2.8556960000    -1.0911510000
 ----------------------------------------------------------------

   10    -629.4218608445      5.48e-07  Convergence criterion met
 Total energy in the final basis set =     -629.4218608445
        RIMP2         total energy =      -630.5990939843 a.u.

                    Orbital Energies (a.u.)
 --------------------------------------------------------------

 Alpha MOs
 -- Occupied --
-91.9810 -11.2761 -11.2577 -11.2471 -11.2280 -11.2269 -11.2173  -8.9807
 -6.6616  -6.6612  -6.6605  -1.1606  -1.0535  -0.9953  -0.9455  -0.8829
 -0.7474  -0.7181  -0.6473  -0.5908  -0.5751  -0.5656  -0.5537  -0.5462
 -0.5086  -0.4872  -0.4651  -0.4464  -0.3383  -0.3028

          Ground-State Mulliken Net Atomic Charges

     Atom                 Charge (a.u.)
  ----------------------------------------
      1 C                     0.045713
      2 C                    -0.260727
      3 C                     0.037367
      4 H                     0.179558
      5 C                    -0.258205
      6 S                    -0.002144
      7 C                    -0.273363
      8 H                     0.101979
      9 H                     0.106884
     10 H                     0.106970
     11 C                    -0.368476
     12 H                     0.113232
     13 H                     0.124706
     14 H                     0.150854
     15 H                     0.195651
  ----------------------------------------
  Sum of atomic charges =     0.000000

                    Cartesian Multipole Moments
 -----------------------------------------------------------------
    Charge (ESU x 10^10)
                -0.0000
    Dipole Moment (Debye)
         X      -0.0867      Y      -0.0384      Z       0.8855
       Tot       0.8906
    Quadrupole Moments (Debye-Ang)
        XX     -53.6910     XY       1.3512     YY     -42.1098
        XZ      -0.1534     YZ       1.4829     ZZ     -48.8382

 Total job time:  19.27s(wall), 770.27s(cpu)
        *  Thank you very much for using Q-Chem.  Have a nice day.  *
