 Q-Chem 5.4, Q-Chem, Inc., Pleasanton, CA (2021)
 Q-Chem 5.4.0 for Intel X86 EM64T Linux

User input:
--------------------------------------------------------------
$molecule
0 1
C	-0.168713	-0.553870	0.000015
C	0.046887	0.262730	1.113015
C	0.402387	1.607530	0.820615
H	-0.052213	-0.112470	2.142915
C	0.465987	1.847430	-0.563585
S	0.078887	0.384630	-1.464685
C	0.674487	2.636830	1.882415
H	0.559887	2.203730	2.895015
H	-0.020613	3.499130	1.808115
H	1.704987	3.042930	1.808215
C	-0.168713	-2.003970	0.000015
H	-1.183613	-2.004470	0.369415
H	-0.489413	-2.539070	-0.881585
H	0.116587	-2.691170	0.782815
H	0.710787	2.773630	-1.097085
$end

$rem
JOBTYPE		SP
EXCHANGE	HF
CORRELATION	pRIMP2
BASIS		cc-pvtz
METHOD		rimp2
AUX_BASIS	rimp2-cc-pvtz
SOLVENT_METHOD	PCM
PURECART	11111
SYMMETRY	false
MEM_TOTAL	110000
SCF_CONVERGENCE = 6
THRESH=10
GUI = 2
$end

$solvent
dielectric 4.90
$end
--------------------------------------------------------------

             Standard Nuclear Orientation (Angstroms)
    I     Atom           X                Y                Z
 ----------------------------------------------------------------
    1      C      -0.1687130000    -0.5538700000     0.0000150000
    2      C       0.0468870000     0.2627300000     1.1130150000
    3      C       0.4023870000     1.6075300000     0.8206150000
    4      H      -0.0522130000    -0.1124700000     2.1429150000
    5      C       0.4659870000     1.8474300000    -0.5635850000
    6      S       0.0788870000     0.3846300000    -1.4646850000
    7      C       0.6744870000     2.6368300000     1.8824150000
    8      H       0.5598870000     2.2037300000     2.8950150000
    9      H      -0.0206130000     3.4991300000     1.8081150000
   10      H       1.7049870000     3.0429300000     1.8082150000
   11      C      -0.1687130000    -2.0039700000     0.0000150000
   12      H      -1.1836130000    -2.0044700000     0.3694150000
   13      H      -0.4894130000    -2.5390700000    -0.8815850000
   14      H       0.1165870000    -2.6911700000     0.7828150000
   15      H       0.7107870000     2.7736300000    -1.0970850000
 ----------------------------------------------------------------

   10    -629.4188132289      6.21e-07  Convergence criterion met
 Total energy in the final basis set =     -629.4188132289
        RIMP2         total energy =      -630.5962066707 a.u.

                    Orbital Energies (a.u.)
 --------------------------------------------------------------

 Alpha MOs
 -- Occupied --
-91.9782 -11.2818 -11.2517 -11.2474 -11.2268 -11.2255 -11.2201  -8.9779
 -6.6589  -6.6583  -6.6578  -1.1600  -1.0535  -0.9975  -0.9408  -0.8842
 -0.7432  -0.7195  -0.6479  -0.5863  -0.5733  -0.5661  -0.5574  -0.5440
 -0.5093  -0.4948  -0.4620  -0.4534  -0.3374  -0.2905

          Ground-State Mulliken Net Atomic Charges

     Atom                 Charge (a.u.)
  ----------------------------------------
      1 C                     0.052058
      2 C                    -0.304573
      3 C                     0.050966
      4 H                     0.174169
      5 C                    -0.272024
      6 S                     0.004735
      7 C                    -0.273408
      8 H                     0.101414
      9 H                     0.107196
     10 H                     0.107214
     11 C                    -0.378575
     12 H                     0.138320
     13 H                     0.139082
     14 H                     0.160863
     15 H                     0.192562
  ----------------------------------------
  Sum of atomic charges =     0.000000

                    Cartesian Multipole Moments
 -----------------------------------------------------------------
    Charge (ESU x 10^10)
                -0.0000
    Dipole Moment (Debye)
         X      -0.3836      Y      -0.5612      Z       1.6779
       Tot       1.8104
    Quadrupole Moments (Debye-Ang)
        XX     -53.5655     XY       3.6541     YY     -42.5064
        XZ       0.2550     YZ      -0.2184     ZZ     -48.5349

 Total job time:  20.57s(wall), 759.55s(cpu)
        *  Thank you very much for using Q-Chem.  Have a nice day.  *
