 Q-Chem 5.4, Q-Chem, Inc., Pleasanton, CA (2021)
 Q-Chem 5.4.0 for Intel X86 EM64T Linux

User input:
--------------------------------------------------------------
$molecule
0 1
C	-0.178125	-0.553870	-0.000076
C	0.037475	0.262730	1.112924
C	0.392975	1.607530	0.820524
H	-0.061625	-0.112470	2.142824
C	0.456575	1.847430	-0.563676
S	0.069475	0.384630	-1.464776
C	0.665075	2.636830	1.882324
H	0.550475	2.203730	2.894924
H	-0.030025	3.499130	1.808024
H	1.695575	3.042930	1.808124
C	-0.178125	-2.003970	-0.000076
H	0.885475	-2.004470	0.187424
H	-0.341225	-2.539070	0.923824
H	-0.033725	-2.691170	-0.820676
H	0.701375	2.773630	-1.097176
$end

$rem
JOBTYPE		SP
EXCHANGE	HF
CORRELATION	pRIMP2
BASIS		cc-pvtz
METHOD		rimp2
AUX_BASIS	rimp2-cc-pvtz
SOLVENT_METHOD	PCM
PURECART	11111
SYMMETRY	false
MEM_TOTAL	110000
SCF_CONVERGENCE = 6
THRESH=10
GUI = 2
$end

$solvent
dielectric 4.90
$end
--------------------------------------------------------------

             Standard Nuclear Orientation (Angstroms)
    I     Atom           X                Y                Z
 ----------------------------------------------------------------
    1      C      -0.1781250000    -0.5538700000    -0.0000760000
    2      C       0.0374750000     0.2627300000     1.1129240000
    3      C       0.3929750000     1.6075300000     0.8205240000
    4      H      -0.0616250000    -0.1124700000     2.1428240000
    5      C       0.4565750000     1.8474300000    -0.5636760000
    6      S       0.0694750000     0.3846300000    -1.4647760000
    7      C       0.6650750000     2.6368300000     1.8823240000
    8      H       0.5504750000     2.2037300000     2.8949240000
    9      H      -0.0300250000     3.4991300000     1.8080240000
   10      H       1.6955750000     3.0429300000     1.8081240000
   11      C      -0.1781250000    -2.0039700000    -0.0000760000
   12      H       0.8854750000    -2.0044700000     0.1874240000
   13      H      -0.3412250000    -2.5390700000     0.9238240000
   14      H      -0.0337250000    -2.6911700000    -0.8206760000
   15      H       0.7013750000     2.7736300000    -1.0971760000
 ----------------------------------------------------------------

   10    -629.4228895422      6.77e-07  Convergence criterion met
 Total energy in the final basis set =     -629.4228895422
        RIMP2         total energy =      -630.5987989784 a.u.

                    Orbital Energies (a.u.)
 --------------------------------------------------------------

 Alpha MOs
 -- Occupied --
-91.9786 -11.2861 -11.2495 -11.2476 -11.2268 -11.2232 -11.2229  -8.9784
 -6.6594  -6.6588  -6.6582  -1.1610  -1.0548  -0.9976  -0.9400  -0.8837
 -0.7435  -0.7189  -0.6468  -0.5891  -0.5759  -0.5692  -0.5536  -0.5448
 -0.5073  -0.4930  -0.4668  -0.4563  -0.3380  -0.2891

          Ground-State Mulliken Net Atomic Charges

     Atom                 Charge (a.u.)
  ----------------------------------------
      1 C                     0.055696
      2 C                    -0.304834
      3 C                     0.051576
      4 H                     0.174080
      5 C                    -0.281777
      6 S                     0.001992
      7 C                    -0.272355
      8 H                     0.101449
      9 H                     0.107431
     10 H                     0.107175
     11 C                    -0.382270
     12 H                     0.149531
     13 H                     0.140628
     14 H                     0.158734
     15 H                     0.192942
  ----------------------------------------
  Sum of atomic charges =     0.000000

                    Cartesian Multipole Moments
 -----------------------------------------------------------------
    Charge (ESU x 10^10)
                -0.0000
    Dipole Moment (Debye)
         X       0.9960      Y      -0.7582      Z       1.5438
       Tot       1.9875
    Quadrupole Moments (Debye-Ang)
        XX     -54.0968     XY       0.7009     YY     -42.3465
        XZ       0.0320     YZ       0.2405     ZZ     -48.5818

 Total job time:  16.07s(wall), 767.42s(cpu)
        *  Thank you very much for using Q-Chem.  Have a nice day.  *
