 Q-Chem 5.4, Q-Chem, Inc., Pleasanton, CA (2021)
 Q-Chem 5.4.0 for Intel X86 EM64T Linux

User input:
--------------------------------------------------------------
$molecule
0 1
C	-0.515815	-0.335659	-0.002733
C	0.129185	0.209641	1.110267
C	1.191785	1.107341	0.817867
H	-0.167215	-0.040859	2.140167
C	1.381385	1.267341	-0.566333
S	0.225385	0.291041	-1.467433
C	2.004985	1.794341	1.879667
H	1.662785	1.505341	2.892267
H	1.930185	2.899441	1.805367
H	3.081985	1.535941	1.805467
C	-0.515815	-1.785759	-0.002733
H	-1.055815	-1.786259	0.932567
H	-1.328115	-2.320859	-0.472033
H	0.205885	-2.472959	0.413567
H	2.113185	1.885641	-1.099833
$end

$rem
JOBTYPE		SP
EXCHANGE	HF
CORRELATION	pRIMP2
BASIS		cc-pvtz
METHOD		rimp2
AUX_BASIS	rimp2-cc-pvtz
SOLVENT_METHOD	PCM
PURECART	11111
SYMMETRY	false
MEM_TOTAL	110000
SCF_CONVERGENCE = 6
THRESH=10
GUI = 2
$end

$solvent
dielectric 4.90
$end
--------------------------------------------------------------

             Standard Nuclear Orientation (Angstroms)
    I     Atom           X                Y                Z
 ----------------------------------------------------------------
    1      C      -0.5158150000    -0.3356590000    -0.0027330000
    2      C       0.1291850000     0.2096410000     1.1102670000
    3      C       1.1917850000     1.1073410000     0.8178670000
    4      H      -0.1672150000    -0.0408590000     2.1401670000
    5      C       1.3813850000     1.2673410000    -0.5663330000
    6      S       0.2253850000     0.2910410000    -1.4674330000
    7      C       2.0049850000     1.7943410000     1.8796670000
    8      H       1.6627850000     1.5053410000     2.8922670000
    9      H       1.9301850000     2.8994410000     1.8053670000
   10      H       3.0819850000     1.5359410000     1.8054670000
   11      C      -0.5158150000    -1.7857590000    -0.0027330000
   12      H      -1.0558150000    -1.7862590000     0.9325670000
   13      H      -1.3281150000    -2.3208590000    -0.4720330000
   14      H       0.2058850000    -2.4729590000     0.4135670000
   15      H       2.1131850000     1.8856410000    -1.0998330000
 ----------------------------------------------------------------

   10    -629.3759965852      8.41e-07  Convergence criterion met
 Total energy in the final basis set =     -629.3759965852
        RIMP2         total energy =      -630.5636437010 a.u.

                    Orbital Energies (a.u.)
 --------------------------------------------------------------

 Alpha MOs
 -- Occupied --
-91.9719 -11.2758 -11.2533 -11.2495 -11.2480 -11.2290 -11.2105  -8.9728
 -6.6536  -6.6528  -6.6525  -1.1684  -1.0531  -0.9994  -0.9362  -0.8849
 -0.7462  -0.7295  -0.6446  -0.5849  -0.5834  -0.5680  -0.5543  -0.5417
 -0.5184  -0.4797  -0.4606  -0.4246  -0.3367  -0.3032

          Ground-State Mulliken Net Atomic Charges

     Atom                 Charge (a.u.)
  ----------------------------------------
      1 C                    -0.066835
      2 C                    -0.168008
      3 C                    -0.001608
      4 H                     0.180506
      5 C                    -0.202761
      6 S                     0.004770
      7 C                    -0.267973
      8 H                     0.101769
      9 H                     0.106922
     10 H                     0.105793
     11 C                    -0.365437
     12 H                     0.108753
     13 H                     0.120781
     14 H                     0.147187
     15 H                     0.196141
  ----------------------------------------
  Sum of atomic charges =     0.000000

                    Cartesian Multipole Moments
 -----------------------------------------------------------------
    Charge (ESU x 10^10)
                -0.0000
    Dipole Moment (Debye)
         X       1.5835      Y       0.2830      Z       2.2540
       Tot       2.7691
    Quadrupole Moments (Debye-Ang)
        XX     -48.8243     XY       5.1707     YY     -48.2022
        XZ      -0.0221     YZ      -0.8895     ZZ     -48.3776

 Total job time:  20.47s(wall), 761.77s(cpu)
        *  Thank you very much for using Q-Chem.  Have a nice day.  *
