 Q-Chem 5.4, Q-Chem, Inc., Pleasanton, CA (2021)
 Q-Chem 5.4.0 for Intel X86 EM64T Linux

User input:
--------------------------------------------------------------
$molecule
0 1
C	-0.114247	-0.566489	-0.003463
C	0.029353	0.265811	1.109537
C	0.266253	1.636511	0.817137
H	-0.036647	-0.116589	2.139437
C	0.308753	1.881011	-0.567063
S	0.050653	0.390011	-1.468163
C	0.447653	2.685511	1.878937
H	0.371253	2.244111	2.891537
H	-0.319947	3.484011	1.804637
H	1.438753	3.179911	1.804737
C	-0.114247	-2.016589	-0.003463
H	-0.301747	-2.017089	1.060137
H	-1.038147	-2.551689	-0.166563
H	0.706353	-2.703789	0.140937
H	0.471853	2.825011	-1.100563
$end

$rem
JOBTYPE		SP
EXCHANGE	HF
CORRELATION	pRIMP2
BASIS		cc-pvtz
METHOD		rimp2
AUX_BASIS	rimp2-cc-pvtz
SOLVENT_METHOD	PCM
PURECART	11111
SYMMETRY	false
MEM_TOTAL	110000
SCF_CONVERGENCE = 6
THRESH=10
GUI = 2
$end

$solvent
dielectric 4.90
$end
--------------------------------------------------------------

             Standard Nuclear Orientation (Angstroms)
    I     Atom           X                Y                Z
 ----------------------------------------------------------------
    1      C      -0.1142470000    -0.5664890000    -0.0034630000
    2      C       0.0293530000     0.2658110000     1.1095370000
    3      C       0.2662530000     1.6365110000     0.8171370000
    4      H      -0.0366470000    -0.1165890000     2.1394370000
    5      C       0.3087530000     1.8810110000    -0.5670630000
    6      S       0.0506530000     0.3900110000    -1.4681630000
    7      C       0.4476530000     2.6855110000     1.8789370000
    8      H       0.3712530000     2.2441110000     2.8915370000
    9      H      -0.3199470000     3.4840110000     1.8046370000
   10      H       1.4387530000     3.1799110000     1.8047370000
   11      C      -0.1142470000    -2.0165890000    -0.0034630000
   12      H      -0.3017470000    -2.0170890000     1.0601370000
   13      H      -1.0381470000    -2.5516890000    -0.1665630000
   14      H       0.7063530000    -2.7037890000     0.1409370000
   15      H       0.4718530000     2.8250110000    -1.1005630000
 ----------------------------------------------------------------

   10    -629.4243297723      4.86e-07  Convergence criterion met
 Total energy in the final basis set =     -629.4243297723
        RIMP2         total energy =      -630.6023326908 a.u.

                    Orbital Energies (a.u.)
 --------------------------------------------------------------

 Alpha MOs
 -- Occupied --
-91.9753 -11.2768 -11.2586 -11.2473 -11.2344 -11.2276 -11.2170  -8.9754
 -6.6563  -6.6558  -6.6553  -1.1611  -1.0524  -0.9996  -0.9389  -0.8855
 -0.7425  -0.7239  -0.6479  -0.5901  -0.5780  -0.5666  -0.5589  -0.5411
 -0.5107  -0.4853  -0.4675  -0.4384  -0.3377  -0.3050

          Ground-State Mulliken Net Atomic Charges

     Atom                 Charge (a.u.)
  ----------------------------------------
      1 C                     0.051010
      2 C                    -0.265972
      3 C                     0.032769
      4 H                     0.176783
      5 C                    -0.250093
      6 S                    -0.007200
      7 C                    -0.273063
      8 H                     0.101270
      9 H                     0.107102
     10 H                     0.107368
     11 C                    -0.364021
     12 H                     0.118454
     13 H                     0.131914
     14 H                     0.139683
     15 H                     0.193997
  ----------------------------------------
  Sum of atomic charges =     0.000000

                    Cartesian Multipole Moments
 -----------------------------------------------------------------
    Charge (ESU x 10^10)
                -0.0000
    Dipole Moment (Debye)
         X       0.1372      Y      -0.0359      Z       2.1602
       Tot       2.1648
    Quadrupole Moments (Debye-Ang)
        XX     -53.4406     XY       1.6723     YY     -42.4036
        XZ       0.0962     YZ      -1.0308     ZZ     -48.9673

 Total job time:  16.16s(wall), 750.05s(cpu)
        *  Thank you very much for using Q-Chem.  Have a nice day.  *
