 Q-Chem 5.4, Q-Chem, Inc., Pleasanton, CA (2021)
 Q-Chem 5.4.0 for Intel X86 EM64T Linux

User input:
--------------------------------------------------------------
$molecule
0 1
C	-0.054777	-0.574004	0.005666
C	0.015723	0.267696	1.118666
C	0.132323	1.653696	0.826266
H	-0.016677	-0.119104	2.148566
C	0.153323	1.900996	-0.557934
S	0.026123	0.393196	-1.459034
C	0.221523	2.714596	1.888066
H	0.183923	2.268196	2.900666
H	-0.612777	3.443096	1.813766
H	1.165823	3.293496	1.813866
C	-0.054777	-2.024104	0.005666
H	-0.594777	-2.024604	-0.929634
H	0.757823	-2.559204	-0.463234
H	-0.776177	-2.711304	0.422566
H	0.233523	2.855696	-1.091434
$end

$rem
JOBTYPE		SP
EXCHANGE	HF
CORRELATION	pRIMP2
BASIS		cc-pvtz
METHOD		rimp2
AUX_BASIS	rimp2-cc-pvtz
SOLVENT_METHOD	PCM
PURECART	11111
SYMMETRY	false
MEM_TOTAL	110000
SCF_CONVERGENCE = 6
THRESH=10
GUI = 2
$end

$solvent
dielectric 4.90
$end
--------------------------------------------------------------

             Standard Nuclear Orientation (Angstroms)
    I     Atom           X                Y                Z
 ----------------------------------------------------------------
    1      C      -0.0547770000    -0.5740040000     0.0056660000
    2      C       0.0157230000     0.2676960000     1.1186660000
    3      C       0.1323230000     1.6536960000     0.8262660000
    4      H      -0.0166770000    -0.1191040000     2.1485660000
    5      C       0.1533230000     1.9009960000    -0.5579340000
    6      S       0.0261230000     0.3931960000    -1.4590340000
    7      C       0.2215230000     2.7145960000     1.8880660000
    8      H       0.1839230000     2.2681960000     2.9006660000
    9      H      -0.6127770000     3.4430960000     1.8137660000
   10      H       1.1658230000     3.2934960000     1.8138660000
   11      C      -0.0547770000    -2.0241040000     0.0056660000
   12      H      -0.5947770000    -2.0246040000    -0.9296340000
   13      H       0.7578230000    -2.5592040000    -0.4632340000
   14      H      -0.7761770000    -2.7113040000     0.4225660000
   15      H       0.2335230000     2.8556960000    -1.0914340000
 ----------------------------------------------------------------

   10    -629.4222399541      5.66e-07  Convergence criterion met
 Total energy in the final basis set =     -629.4222399541
        RIMP2         total energy =      -630.5990658585 a.u.

                    Orbital Energies (a.u.)
 --------------------------------------------------------------

 Alpha MOs
 -- Occupied --
-91.9806 -11.2775 -11.2567 -11.2471 -11.2273 -11.2268 -11.2179  -8.9803
 -6.6613  -6.6608  -6.6602  -1.1605  -1.0536  -0.9954  -0.9452  -0.8829
 -0.7469  -0.7180  -0.6474  -0.5904  -0.5750  -0.5656  -0.5536  -0.5462
 -0.5084  -0.4882  -0.4651  -0.4484  -0.3385  -0.3004

          Ground-State Mulliken Net Atomic Charges

     Atom                 Charge (a.u.)
  ----------------------------------------
      1 C                     0.043063
      2 C                    -0.262879
      3 C                     0.036274
      4 H                     0.179792
      5 C                    -0.257903
      6 S                    -0.002770
      7 C                    -0.273487
      8 H                     0.101866
      9 H                     0.106949
     10 H                     0.107069
     11 C                    -0.369933
     12 H                     0.115779
     13 H                     0.126625
     14 H                     0.154163
     15 H                     0.195393
  ----------------------------------------
  Sum of atomic charges =     0.000000

                    Cartesian Multipole Moments
 -----------------------------------------------------------------
    Charge (ESU x 10^10)
                -0.0000
    Dipole Moment (Debye)
         X      -0.2016      Y      -0.1286      Z       0.9146
       Tot       0.9453
    Quadrupole Moments (Debye-Ang)
        XX     -53.7807     XY       1.5853     YY     -42.0399
        XZ      -0.2332     YZ       1.4007     ZZ     -48.8019

 Total job time:  19.53s(wall), 773.66s(cpu)
        *  Thank you very much for using Q-Chem.  Have a nice day.  *
