 Q-Chem 5.4, Q-Chem, Inc., Pleasanton, CA (2021)
 Q-Chem 5.4.0 for Intel X86 EM64T Linux

User input:
--------------------------------------------------------------
$molecule
0 1
C	-0.430215	-0.419059	-0.000785
C	0.110285	0.229941	1.112215
C	1.000785	1.298441	0.819815
H	-0.138115	-0.068259	2.142115
C	1.159885	1.489041	-0.564385
S	0.190885	0.326841	-1.465485
C	1.682385	2.116341	1.881615
H	1.395585	1.772241	2.894215
H	1.416885	3.191641	1.807315
H	2.787985	2.048841	1.807415
C	-0.430215	-1.869159	-0.000785
H	-1.365515	-1.869659	0.539215
H	-0.899115	-2.404259	-0.813385
H	-0.013315	-2.556359	0.720615
H	1.773085	2.225041	-1.097885
$end

$rem
JOBTYPE		SP
EXCHANGE	HF
CORRELATION	pRIMP2
BASIS		cc-pvtz
METHOD		rimp2
AUX_BASIS	rimp2-cc-pvtz
SOLVENT_METHOD	PCM
PURECART	11111
SYMMETRY	false
MEM_TOTAL	110000
SCF_CONVERGENCE = 6
THRESH=10
GUI = 2
$end

$solvent
dielectric 4.90
$end
--------------------------------------------------------------

             Standard Nuclear Orientation (Angstroms)
    I     Atom           X                Y                Z
 ----------------------------------------------------------------
    1      C      -0.4302150000    -0.4190590000    -0.0007850000
    2      C       0.1102850000     0.2299410000     1.1122150000
    3      C       1.0007850000     1.2984410000     0.8198150000
    4      H      -0.1381150000    -0.0682590000     2.1421150000
    5      C       1.1598850000     1.4890410000    -0.5643850000
    6      S       0.1908850000     0.3268410000    -1.4654850000
    7      C       1.6823850000     2.1163410000     1.8816150000
    8      H       1.3955850000     1.7722410000     2.8942150000
    9      H       1.4168850000     3.1916410000     1.8073150000
   10      H       2.7879850000     2.0488410000     1.8074150000
   11      C      -0.4302150000    -1.8691590000    -0.0007850000
   12      H      -1.3655150000    -1.8696590000     0.5392150000
   13      H      -0.8991150000    -2.4042590000    -0.8133850000
   14      H      -0.0133150000    -2.5563590000     0.7206150000
   15      H       1.7730850000     2.2250410000    -1.0978850000
 ----------------------------------------------------------------

   10    -629.3886272168      6.30e-07  Convergence criterion met
 Total energy in the final basis set =     -629.3886272168
        RIMP2         total energy =      -630.5738069890 a.u.

                    Orbital Energies (a.u.)
 --------------------------------------------------------------

 Alpha MOs
 -- Occupied --
-91.9738 -11.2654 -11.2643 -11.2483 -11.2379 -11.2278 -11.2129  -8.9743
 -6.6552  -6.6544  -6.6540  -1.1638  -1.0523  -0.9972  -0.9392  -0.8842
 -0.7448  -0.7240  -0.6451  -0.5844  -0.5775  -0.5641  -0.5569  -0.5423
 -0.5147  -0.4914  -0.4591  -0.4370  -0.3368  -0.2920

          Ground-State Mulliken Net Atomic Charges

     Atom                 Charge (a.u.)
  ----------------------------------------
      1 C                    -0.015341
      2 C                    -0.236213
      3 C                     0.027302
      4 H                     0.177012
      5 C                    -0.231587
      6 S                     0.004140
      7 C                    -0.269933
      8 H                     0.101473
      9 H                     0.107057
     10 H                     0.106203
     11 C                    -0.383031
     12 H                     0.128713
     13 H                     0.134153
     14 H                     0.157075
     15 H                     0.192978
  ----------------------------------------
  Sum of atomic charges =     0.000000

                    Cartesian Multipole Moments
 -----------------------------------------------------------------
    Charge (ESU x 10^10)
                -0.0000
    Dipole Moment (Debye)
         X       0.6123      Y      -0.0685      Z       1.9473
       Tot       2.0425
    Quadrupole Moments (Debye-Ang)
        XX     -50.4124     XY       5.6219     YY     -46.2767
        XZ       0.2617     YZ      -0.5065     ZZ     -48.3171

 Total job time:  15.62s(wall), 741.87s(cpu)
        *  Thank you very much for using Q-Chem.  Have a nice day.  *
