 Q-Chem 5.4, Q-Chem, Inc., Pleasanton, CA (2021)
 Q-Chem 5.4.0 for Intel X86 EM64T Linux

User input:
--------------------------------------------------------------
$molecule
0 1
C	-0.226039	-0.536244	0.004064
C	0.059961	0.258456	1.117064
C	0.531261	1.567156	0.824664
H	-0.071539	-0.106644	2.146964
C	0.615561	1.800556	-0.559536
S	0.102461	0.377056	-1.460636
C	0.892061	2.568756	1.886464
H	0.740161	2.147356	2.899064
H	0.274761	3.488456	1.812164
H	1.953961	2.883556	1.812264
C	-0.226039	-1.986344	0.004064
H	-1.161339	-1.986844	-0.535936
H	0.243261	-2.521444	-0.808236
H	-0.642339	-2.673544	0.725764
H	0.940061	2.701956	-1.093036
$end

$rem
JOBTYPE		SP
EXCHANGE	HF
CORRELATION	pRIMP2
BASIS		cc-pvtz
METHOD		rimp2
AUX_BASIS	rimp2-cc-pvtz
SOLVENT_METHOD	PCM
PURECART	11111
SYMMETRY	false
MEM_TOTAL	110000
SCF_CONVERGENCE = 6
THRESH=10
GUI = 2
$end

$solvent
dielectric 4.90
$end
--------------------------------------------------------------

             Standard Nuclear Orientation (Angstroms)
    I     Atom           X                Y                Z
 ----------------------------------------------------------------
    1      C      -0.2260390000    -0.5362440000     0.0040640000
    2      C       0.0599610000     0.2584560000     1.1170640000
    3      C       0.5312610000     1.5671560000     0.8246640000
    4      H      -0.0715390000    -0.1066440000     2.1469640000
    5      C       0.6155610000     1.8005560000    -0.5595360000
    6      S       0.1024610000     0.3770560000    -1.4606360000
    7      C       0.8920610000     2.5687560000     1.8864640000
    8      H       0.7401610000     2.1473560000     2.8990640000
    9      H       0.2747610000     3.4884560000     1.8121640000
   10      H       1.9539610000     2.8835560000     1.8122640000
   11      C      -0.2260390000    -1.9863440000     0.0040640000
   12      H      -1.1613390000    -1.9868440000    -0.5359360000
   13      H       0.2432610000    -2.5214440000    -0.8082360000
   14      H      -0.6423390000    -2.6735440000     0.7257640000
   15      H       0.9400610000     2.7019560000    -1.0930360000
 ----------------------------------------------------------------

   10    -629.4136471875      5.77e-07  Convergence criterion met
 Total energy in the final basis set =     -629.4136471875
        RIMP2         total energy =      -630.5915841170 a.u.

                    Orbital Energies (a.u.)
 --------------------------------------------------------------

 Alpha MOs
 -- Occupied --
-91.9793 -11.2784 -11.2551 -11.2471 -11.2267 -11.2263 -11.2183  -8.9792
 -6.6602  -6.6596  -6.6590  -1.1606  -1.0535  -0.9958  -0.9436  -0.8832
 -0.7456  -0.7186  -0.6465  -0.5881  -0.5738  -0.5675  -0.5526  -0.5455
 -0.5096  -0.4909  -0.4617  -0.4536  -0.3382  -0.2922

          Ground-State Mulliken Net Atomic Charges

     Atom                 Charge (a.u.)
  ----------------------------------------
      1 C                     0.014980
      2 C                    -0.255771
      3 C                     0.034926
      4 H                     0.179623
      5 C                    -0.258912
      6 S                    -0.004210
      7 C                    -0.272674
      8 H                     0.101535
      9 H                     0.107048
     10 H                     0.106774
     11 C                    -0.375418
     12 H                     0.127661
     13 H                     0.140110
     14 H                     0.159142
     15 H                     0.195187
  ----------------------------------------
  Sum of atomic charges =     0.000000

                    Cartesian Multipole Moments
 -----------------------------------------------------------------
    Charge (ESU x 10^10)
                -0.0000
    Dipole Moment (Debye)
         X      -0.1294      Y      -0.3617      Z       1.1306
       Tot       1.1941
    Quadrupole Moments (Debye-Ang)
        XX     -53.0616     XY       4.1886     YY     -42.9724
        XZ      -0.1664     YZ       0.8601     ZZ     -48.5560

 Total job time:  22.19s(wall), 748.67s(cpu)
        *  Thank you very much for using Q-Chem.  Have a nice day.  *
