 Q-Chem 5.4, Q-Chem, Inc., Pleasanton, CA (2021)
 Q-Chem 5.4.0 for Intel X86 EM64T Linux

User input:
--------------------------------------------------------------
$molecule
0 1
C	-0.333435	-0.486609	-0.001525
C	0.086165	0.246391	1.111475
C	0.777665	1.453391	0.819075
H	-0.106735	-0.090409	2.141375
C	0.901165	1.668591	-0.565125
S	0.148665	0.355791	-1.466225
C	1.306865	2.377091	1.880875
H	1.084065	1.988491	2.893475
H	0.858565	3.389991	1.806575
H	2.407265	2.502691	1.806675
C	-0.333435	-1.936709	-0.001525
H	-1.160735	-1.937209	0.692675
H	-0.936335	-2.471809	-0.720325
H	0.202365	-2.623909	0.636575
H	1.377265	2.499891	-1.098625
$end

$rem
JOBTYPE		SP
EXCHANGE	HF
CORRELATION	pRIMP2
BASIS		cc-pvtz
METHOD		rimp2
AUX_BASIS	rimp2-cc-pvtz
SOLVENT_METHOD	PCM
PURECART	11111
SYMMETRY	false
MEM_TOTAL	110000
SCF_CONVERGENCE = 6
THRESH=10
GUI = 2
$end

$solvent
dielectric 4.90
$end
--------------------------------------------------------------

             Standard Nuclear Orientation (Angstroms)
    I     Atom           X                Y                Z
 ----------------------------------------------------------------
    1      C      -0.3334350000    -0.4866090000    -0.0015250000
    2      C       0.0861650000     0.2463910000     1.1114750000
    3      C       0.7776650000     1.4533910000     0.8190750000
    4      H      -0.1067350000    -0.0904090000     2.1413750000
    5      C       0.9011650000     1.6685910000    -0.5651250000
    6      S       0.1486650000     0.3557910000    -1.4662250000
    7      C       1.3068650000     2.3770910000     1.8808750000
    8      H       1.0840650000     1.9884910000     2.8934750000
    9      H       0.8585650000     3.3899910000     1.8065750000
   10      H       2.4072650000     2.5026910000     1.8066750000
   11      C      -0.3334350000    -1.9367090000    -0.0015250000
   12      H      -1.1607350000    -1.9372090000     0.6926750000
   13      H      -0.9363350000    -2.4718090000    -0.7203250000
   14      H       0.2023650000    -2.6239090000     0.6365750000
   15      H       1.3772650000     2.4998910000    -1.0986250000
 ----------------------------------------------------------------

   10    -629.4056126217      5.44e-07  Convergence criterion met
 Total energy in the final basis set =     -629.4056126217
        RIMP2         total energy =      -630.5873685235 a.u.

                    Orbital Energies (a.u.)
 --------------------------------------------------------------

 Alpha MOs
 -- Occupied --
-91.9749 -11.2718 -11.2601 -11.2480 -11.2344 -11.2276 -11.2156  -8.9752
 -6.6561  -6.6554  -6.6549  -1.1620  -1.0524  -0.9979  -0.9394  -0.8847
 -0.7436  -0.7228  -0.6465  -0.5857  -0.5768  -0.5647  -0.5584  -0.5423
 -0.5129  -0.4901  -0.4611  -0.4415  -0.3371  -0.2954

          Ground-State Mulliken Net Atomic Charges

     Atom                 Charge (a.u.)
  ----------------------------------------
      1 C                     0.012429
      2 C                    -0.263725
      3 C                     0.035966
      4 H                     0.176870
      5 C                    -0.244885
      6 S                     0.000916
      7 C                    -0.271325
      8 H                     0.101441
      9 H                     0.106962
     10 H                     0.106783
     11 C                    -0.375030
     12 H                     0.128696
     13 H                     0.134744
     14 H                     0.157226
     15 H                     0.192932
  ----------------------------------------
  Sum of atomic charges =     0.000000

                    Cartesian Multipole Moments
 -----------------------------------------------------------------
    Charge (ESU x 10^10)
                -0.0000
    Dipole Moment (Debye)
         X       0.2867      Y      -0.1331      Z       1.9916
       Tot       2.0166
    Quadrupole Moments (Debye-Ang)
        XX     -51.7313     XY       4.9541     YY     -44.5597
        XZ       0.3212     YZ      -0.6742     ZZ     -48.5556

 Total job time:  16.21s(wall), 745.76s(cpu)
        *  Thank you very much for using Q-Chem.  Have a nice day.  *
