 Q-Chem 5.4, Q-Chem, Inc., Pleasanton, CA (2021)
 Q-Chem 5.4.0 for Intel X86 EM64T Linux

User input:
--------------------------------------------------------------
$molecule
0 1
C	-0.061189	-0.574004	-0.000871
C	0.009311	0.267696	1.112129
C	0.125911	1.653696	0.819729
H	-0.023089	-0.119104	2.142029
C	0.146911	1.900996	-0.564471
S	0.019711	0.393196	-1.465571
C	0.215111	2.714596	1.881529
H	0.177511	2.268196	2.894129
H	-0.619189	3.443096	1.807229
H	1.159411	3.293496	1.807329
C	-0.061189	-2.024104	-0.000871
H	0.953711	-2.024604	0.368529
H	-0.382289	-2.559204	0.880629
H	0.223511	-2.711304	-0.783871
H	0.227111	2.855696	-1.097971
$end

$rem
JOBTYPE		SP
EXCHANGE	HF
CORRELATION	pRIMP2
BASIS		cc-pvtz
METHOD		rimp2
AUX_BASIS	rimp2-cc-pvtz
SOLVENT_METHOD	PCM
PURECART	11111
SYMMETRY	false
MEM_TOTAL	110000
SCF_CONVERGENCE = 6
THRESH=10
GUI = 2
$end

$solvent
dielectric 4.90
$end
--------------------------------------------------------------

             Standard Nuclear Orientation (Angstroms)
    I     Atom           X                Y                Z
 ----------------------------------------------------------------
    1      C      -0.0611890000    -0.5740040000    -0.0008710000
    2      C       0.0093110000     0.2676960000     1.1121290000
    3      C       0.1259110000     1.6536960000     0.8197290000
    4      H      -0.0230890000    -0.1191040000     2.1420290000
    5      C       0.1469110000     1.9009960000    -0.5644710000
    6      S       0.0197110000     0.3931960000    -1.4655710000
    7      C       0.2151110000     2.7145960000     1.8815290000
    8      H       0.1775110000     2.2681960000     2.8941290000
    9      H      -0.6191890000     3.4430960000     1.8072290000
   10      H       1.1594110000     3.2934960000     1.8073290000
   11      C      -0.0611890000    -2.0241040000    -0.0008710000
   12      H       0.9537110000    -2.0246040000     0.3685290000
   13      H      -0.3822890000    -2.5592040000     0.8806290000
   14      H       0.2235110000    -2.7113040000    -0.7838710000
   15      H       0.2271110000     2.8556960000    -1.0979710000
 ----------------------------------------------------------------

   10    -629.4253794169      6.61e-07  Convergence criterion met
 Total energy in the final basis set =     -629.4253794169
        RIMP2         total energy =      -630.6010051795 a.u.

                    Orbital Energies (a.u.)
 --------------------------------------------------------------

 Alpha MOs
 -- Occupied --
-91.9786 -11.2862 -11.2490 -11.2474 -11.2268 -11.2233 -11.2225  -8.9783
 -6.6593  -6.6587  -6.6581  -1.1601  -1.0544  -0.9981  -0.9400  -0.8841
 -0.7428  -0.7188  -0.6471  -0.5896  -0.5735  -0.5704  -0.5553  -0.5441
 -0.5078  -0.4925  -0.4666  -0.4549  -0.3375  -0.2902

          Ground-State Mulliken Net Atomic Charges

     Atom                 Charge (a.u.)
  ----------------------------------------
      1 C                     0.064642
      2 C                    -0.299152
      3 C                     0.044995
      4 H                     0.174295
      5 C                    -0.278994
      6 S                     0.000410
      7 C                    -0.274518
      8 H                     0.101361
      9 H                     0.107315
     10 H                     0.107350
     11 C                    -0.387469
     12 H                     0.144856
     13 H                     0.142381
     14 H                     0.159842
     15 H                     0.192687
  ----------------------------------------
  Sum of atomic charges =     0.000000

                    Cartesian Multipole Moments
 -----------------------------------------------------------------
    Charge (ESU x 10^10)
                -0.0000
    Dipole Moment (Debye)
         X       0.7802      Y      -0.7399      Z       1.6590
       Tot       1.9769
    Quadrupole Moments (Debye-Ang)
        XX     -54.3386     XY      -0.7782     YY     -41.8289
        XZ      -0.1453     YZ       0.0278     ZZ     -48.6155

 Total job time:  16.12s(wall), 759.37s(cpu)
        *  Thank you very much for using Q-Chem.  Have a nice day.  *
