 Q-Chem 5.4, Q-Chem, Inc., Pleasanton, CA (2021)
 Q-Chem 5.4.0 for Intel X86 EM64T Linux

User input:
--------------------------------------------------------------
$molecule
0 1
C	-0.120247	-0.566489	-0.000076
C	0.023353	0.265811	1.112924
C	0.260253	1.636511	0.820524
H	-0.042647	-0.116589	2.142824
C	0.302753	1.881011	-0.563676
S	0.044653	0.390011	-1.464776
C	0.441653	2.685511	1.882324
H	0.365253	2.244111	2.894924
H	-0.325947	3.484011	1.808024
H	1.432753	3.179911	1.808124
C	-0.120247	-2.016589	-0.000076
H	0.943353	-2.017089	0.187424
H	-0.283347	-2.551689	0.923824
H	0.024153	-2.703789	-0.820676
H	0.465853	2.825011	-1.097176
$end

$rem
JOBTYPE		SP
EXCHANGE	HF
CORRELATION	pRIMP2
BASIS		cc-pvtz
METHOD		rimp2
AUX_BASIS	rimp2-cc-pvtz
SOLVENT_METHOD	PCM
PURECART	11111
SYMMETRY	false
MEM_TOTAL	110000
SCF_CONVERGENCE = 6
THRESH=10
GUI = 2
$end

$solvent
dielectric 4.90
$end
--------------------------------------------------------------

             Standard Nuclear Orientation (Angstroms)
    I     Atom           X                Y                Z
 ----------------------------------------------------------------
    1      C      -0.1202470000    -0.5664890000    -0.0000760000
    2      C       0.0233530000     0.2658110000     1.1129240000
    3      C       0.2602530000     1.6365110000     0.8205240000
    4      H      -0.0426470000    -0.1165890000     2.1428240000
    5      C       0.3027530000     1.8810110000    -0.5636760000
    6      S       0.0446530000     0.3900110000    -1.4647760000
    7      C       0.4416530000     2.6855110000     1.8823240000
    8      H       0.3652530000     2.2441110000     2.8949240000
    9      H      -0.3259470000     3.4840110000     1.8080240000
   10      H       1.4327530000     3.1799110000     1.8081240000
   11      C      -0.1202470000    -2.0165890000    -0.0000760000
   12      H       0.9433530000    -2.0170890000     0.1874240000
   13      H      -0.2833470000    -2.5516890000     0.9238240000
   14      H       0.0241530000    -2.7037890000    -0.8206760000
   15      H       0.4658530000     2.8250110000    -1.0971760000
 ----------------------------------------------------------------

   10    -629.4250078072      6.81e-07  Convergence criterion met
 Total energy in the final basis set =     -629.4250078072
        RIMP2         total energy =      -630.6003804830 a.u.

                    Orbital Energies (a.u.)
 --------------------------------------------------------------

 Alpha MOs
 -- Occupied --
-91.9786 -11.2866 -11.2489 -11.2474 -11.2267 -11.2234 -11.2226  -8.9783
 -6.6593  -6.6588  -6.6582  -1.1605  -1.0548  -0.9977  -0.9403  -0.8839
 -0.7433  -0.7186  -0.6470  -0.5892  -0.5751  -0.5695  -0.5537  -0.5448
 -0.5073  -0.4935  -0.4670  -0.4561  -0.3379  -0.2893

          Ground-State Mulliken Net Atomic Charges

     Atom                 Charge (a.u.)
  ----------------------------------------
      1 C                     0.060356
      2 C                    -0.305664
      3 C                     0.049826
      4 H                     0.174244
      5 C                    -0.281734
      6 S                     0.001324
      7 C                    -0.273445
      8 H                     0.101402
      9 H                     0.107328
     10 H                     0.107369
     11 C                    -0.383950
     12 H                     0.147922
     13 H                     0.142398
     14 H                     0.159702
     15 H                     0.192922
  ----------------------------------------
  Sum of atomic charges =     0.000000

                    Cartesian Multipole Moments
 -----------------------------------------------------------------
    Charge (ESU x 10^10)
                -0.0000
    Dipole Moment (Debye)
         X       0.9050      Y      -0.7805      Z       1.5367
       Tot       1.9467
    Quadrupole Moments (Debye-Ang)
        XX     -54.3147     XY      -0.0427     YY     -41.9664
        XZ      -0.0046     YZ       0.2685     ZZ     -48.5951

 Total job time:  19.51s(wall), 769.55s(cpu)
        *  Thank you very much for using Q-Chem.  Have a nice day.  *
