 Q-Chem 5.4, Q-Chem, Inc., Pleasanton, CA (2021)
 Q-Chem 5.4.0 for Intel X86 EM64T Linux

User input:
--------------------------------------------------------------
$molecule
0 1
C	-0.174647	-0.553870	-0.003488
C	0.040953	0.262730	1.109512
C	0.396453	1.607530	0.817112
H	-0.058147	-0.112470	2.139412
C	0.460053	1.847430	-0.567088
S	0.072953	0.384630	-1.468188
C	0.668553	2.636830	1.878912
H	0.553953	2.203730	2.891512
H	-0.026547	3.499130	1.804612
H	1.699053	3.042930	1.804712
C	-0.174647	-2.003970	-0.003488
H	0.194753	-2.004470	1.011412
H	-1.056247	-2.539070	0.317212
H	0.608153	-2.691170	-0.288788
H	0.704853	2.773630	-1.100588
$end

$rem
JOBTYPE		SP
EXCHANGE	HF
CORRELATION	pRIMP2
BASIS		cc-pvtz
METHOD		rimp2
AUX_BASIS	rimp2-cc-pvtz
SOLVENT_METHOD	PCM
PURECART	11111
SYMMETRY	false
MEM_TOTAL	110000
SCF_CONVERGENCE = 6
THRESH=10
GUI = 2
$end

$solvent
dielectric 4.90
$end
--------------------------------------------------------------

             Standard Nuclear Orientation (Angstroms)
    I     Atom           X                Y                Z
 ----------------------------------------------------------------
    1      C      -0.1746470000    -0.5538700000    -0.0034880000
    2      C       0.0409530000     0.2627300000     1.1095120000
    3      C       0.3964530000     1.6075300000     0.8171120000
    4      H      -0.0581470000    -0.1124700000     2.1394120000
    5      C       0.4600530000     1.8474300000    -0.5670880000
    6      S       0.0729530000     0.3846300000    -1.4681880000
    7      C       0.6685530000     2.6368300000     1.8789120000
    8      H       0.5539530000     2.2037300000     2.8915120000
    9      H      -0.0265470000     3.4991300000     1.8046120000
   10      H       1.6990530000     3.0429300000     1.8047120000
   11      C      -0.1746470000    -2.0039700000    -0.0034880000
   12      H       0.1947530000    -2.0044700000     1.0114120000
   13      H      -1.0562470000    -2.5390700000     0.3172120000
   14      H       0.6081530000    -2.6911700000    -0.2887880000
   15      H       0.7048530000     2.7736300000    -1.1005880000
 ----------------------------------------------------------------

   10    -629.4200591251      4.98e-07  Convergence criterion met
 Total energy in the final basis set =     -629.4200591251
        RIMP2         total energy =      -630.5987043881 a.u.

                    Orbital Energies (a.u.)
 --------------------------------------------------------------

 Alpha MOs
 -- Occupied --
-91.9762 -11.2774 -11.2574 -11.2474 -11.2329 -11.2276 -11.2166  -8.9762
 -6.6571  -6.6566  -6.6561  -1.1614  -1.0526  -0.9995  -0.9383  -0.8852
 -0.7424  -0.7236  -0.6471  -0.5905  -0.5774  -0.5686  -0.5578  -0.5414
 -0.5109  -0.4825  -0.4682  -0.4415  -0.3367  -0.3024

          Ground-State Mulliken Net Atomic Charges

     Atom                 Charge (a.u.)
  ----------------------------------------
      1 C                     0.047162
      2 C                    -0.263742
      3 C                     0.030903
      4 H                     0.175207
      5 C                    -0.252338
      6 S                    -0.004664
      7 C                    -0.272749
      8 H                     0.101245
      9 H                     0.107233
     10 H                     0.107098
     11 C                    -0.375024
     12 H                     0.127930
     13 H                     0.128642
     14 H                     0.149893
     15 H                     0.193204
  ----------------------------------------
  Sum of atomic charges =     0.000000

                    Cartesian Multipole Moments
 -----------------------------------------------------------------
    Charge (ESU x 10^10)
                -0.0000
    Dipole Moment (Debye)
         X       0.5947      Y      -0.1242      Z       2.1317
       Tot       2.2166
    Quadrupole Moments (Debye-Ang)
        XX     -53.3179     XY       1.5490     YY     -42.8238
        XZ      -0.2243     YZ      -0.9165     ZZ     -48.8724

 Total job time:  20.30s(wall), 767.79s(cpu)
        *  Thank you very much for using Q-Chem.  Have a nice day.  *
