 Q-Chem 5.4, Q-Chem, Inc., Pleasanton, CA (2021)
 Q-Chem 5.4.0 for Intel X86 EM64T Linux

User input:
--------------------------------------------------------------
$molecule
0 1
C	-0.339555	-0.486609	0.005627
C	0.080045	0.246391	1.118627
C	0.771545	1.453391	0.826227
H	-0.112855	-0.090409	2.148527
C	0.895045	1.668591	-0.557973
S	0.142545	0.355791	-1.459073
C	1.300745	2.377091	1.888027
H	1.077945	1.988491	2.900627
H	0.852445	3.389991	1.813727
H	2.401145	2.502691	1.813827
C	-0.339555	-1.936709	0.005627
H	0.029845	-1.937209	-1.009273
H	0.541945	-2.471809	0.326727
H	-1.122555	-2.623909	-0.279073
H	1.371145	2.499891	-1.091473
$end

$rem
JOBTYPE		SP
EXCHANGE	HF
CORRELATION	pRIMP2
BASIS		cc-pvtz
METHOD		rimp2
AUX_BASIS	rimp2-cc-pvtz
SOLVENT_METHOD	PCM
PURECART	11111
SYMMETRY	false
MEM_TOTAL	110000
SCF_CONVERGENCE = 6
THRESH=10
GUI = 2
$end

$solvent
dielectric 4.90
$end
--------------------------------------------------------------

             Standard Nuclear Orientation (Angstroms)
    I     Atom           X                Y                Z
 ----------------------------------------------------------------
    1      C      -0.3395550000    -0.4866090000     0.0056270000
    2      C       0.0800450000     0.2463910000     1.1186270000
    3      C       0.7715450000     1.4533910000     0.8262270000
    4      H      -0.1128550000    -0.0904090000     2.1485270000
    5      C       0.8950450000     1.6685910000    -0.5579730000
    6      S       0.1425450000     0.3557910000    -1.4590730000
    7      C       1.3007450000     2.3770910000     1.8880270000
    8      H       1.0779450000     1.9884910000     2.9006270000
    9      H       0.8524450000     3.3899910000     1.8137270000
   10      H       2.4011450000     2.5026910000     1.8138270000
   11      C      -0.3395550000    -1.9367090000     0.0056270000
   12      H       0.0298450000    -1.9372090000    -1.0092730000
   13      H       0.5419450000    -2.4718090000     0.3267270000
   14      H      -1.1225550000    -2.6239090000    -0.2790730000
   15      H       1.3711450000     2.4998910000    -1.0914730000
 ----------------------------------------------------------------

   10    -629.4042122089      5.46e-07  Convergence criterion met
 Total energy in the final basis set =     -629.4042122089
        RIMP2         total energy =      -630.5852911223 a.u.

                    Orbital Energies (a.u.)
 --------------------------------------------------------------

 Alpha MOs
 -- Occupied --
-91.9775 -11.2698 -11.2626 -11.2472 -11.2337 -11.2274 -11.2142  -8.9779
 -6.6588  -6.6582  -6.6576  -1.1636  -1.0540  -0.9943  -0.9445  -0.8816
 -0.7491  -0.7201  -0.6453  -0.5901  -0.5771  -0.5656  -0.5520  -0.5467
 -0.5111  -0.4820  -0.4636  -0.4439  -0.3370  -0.3024

          Ground-State Mulliken Net Atomic Charges

     Atom                 Charge (a.u.)
  ----------------------------------------
      1 C                     0.017955
      2 C                    -0.257457
      3 C                     0.045301
      4 H                     0.178020
      5 C                    -0.247589
      6 S                    -0.003876
      7 C                    -0.270819
      8 H                     0.101989
      9 H                     0.107250
     10 H                     0.106146
     11 C                    -0.369710
     12 H                     0.122303
     13 H                     0.136691
     14 H                     0.138078
     15 H                     0.195718
  ----------------------------------------
  Sum of atomic charges =     0.000000

                    Cartesian Multipole Moments
 -----------------------------------------------------------------
    Charge (ESU x 10^10)
                -0.0000
    Dipole Moment (Debye)
         X       1.1170      Y       0.0563      Z       0.9779
       Tot       1.4856
    Quadrupole Moments (Debye-Ang)
        XX     -51.9429     XY       3.4436     YY     -44.7355
        XZ       0.4422     YZ       1.4719     ZZ     -48.6084

 Total job time:  15.40s(wall), 733.25s(cpu)
        *  Thank you very much for using Q-Chem.  Have a nice day.  *
