 Q-Chem 5.4, Q-Chem, Inc., Pleasanton, CA (2021)
 Q-Chem 5.4.0 for Intel X86 EM64T Linux

User input:
--------------------------------------------------------------
$molecule
0 1
C	-0.584860	-0.238938	0.005666
C	0.145040	0.186062	1.118666
C	1.347340	0.885562	0.826266
H	-0.190360	-0.009138	2.148566
C	1.561940	1.010262	-0.557934
S	0.253840	0.249562	-1.459034
C	2.267540	1.420962	1.888066
H	1.880240	1.195762	2.900666
H	2.385740	2.522262	1.813766
H	3.283340	0.979462	1.813866
C	-0.584860	-1.689038	0.005666
H	-1.124860	-1.689538	-0.929634
H	0.227740	-2.224138	-0.463234
H	-1.306260	-2.376238	0.422566
H	2.389940	1.492062	-1.091434
$end

$rem
JOBTYPE		SP
EXCHANGE	HF
CORRELATION	pRIMP2
BASIS		cc-pvtz
METHOD		rimp2
AUX_BASIS	rimp2-cc-pvtz
SOLVENT_METHOD	PCM
PURECART	11111
SYMMETRY	false
MEM_TOTAL	110000
SCF_CONVERGENCE = 6
THRESH=10
GUI = 2
$end

$solvent
dielectric 4.90
$end
--------------------------------------------------------------

             Standard Nuclear Orientation (Angstroms)
    I     Atom           X                Y                Z
 ----------------------------------------------------------------
    1      C      -0.5848600000    -0.2389380000     0.0056660000
    2      C       0.1450400000     0.1860620000     1.1186660000
    3      C       1.3473400000     0.8855620000     0.8262660000
    4      H      -0.1903600000    -0.0091380000     2.1485660000
    5      C       1.5619400000     1.0102620000    -0.5579340000
    6      S       0.2538400000     0.2495620000    -1.4590340000
    7      C       2.2675400000     1.4209620000     1.8880660000
    8      H       1.8802400000     1.1957620000     2.9006660000
    9      H       2.3857400000     2.5222620000     1.8137660000
   10      H       3.2833400000     0.9794620000     1.8138660000
   11      C      -0.5848600000    -1.6890380000     0.0056660000
   12      H      -1.1248600000    -1.6895380000    -0.9296340000
   13      H       0.2277400000    -2.2241380000    -0.4632340000
   14      H      -1.3062600000    -2.3762380000     0.4225660000
   15      H       2.3899400000     1.4920620000    -1.0914340000
 ----------------------------------------------------------------

   11    -629.3497370145      4.89e-07  Convergence criterion met
 Total energy in the final basis set =     -629.3497370145
        RIMP2         total energy =      -630.5392126968 a.u.

                    Orbital Energies (a.u.)
 --------------------------------------------------------------

 Alpha MOs
 -- Occupied --
-91.9764 -11.2849 -11.2521 -11.2487 -11.2406 -11.2289 -11.2086  -8.9772
 -6.6580  -6.6572  -6.6569  -1.1733  -1.0555  -0.9956  -0.9431  -0.8802
 -0.7549  -0.7284  -0.6421  -0.5939  -0.5793  -0.5680  -0.5512  -0.5451
 -0.5182  -0.4718  -0.4514  -0.4357  -0.3332  -0.3030

          Ground-State Mulliken Net Atomic Charges

     Atom                 Charge (a.u.)
  ----------------------------------------
      1 C                    -0.124470
      2 C                    -0.091528
      3 C                    -0.027861
      4 H                     0.184101
      5 C                    -0.177536
      6 S                     0.011557
      7 C                    -0.268505
      8 H                     0.102317
      9 H                     0.106611
     10 H                     0.103966
     11 C                    -0.373556
     12 H                     0.104744
     13 H                     0.118904
     14 H                     0.131398
     15 H                     0.199856
  ----------------------------------------
  Sum of atomic charges =     0.000000

                    Cartesian Multipole Moments
 -----------------------------------------------------------------
    Charge (ESU x 10^10)
                -0.0000
    Dipole Moment (Debye)
         X       2.2704      Y       0.2860      Z       1.3593
       Tot       2.6616
    Quadrupole Moments (Debye-Ang)
        XX     -47.6254     XY       5.0933     YY     -49.9571
        XZ      -0.4318     YZ       0.6790     ZZ     -47.8974

 Total job time:  18.78s(wall), 821.77s(cpu)
        *  Thank you very much for using Q-Chem.  Have a nice day.  *
