 Q-Chem 5.4, Q-Chem, Inc., Pleasanton, CA (2021)
 Q-Chem 5.4.0 for Intel X86 EM64T Linux

User input:
--------------------------------------------------------------
$molecule
0 1
C	-0.280853	-0.513776	0.004064
C	0.073347	0.253024	1.117064
C	0.656947	1.515624	0.824664
H	-0.089553	-0.099276	2.146964
C	0.761147	1.740824	-0.559536
S	0.126047	0.367424	-1.460636
C	1.103547	2.482024	1.886464
H	0.915547	2.075424	2.899064
H	0.568747	3.451924	1.812164
H	2.188947	2.703024	1.812264
C	-0.280853	-1.963876	0.004064
H	-1.216153	-1.964376	-0.535936
H	0.188447	-2.498976	-0.808236
H	-0.697153	-2.651076	0.725764
H	1.163047	2.610424	-1.093036
$end

$rem
JOBTYPE		SP
EXCHANGE	HF
CORRELATION	pRIMP2
BASIS		cc-pvtz
METHOD		rimp2
AUX_BASIS	rimp2-cc-pvtz
SOLVENT_METHOD	PCM
PURECART	11111
SYMMETRY	false
MEM_TOTAL	110000
SCF_CONVERGENCE = 6
THRESH=10
GUI = 2
$end

$solvent
dielectric 4.90
$end
--------------------------------------------------------------

             Standard Nuclear Orientation (Angstroms)
    I     Atom           X                Y                Z
 ----------------------------------------------------------------
    1      C      -0.2808530000    -0.5137760000     0.0040640000
    2      C       0.0733470000     0.2530240000     1.1170640000
    3      C       0.6569470000     1.5156240000     0.8246640000
    4      H      -0.0895530000    -0.0992760000     2.1469640000
    5      C       0.7611470000     1.7408240000    -0.5595360000
    6      S       0.1260470000     0.3674240000    -1.4606360000
    7      C       1.1035470000     2.4820240000     1.8864640000
    8      H       0.9155470000     2.0754240000     2.8990640000
    9      H       0.5687470000     3.4519240000     1.8121640000
   10      H       2.1889470000     2.7030240000     1.8122640000
   11      C      -0.2808530000    -1.9638760000     0.0040640000
   12      H      -1.2161530000    -1.9643760000    -0.5359360000
   13      H       0.1884470000    -2.4989760000    -0.8082360000
   14      H      -0.6971530000    -2.6510760000     0.7257640000
   15      H       1.1630470000     2.6104240000    -1.0930360000
 ----------------------------------------------------------------

   10    -629.4081698896      5.47e-07  Convergence criterion met
 Total energy in the final basis set =     -629.4081698896
        RIMP2         total energy =      -630.5874455104 a.u.

                    Orbital Energies (a.u.)
 --------------------------------------------------------------

 Alpha MOs
 -- Occupied --
-91.9790 -11.2760 -11.2568 -11.2472 -11.2277 -11.2268 -11.2170  -8.9789
 -6.6599  -6.6594  -6.6588  -1.1611  -1.0533  -0.9956  -0.9434  -0.8831
 -0.7459  -0.7191  -0.6458  -0.5879  -0.5736  -0.5679  -0.5525  -0.5452
 -0.5104  -0.4901  -0.4601  -0.4528  -0.3380  -0.2919

          Ground-State Mulliken Net Atomic Charges

     Atom                 Charge (a.u.)
  ----------------------------------------
      1 C                     0.003587
      2 C                    -0.248171
      3 C                     0.035460
      4 H                     0.179644
      5 C                    -0.255533
      6 S                    -0.002913
      7 C                    -0.272077
      8 H                     0.101562
      9 H                     0.107091
     10 H                     0.106447
     11 C                    -0.376102
     12 H                     0.126959
     13 H                     0.141460
     14 H                     0.157318
     15 H                     0.195268
  ----------------------------------------
  Sum of atomic charges =     0.000000

                    Cartesian Multipole Moments
 -----------------------------------------------------------------
    Charge (ESU x 10^10)
                -0.0000
    Dipole Moment (Debye)
         X       0.0288      Y      -0.2908      Z       1.1610
       Tot       1.1972
    Quadrupole Moments (Debye-Ang)
        XX     -52.5089     XY       4.7177     YY     -43.6438
        XZ      -0.1564     YZ       0.7971     ZZ     -48.5045

 Total job time:  18.73s(wall), 763.54s(cpu)
        *  Thank you very much for using Q-Chem.  Have a nice day.  *
