 Q-Chem 5.4, Q-Chem, Inc., Pleasanton, CA (2021)
 Q-Chem 5.4.0 for Intel X86 EM64T Linux

User input:
--------------------------------------------------------------
$molecule
0 1
C	-0.523043	-0.335659	-0.000871
C	0.121957	0.209641	1.112129
C	1.184557	1.107341	0.819729
H	-0.174443	-0.040859	2.142029
C	1.374157	1.267341	-0.564471
S	0.218157	0.291041	-1.465571
C	1.997757	1.794341	1.881529
H	1.655557	1.505341	2.894129
H	1.922957	2.899441	1.807229
H	3.074757	1.535941	1.807329
C	-0.523043	-1.785759	-0.000871
H	0.491857	-1.786259	0.368529
H	-0.844143	-2.320859	0.880629
H	-0.238343	-2.472959	-0.783871
H	2.105957	1.885641	-1.097971
$end

$rem
JOBTYPE		SP
EXCHANGE	HF
CORRELATION	pRIMP2
BASIS		cc-pvtz
METHOD		rimp2
AUX_BASIS	rimp2-cc-pvtz
SOLVENT_METHOD	PCM
PURECART	11111
SYMMETRY	false
MEM_TOTAL	110000
SCF_CONVERGENCE = 6
THRESH=10
GUI = 2
$end

$solvent
dielectric 4.90
$end
--------------------------------------------------------------

             Standard Nuclear Orientation (Angstroms)
    I     Atom           X                Y                Z
 ----------------------------------------------------------------
    1      C      -0.5230430000    -0.3356590000    -0.0008710000
    2      C       0.1219570000     0.2096410000     1.1121290000
    3      C       1.1845570000     1.1073410000     0.8197290000
    4      H      -0.1744430000    -0.0408590000     2.1420290000
    5      C       1.3741570000     1.2673410000    -0.5644710000
    6      S       0.2181570000     0.2910410000    -1.4655710000
    7      C       1.9977570000     1.7943410000     1.8815290000
    8      H       1.6555570000     1.5053410000     2.8941290000
    9      H       1.9229570000     2.8994410000     1.8072290000
   10      H       3.0747570000     1.5359410000     1.8073290000
   11      C      -0.5230430000    -1.7857590000    -0.0008710000
   12      H       0.4918570000    -1.7862590000     0.3685290000
   13      H      -0.8441430000    -2.3208590000     0.8806290000
   14      H      -0.2383430000    -2.4729590000    -0.7838710000
   15      H       2.1059570000     1.8856410000    -1.0979710000
 ----------------------------------------------------------------

   10    -629.3710848805      7.55e-07  Convergence criterion met
 Total energy in the final basis set =     -629.3710848805
        RIMP2         total energy =      -630.5597326933 a.u.

                    Orbital Energies (a.u.)
 --------------------------------------------------------------

 Alpha MOs
 -- Occupied --
-91.9787 -11.2677 -11.2667 -11.2502 -11.2354 -11.2286 -11.2150  -8.9788
 -6.6597  -6.6590  -6.6586  -1.1713  -1.0560  -0.9987  -0.9356  -0.8830
 -0.7472  -0.7261  -0.6439  -0.5891  -0.5807  -0.5701  -0.5535  -0.5450
 -0.5117  -0.4858  -0.4580  -0.4508  -0.3363  -0.2878

          Ground-State Mulliken Net Atomic Charges

     Atom                 Charge (a.u.)
  ----------------------------------------
      1 C                    -0.043963
      2 C                    -0.190453
      3 C                     0.006747
      4 H                     0.178231
      5 C                    -0.236524
      6 S                     0.018201
      7 C                    -0.267772
      8 H                     0.102336
      9 H                     0.107499
     10 H                     0.104828
     11 C                    -0.377555
     12 H                     0.133466
     13 H                     0.118480
     14 H                     0.150392
     15 H                     0.196089
  ----------------------------------------
  Sum of atomic charges =     0.000000

                    Cartesian Multipole Moments
 -----------------------------------------------------------------
    Charge (ESU x 10^10)
                -0.0000
    Dipole Moment (Debye)
         X       2.0847      Y      -0.2152      Z       1.7413
       Tot       2.7248
    Quadrupole Moments (Debye-Ang)
        XX     -50.2735     XY       3.7093     YY     -48.0270
        XZ      -0.1656     YZ      -0.2666     ZZ     -47.9661

 Total job time:  17.59s(wall), 752.33s(cpu)
        *  Thank you very much for using Q-Chem.  Have a nice day.  *
