 Q-Chem 5.4, Q-Chem, Inc., Pleasanton, CA (2021)
 Q-Chem 5.4.0 for Intel X86 EM64T Linux

User input:
--------------------------------------------------------------
$molecule
0 1
C	-0.111157	-0.566489	0.003333
C	0.032443	0.265811	1.116333
C	0.269343	1.636511	0.823933
H	-0.033557	-0.116589	2.146233
C	0.311843	1.881011	-0.560267
S	0.053743	0.390011	-1.461367
C	0.450743	2.685511	1.885733
H	0.374343	2.244111	2.898333
H	-0.316857	3.484011	1.811433
H	1.441843	3.179911	1.811533
C	-0.111157	-2.016589	0.003333
H	-1.126057	-2.017089	-0.366067
H	0.209943	-2.551689	-0.878167
H	-0.395857	-2.703789	0.786333
H	0.474943	2.825011	-1.093767
$end

$rem
JOBTYPE		SP
EXCHANGE	HF
CORRELATION	pRIMP2
BASIS		cc-pvtz
METHOD		rimp2
AUX_BASIS	rimp2-cc-pvtz
SOLVENT_METHOD	PCM
PURECART	11111
SYMMETRY	false
MEM_TOTAL	110000
SCF_CONVERGENCE = 6
THRESH=10
GUI = 2
$end

$solvent
dielectric 4.90
$end
--------------------------------------------------------------

             Standard Nuclear Orientation (Angstroms)
    I     Atom           X                Y                Z
 ----------------------------------------------------------------
    1      C      -0.1111570000    -0.5664890000     0.0033330000
    2      C       0.0324430000     0.2658110000     1.1163330000
    3      C       0.2693430000     1.6365110000     0.8239330000
    4      H      -0.0335570000    -0.1165890000     2.1462330000
    5      C       0.3118430000     1.8810110000    -0.5602670000
    6      S       0.0537430000     0.3900110000    -1.4613670000
    7      C       0.4507430000     2.6855110000     1.8857330000
    8      H       0.3743430000     2.2441110000     2.8983330000
    9      H      -0.3168570000     3.4840110000     1.8114330000
   10      H       1.4418430000     3.1799110000     1.8115330000
   11      C      -0.1111570000    -2.0165890000     0.0033330000
   12      H      -1.1260570000    -2.0170890000    -0.3660670000
   13      H       0.2099430000    -2.5516890000    -0.8781670000
   14      H      -0.3958570000    -2.7037890000     0.7863330000
   15      H       0.4749430000     2.8250110000    -1.0937670000
 ----------------------------------------------------------------

   10    -629.4215149812      6.52e-07  Convergence criterion met
 Total energy in the final basis set =     -629.4215149812
        RIMP2         total energy =      -630.5972813833 a.u.

                    Orbital Energies (a.u.)
 --------------------------------------------------------------

 Alpha MOs
 -- Occupied --
-91.9794 -11.2830 -11.2514 -11.2469 -11.2265 -11.2235 -11.2211  -8.9791
 -6.6601  -6.6596  -6.6590  -1.1599  -1.0542  -0.9963  -0.9431  -0.8833
 -0.7447  -0.7179  -0.6477  -0.5875  -0.5741  -0.5670  -0.5527  -0.5460
 -0.5081  -0.4941  -0.4640  -0.4557  -0.3384  -0.2907

          Ground-State Mulliken Net Atomic Charges

     Atom                 Charge (a.u.)
  ----------------------------------------
      1 C                     0.041854
      2 C                    -0.279602
      3 C                     0.039475
      4 H                     0.178674
      5 C                    -0.270798
      6 S                    -0.003352
      7 C                    -0.273542
      8 H                     0.101455
      9 H                     0.107144
     10 H                     0.107180
     11 C                    -0.379227
     12 H                     0.133520
     13 H                     0.139808
     14 H                     0.162633
     15 H                     0.194778
  ----------------------------------------
  Sum of atomic charges =     0.000000

                    Cartesian Multipole Moments
 -----------------------------------------------------------------
    Charge (ESU x 10^10)
                -0.0000
    Dipole Moment (Debye)
         X      -0.4747      Y      -0.5817      Z       1.1771
       Tot       1.3962
    Quadrupole Moments (Debye-Ang)
        XX     -53.9735     XY       2.9816     YY     -41.9819
        XZ      -0.1551     YZ       0.7606     ZZ     -48.5806

 Total job time:  16.08s(wall), 742.91s(cpu)
        *  Thank you very much for using Q-Chem.  Have a nice day.  *
