 Q-Chem 5.4, Q-Chem, Inc., Pleasanton, CA (2021)
 Q-Chem 5.4.0 for Intel X86 EM64T Linux

User input:
--------------------------------------------------------------
$molecule
0 1
C	-0.172125	-0.553870	-0.003463
C	0.043475	0.262730	1.109537
C	0.398975	1.607530	0.817137
H	-0.055625	-0.112470	2.139437
C	0.462575	1.847430	-0.567063
S	0.075475	0.384630	-1.468163
C	0.671075	2.636830	1.878937
H	0.556475	2.203730	2.891537
H	-0.024025	3.499130	1.804637
H	1.701575	3.042930	1.804737
C	-0.172125	-2.003970	-0.003463
H	-0.359625	-2.004470	1.060137
H	-1.096025	-2.539070	-0.166563
H	0.648475	-2.691170	0.140937
H	0.707375	2.773630	-1.100563
$end

$rem
JOBTYPE		SP
EXCHANGE	HF
CORRELATION	pRIMP2
BASIS		cc-pvtz
METHOD		rimp2
AUX_BASIS	rimp2-cc-pvtz
SOLVENT_METHOD	PCM
PURECART	11111
SYMMETRY	false
MEM_TOTAL	110000
SCF_CONVERGENCE = 6
THRESH=10
GUI = 2
$end

$solvent
dielectric 4.90
$end
--------------------------------------------------------------

             Standard Nuclear Orientation (Angstroms)
    I     Atom           X                Y                Z
 ----------------------------------------------------------------
    1      C      -0.1721250000    -0.5538700000    -0.0034630000
    2      C       0.0434750000     0.2627300000     1.1095370000
    3      C       0.3989750000     1.6075300000     0.8171370000
    4      H      -0.0556250000    -0.1124700000     2.1394370000
    5      C       0.4625750000     1.8474300000    -0.5670630000
    6      S       0.0754750000     0.3846300000    -1.4681630000
    7      C       0.6710750000     2.6368300000     1.8789370000
    8      H       0.5564750000     2.2037300000     2.8915370000
    9      H      -0.0240250000     3.4991300000     1.8046370000
   10      H       1.7015750000     3.0429300000     1.8047370000
   11      C      -0.1721250000    -2.0039700000    -0.0034630000
   12      H      -0.3596250000    -2.0044700000     1.0601370000
   13      H      -1.0960250000    -2.5390700000    -0.1665630000
   14      H       0.6484750000    -2.6911700000     0.1409370000
   15      H       0.7073750000     2.7736300000    -1.1005630000
 ----------------------------------------------------------------

   10    -629.4217715751      4.87e-07  Convergence criterion met
 Total energy in the final basis set =     -629.4217715751
        RIMP2         total energy =      -630.6003902589 a.u.

                    Orbital Energies (a.u.)
 --------------------------------------------------------------

 Alpha MOs
 -- Occupied --
-91.9751 -11.2755 -11.2596 -11.2474 -11.2352 -11.2277 -11.2165  -8.9752
 -6.6562  -6.6556  -6.6551  -1.1614  -1.0523  -0.9995  -0.9387  -0.8855
 -0.7426  -0.7243  -0.6476  -0.5897  -0.5783  -0.5670  -0.5584  -0.5411
 -0.5114  -0.4842  -0.4672  -0.4377  -0.3377  -0.3051

          Ground-State Mulliken Net Atomic Charges

     Atom                 Charge (a.u.)
  ----------------------------------------
      1 C                     0.041159
      2 C                    -0.264867
      3 C                     0.034921
      4 H                     0.176794
      5 C                    -0.248872
      6 S                    -0.006284
      7 C                    -0.272298
      8 H                     0.101296
      9 H                     0.107068
     10 H                     0.107276
     11 C                    -0.359938
     12 H                     0.117413
     13 H                     0.130936
     14 H                     0.141387
     15 H                     0.194009
  ----------------------------------------
  Sum of atomic charges =     0.000000

                    Cartesian Multipole Moments
 -----------------------------------------------------------------
    Charge (ESU x 10^10)
                -0.0000
    Dipole Moment (Debye)
         X       0.2829      Y      -0.0002      Z       2.1698
       Tot       2.1882
    Quadrupole Moments (Debye-Ang)
        XX     -53.1286     XY       2.3707     YY     -42.7825
        XZ       0.0794     YZ      -1.0391     ZZ     -48.9448

 Total job time:  15.92s(wall), 755.83s(cpu)
        *  Thank you very much for using Q-Chem.  Have a nice day.  *
