 Q-Chem 5.4, Q-Chem, Inc., Pleasanton, CA (2021)
 Q-Chem 5.4.0 for Intel X86 EM64T Linux

User input:
--------------------------------------------------------------
$molecule
0 1
C	-0.519026	-0.335659	-0.003627
C	0.125974	0.209641	1.109373
C	1.188574	1.107341	0.816973
H	-0.170426	-0.040859	2.139273
C	1.378174	1.267341	-0.567227
S	0.222174	0.291041	-1.468327
C	2.001774	1.794341	1.878773
H	1.659574	1.505341	2.891373
H	1.926974	2.899441	1.804473
H	3.078774	1.535941	1.804573
C	-0.519026	-1.785759	-0.003627
H	-0.331426	-1.786259	1.059973
H	-1.442926	-2.320859	0.159073
H	0.301474	-2.472959	-0.148627
H	2.109974	1.885641	-1.100727
$end

$rem
JOBTYPE		SP
EXCHANGE	HF
CORRELATION	pRIMP2
BASIS		cc-pvtz
METHOD		rimp2
AUX_BASIS	rimp2-cc-pvtz
SOLVENT_METHOD	PCM
PURECART	11111
SYMMETRY	false
MEM_TOTAL	110000
SCF_CONVERGENCE = 6
THRESH=10
GUI = 2
$end

$solvent
dielectric 4.90
$end
--------------------------------------------------------------

             Standard Nuclear Orientation (Angstroms)
    I     Atom           X                Y                Z
 ----------------------------------------------------------------
    1      C      -0.5190260000    -0.3356590000    -0.0036270000
    2      C       0.1259740000     0.2096410000     1.1093730000
    3      C       1.1885740000     1.1073410000     0.8169730000
    4      H      -0.1704260000    -0.0408590000     2.1392730000
    5      C       1.3781740000     1.2673410000    -0.5672270000
    6      S       0.2221740000     0.2910410000    -1.4683270000
    7      C       2.0017740000     1.7943410000     1.8787730000
    8      H       1.6595740000     1.5053410000     2.8913730000
    9      H       1.9269740000     2.8994410000     1.8044730000
   10      H       3.0787740000     1.5359410000     1.8045730000
   11      C      -0.5190260000    -1.7857590000    -0.0036270000
   12      H      -0.3314260000    -1.7862590000     1.0599730000
   13      H      -1.4429260000    -2.3208590000     0.1590730000
   14      H       0.3014740000    -2.4729590000    -0.1486270000
   15      H       2.1099740000     1.8856410000    -1.1007270000
 ----------------------------------------------------------------

   10    -629.3691471242      9.06e-07  Convergence criterion met
 Total energy in the final basis set =     -629.3691471242
        RIMP2         total energy =      -630.5578749043 a.u.

                    Orbital Energies (a.u.)
 --------------------------------------------------------------

 Alpha MOs
 -- Occupied --
-91.9745 -11.2749 -11.2543 -11.2486 -11.2469 -11.2290 -11.2082  -8.9750
 -6.6558  -6.6551  -6.6547  -1.1698  -1.0538  -1.0006  -0.9340  -0.8842
 -0.7459  -0.7315  -0.6436  -0.5880  -0.5825  -0.5709  -0.5534  -0.5417
 -0.5182  -0.4698  -0.4601  -0.4341  -0.3318  -0.3050

          Ground-State Mulliken Net Atomic Charges

     Atom                 Charge (a.u.)
  ----------------------------------------
      1 C                    -0.066058
      2 C                    -0.164660
      3 C                    -0.001066
      4 H                     0.177471
      5 C                    -0.205841
      6 S                     0.007797
      7 C                    -0.268485
      8 H                     0.101626
      9 H                     0.106913
     10 H                     0.105232
     11 C                    -0.358194
     12 H                     0.116064
     13 H                     0.107410
     14 H                     0.145905
     15 H                     0.195888
  ----------------------------------------
  Sum of atomic charges =     0.000000

                    Cartesian Multipole Moments
 -----------------------------------------------------------------
    Charge (ESU x 10^10)
                -0.0000
    Dipole Moment (Debye)
         X       1.9777      Y       0.2651      Z       2.2995
       Tot       3.0445
    Quadrupole Moments (Debye-Ang)
        XX     -49.2195     XY       4.1234     YY     -48.4164
        XZ      -0.4886     YZ      -0.9662     ZZ     -48.3360

 Total job time:  16.44s(wall), 772.35s(cpu)
        *  Thank you very much for using Q-Chem.  Have a nice day.  *
