 Q-Chem 5.4, Q-Chem, Inc., Pleasanton, CA (2021)
 Q-Chem 5.4.0 for Intel X86 EM64T Linux

User input:
--------------------------------------------------------------
$molecule
0 1
C	-0.340286	-0.486609	0.005194
C	0.079314	0.246391	1.118194
C	0.770814	1.453391	0.825794
H	-0.113586	-0.090409	2.148094
C	0.894314	1.668591	-0.558406
S	0.141814	0.355791	-1.459506
C	1.300014	2.377091	1.887594
H	1.077214	1.988491	2.900194
H	0.851714	3.389991	1.813294
H	2.400414	2.502691	1.813394
C	-0.340286	-1.936709	0.005194
H	0.199714	-1.937209	-0.930106
H	0.472014	-2.471809	0.474494
H	-1.061986	-2.623909	-0.411106
H	1.370414	2.499891	-1.091906
$end

$rem
JOBTYPE		SP
EXCHANGE	HF
CORRELATION	pRIMP2
BASIS		cc-pvtz
METHOD		rimp2
AUX_BASIS	rimp2-cc-pvtz
SOLVENT_METHOD	PCM
PURECART	11111
SYMMETRY	false
MEM_TOTAL	110000
SCF_CONVERGENCE = 6
THRESH=10
GUI = 2
$end

$solvent
dielectric 4.90
$end
--------------------------------------------------------------

             Standard Nuclear Orientation (Angstroms)
    I     Atom           X                Y                Z
 ----------------------------------------------------------------
    1      C      -0.3402860000    -0.4866090000     0.0051940000
    2      C       0.0793140000     0.2463910000     1.1181940000
    3      C       0.7708140000     1.4533910000     0.8257940000
    4      H      -0.1135860000    -0.0904090000     2.1480940000
    5      C       0.8943140000     1.6685910000    -0.5584060000
    6      S       0.1418140000     0.3557910000    -1.4595060000
    7      C       1.3000140000     2.3770910000     1.8875940000
    8      H       1.0772140000     1.9884910000     2.9001940000
    9      H       0.8517140000     3.3899910000     1.8132940000
   10      H       2.4004140000     2.5026910000     1.8133940000
   11      C      -0.3402860000    -1.9367090000     0.0051940000
   12      H       0.1997140000    -1.9372090000    -0.9301060000
   13      H       0.4720140000    -2.4718090000     0.4744940000
   14      H      -1.0619860000    -2.6239090000    -0.4111060000
   15      H       1.3704140000     2.4998910000    -1.0919060000
 ----------------------------------------------------------------

   10    -629.4048673790      5.64e-07  Convergence criterion met
 Total energy in the final basis set =     -629.4048673790
        RIMP2         total energy =      -630.5854969341 a.u.

                    Orbital Energies (a.u.)
 --------------------------------------------------------------

 Alpha MOs
 -- Occupied --
-91.9765 -11.2717 -11.2615 -11.2472 -11.2333 -11.2274 -11.2148  -8.9769
 -6.6578  -6.6572  -6.6567  -1.1637  -1.0542  -0.9944  -0.9440  -0.8816
 -0.7487  -0.7201  -0.6452  -0.5898  -0.5776  -0.5654  -0.5516  -0.5467
 -0.5106  -0.4847  -0.4630  -0.4453  -0.3377  -0.2998

          Ground-State Mulliken Net Atomic Charges

     Atom                 Charge (a.u.)
  ----------------------------------------
      1 C                     0.024264
      2 C                    -0.268059
      3 C                     0.046538
      4 H                     0.178598
      5 C                    -0.248315
      6 S                    -0.004603
      7 C                    -0.270574
      8 H                     0.101856
      9 H                     0.107458
     10 H                     0.106276
     11 C                    -0.373761
     12 H                     0.127539
     13 H                     0.138620
     14 H                     0.139178
     15 H                     0.194985
  ----------------------------------------
  Sum of atomic charges =     0.000000

                    Cartesian Multipole Moments
 -----------------------------------------------------------------
    Charge (ESU x 10^10)
                -0.0000
    Dipole Moment (Debye)
         X       1.1946      Y      -0.0388      Z       1.0176
       Tot       1.5697
    Quadrupole Moments (Debye-Ang)
        XX     -52.1052     XY       3.2021     YY     -44.6949
        XZ       0.4983     YZ       1.4514     ZZ     -48.5827

 Total job time:  15.43s(wall), 753.64s(cpu)
        *  Thank you very much for using Q-Chem.  Have a nice day.  *
