 Q-Chem 5.4, Q-Chem, Inc., Pleasanton, CA (2021)
 Q-Chem 5.4.0 for Intel X86 EM64T Linux

User input:
--------------------------------------------------------------
$molecule
0 1
C	-0.054692	-0.574004	-0.003165
C	0.015808	0.267696	1.109835
C	0.132408	1.653696	0.817435
H	-0.016592	-0.119104	2.139735
C	0.153408	1.900996	-0.566765
S	0.026208	0.393196	-1.467865
C	0.221608	2.714596	1.879235
H	0.184008	2.268196	2.891835
H	-0.612692	3.443096	1.804935
H	1.165908	3.293496	1.805035
C	-0.054692	-2.024104	-0.003165
H	-0.424092	-2.024604	1.011735
H	-0.936192	-2.559204	-0.324265
H	0.728308	-2.711304	0.281535
H	0.233608	2.855696	-1.100265
$end

$rem
JOBTYPE		SP
EXCHANGE	HF
CORRELATION	pRIMP2
BASIS		cc-pvtz
METHOD		rimp2
AUX_BASIS	rimp2-cc-pvtz
SOLVENT_METHOD	PCM
PURECART	11111
SYMMETRY	false
MEM_TOTAL	110000
SCF_CONVERGENCE = 6
THRESH=10
GUI = 2
$end

$solvent
dielectric 4.90
$end
--------------------------------------------------------------

             Standard Nuclear Orientation (Angstroms)
    I     Atom           X                Y                Z
 ----------------------------------------------------------------
    1      C      -0.0546920000    -0.5740040000    -0.0031650000
    2      C       0.0158080000     0.2676960000     1.1098350000
    3      C       0.1324080000     1.6536960000     0.8174350000
    4      H      -0.0165920000    -0.1191040000     2.1397350000
    5      C       0.1534080000     1.9009960000    -0.5667650000
    6      S       0.0262080000     0.3931960000    -1.4678650000
    7      C       0.2216080000     2.7145960000     1.8792350000
    8      H       0.1840080000     2.2681960000     2.8918350000
    9      H      -0.6126920000     3.4430960000     1.8049350000
   10      H       1.1659080000     3.2934960000     1.8050350000
   11      C      -0.0546920000    -2.0241040000    -0.0031650000
   12      H      -0.4240920000    -2.0246040000     1.0117350000
   13      H      -0.9361920000    -2.5592040000    -0.3242650000
   14      H       0.7283080000    -2.7113040000     0.2815350000
   15      H       0.2336080000     2.8556960000    -1.1002650000
 ----------------------------------------------------------------

   10    -629.4256531296      4.97e-07  Convergence criterion met
 Total energy in the final basis set =     -629.4256531296
        RIMP2         total energy =      -630.6032131412 a.u.

                    Orbital Energies (a.u.)
 --------------------------------------------------------------

 Alpha MOs
 -- Occupied --
-91.9759 -11.2782 -11.2573 -11.2473 -11.2329 -11.2275 -11.2176  -8.9759
 -6.6568  -6.6563  -6.6558  -1.1607  -1.0525  -0.9994  -0.9392  -0.8854
 -0.7424  -0.7232  -0.6481  -0.5901  -0.5772  -0.5659  -0.5595  -0.5414
 -0.5100  -0.4869  -0.4673  -0.4406  -0.3376  -0.3033

          Ground-State Mulliken Net Atomic Charges

     Atom                 Charge (a.u.)
  ----------------------------------------
      1 C                     0.056644
      2 C                    -0.265890
      3 C                     0.030927
      4 H                     0.176923
      5 C                    -0.252972
      6 S                    -0.007395
      7 C                    -0.273720
      8 H                     0.101315
      9 H                     0.107138
     10 H                     0.107354
     11 C                    -0.370297
     12 H                     0.121418
     13 H                     0.135069
     14 H                     0.139665
     15 H                     0.193822
  ----------------------------------------
  Sum of atomic charges =     0.000000

                    Cartesian Multipole Moments
 -----------------------------------------------------------------
    Charge (ESU x 10^10)
                -0.0000
    Dipole Moment (Debye)
         X      -0.1140      Y      -0.1135      Z       2.1204
       Tot       2.1265
    Quadrupole Moments (Debye-Ang)
        XX     -53.6846     XY       1.2024     YY     -42.1659
        XZ       0.2100     YZ      -0.9869     ZZ     -48.9271

 Total job time:  22.96s(wall), 767.54s(cpu)
        *  Thank you very much for using Q-Chem.  Have a nice day.  *
