 Q-Chem 5.4, Q-Chem, Inc., Pleasanton, CA (2021)
 Q-Chem 5.4.0 for Intel X86 EM64T Linux

User input:
--------------------------------------------------------------
$molecule
0 1
C	-0.118386	-0.566489	0.005194
C	0.025214	0.265811	1.118194
C	0.262114	1.636511	0.825794
H	-0.040786	-0.116589	2.148094
C	0.304614	1.881011	-0.558406
S	0.046514	0.390011	-1.459506
C	0.443514	2.685511	1.887594
H	0.367114	2.244111	2.900194
H	-0.324086	3.484011	1.813294
H	1.434614	3.179911	1.813394
C	-0.118386	-2.016589	0.005194
H	0.421614	-2.017089	-0.930106
H	0.693914	-2.551689	0.474494
H	-0.840086	-2.703789	-0.411106
H	0.467714	2.825011	-1.091906
$end

$rem
JOBTYPE		SP
EXCHANGE	HF
CORRELATION	pRIMP2
BASIS		cc-pvtz
METHOD		rimp2
AUX_BASIS	rimp2-cc-pvtz
SOLVENT_METHOD	PCM
PURECART	11111
SYMMETRY	false
MEM_TOTAL	110000
SCF_CONVERGENCE = 6
THRESH=10
GUI = 2
$end

$solvent
dielectric 4.90
$end
--------------------------------------------------------------

             Standard Nuclear Orientation (Angstroms)
    I     Atom           X                Y                Z
 ----------------------------------------------------------------
    1      C      -0.1183860000    -0.5664890000     0.0051940000
    2      C       0.0252140000     0.2658110000     1.1181940000
    3      C       0.2621140000     1.6365110000     0.8257940000
    4      H      -0.0407860000    -0.1165890000     2.1480940000
    5      C       0.3046140000     1.8810110000    -0.5584060000
    6      S       0.0465140000     0.3900110000    -1.4595060000
    7      C       0.4435140000     2.6855110000     1.8875940000
    8      H       0.3671140000     2.2441110000     2.9001940000
    9      H      -0.3240860000     3.4840110000     1.8132940000
   10      H       1.4346140000     3.1799110000     1.8133940000
   11      C      -0.1183860000    -2.0165890000     0.0051940000
   12      H       0.4216140000    -2.0170890000    -0.9301060000
   13      H       0.6939140000    -2.5516890000     0.4744940000
   14      H      -0.8400860000    -2.7037890000    -0.4111060000
   15      H       0.4677140000     2.8250110000    -1.0919060000
 ----------------------------------------------------------------

   10    -629.4215719437      5.76e-07  Convergence criterion met
 Total energy in the final basis set =     -629.4215719437
        RIMP2         total energy =      -630.5986474990 a.u.

                    Orbital Energies (a.u.)
 --------------------------------------------------------------

 Alpha MOs
 -- Occupied --
-91.9792 -11.2775 -11.2568 -11.2471 -11.2285 -11.2270 -11.2178  -8.9792
 -6.6601  -6.6596  -6.6590  -1.1609  -1.0538  -0.9953  -0.9448  -0.8827
 -0.7472  -0.7184  -0.6468  -0.5907  -0.5759  -0.5661  -0.5522  -0.5465
 -0.5083  -0.4888  -0.4647  -0.4480  -0.3384  -0.3005

          Ground-State Mulliken Net Atomic Charges

     Atom                 Charge (a.u.)
  ----------------------------------------
      1 C                     0.050631
      2 C                    -0.276096
      3 C                     0.044804
      4 H                     0.179686
      5 C                    -0.260816
      6 S                    -0.002778
      7 C                    -0.272567
      8 H                     0.101795
      9 H                     0.107224
     10 H                     0.106969
     11 C                    -0.371587
     12 H                     0.118671
     13 H                     0.135537
     14 H                     0.143410
     15 H                     0.195116
  ----------------------------------------
  Sum of atomic charges =     0.000000

                    Cartesian Multipole Moments
 -----------------------------------------------------------------
    Charge (ESU x 10^10)
                -0.0000
    Dipole Moment (Debye)
         X       0.5932      Y      -0.1404      Z       0.9343
       Tot       1.1156
    Quadrupole Moments (Debye-Ang)
        XX     -53.7191     XY       0.8137     YY     -42.3266
        XZ       0.3877     YZ       1.5478     ZZ     -48.7646

 Total job time:  15.75s(wall), 745.29s(cpu)
        *  Thank you very much for using Q-Chem.  Have a nice day.  *
