 Q-Chem 5.4, Q-Chem, Inc., Pleasanton, CA (2021)
 Q-Chem 5.4.0 for Intel X86 EM64T Linux

User input:
--------------------------------------------------------------
$molecule
0 1
C	-0.173903	-0.553870	0.006080
C	0.041697	0.262730	1.119080
C	0.397197	1.607530	0.826680
H	-0.057403	-0.112470	2.148980
C	0.460797	1.847430	-0.557520
S	0.073697	0.384630	-1.458620
C	0.669297	2.636830	1.888480
H	0.554697	2.203730	2.901080
H	-0.025803	3.499130	1.814180
H	1.699797	3.042930	1.814280
C	-0.173903	-2.003970	0.006080
H	-0.173903	-2.004470	-1.073920
H	0.764197	-2.539070	0.006280
H	-1.007103	-2.691170	0.006380
H	0.705597	2.773630	-1.091020
$end

$rem
JOBTYPE		SP
EXCHANGE	HF
CORRELATION	pRIMP2
BASIS		cc-pvtz
METHOD		rimp2
AUX_BASIS	rimp2-cc-pvtz
SOLVENT_METHOD	PCM
PURECART	11111
SYMMETRY	false
MEM_TOTAL	110000
SCF_CONVERGENCE = 6
THRESH=10
GUI = 2
$end

$solvent
dielectric 4.90
$end
--------------------------------------------------------------

             Standard Nuclear Orientation (Angstroms)
    I     Atom           X                Y                Z
 ----------------------------------------------------------------
    1      C      -0.1739030000    -0.5538700000     0.0060800000
    2      C       0.0416970000     0.2627300000     1.1190800000
    3      C       0.3971970000     1.6075300000     0.8266800000
    4      H      -0.0574030000    -0.1124700000     2.1489800000
    5      C       0.4607970000     1.8474300000    -0.5575200000
    6      S       0.0736970000     0.3846300000    -1.4586200000
    7      C       0.6692970000     2.6368300000     1.8884800000
    8      H       0.5546970000     2.2037300000     2.9010800000
    9      H      -0.0258030000     3.4991300000     1.8141800000
   10      H       1.6997970000     3.0429300000     1.8142800000
   11      C      -0.1739030000    -2.0039700000     0.0060800000
   12      H      -0.1739030000    -2.0044700000    -1.0739200000
   13      H       0.7641970000    -2.5390700000     0.0062800000
   14      H      -1.0071030000    -2.6911700000     0.0063800000
   15      H       0.7055970000     2.7736300000    -1.0910200000
 ----------------------------------------------------------------

   10    -629.4178367420      5.28e-07  Convergence criterion met
 Total energy in the final basis set =     -629.4178367420
        RIMP2         total energy =      -630.5963018277 a.u.

                    Orbital Energies (a.u.)
 --------------------------------------------------------------

 Alpha MOs
 -- Occupied --
-91.9808 -11.2735 -11.2596 -11.2473 -11.2298 -11.2271 -11.2163  -8.9806
 -6.6615  -6.6610  -6.6604  -1.1613  -1.0534  -0.9950  -0.9455  -0.8826
 -0.7481  -0.7186  -0.6467  -0.5910  -0.5755  -0.5658  -0.5534  -0.5464
 -0.5093  -0.4849  -0.4649  -0.4441  -0.3378  -0.3050

          Ground-State Mulliken Net Atomic Charges

     Atom                 Charge (a.u.)
  ----------------------------------------
      1 C                     0.039805
      2 C                    -0.260836
      3 C                     0.042253
      4 H                     0.178592
      5 C                    -0.257585
      6 S                    -0.002196
      7 C                    -0.272517
      8 H                     0.102064
      9 H                     0.106879
     10 H                     0.106716
     11 C                    -0.364583
     12 H                     0.111760
     13 H                     0.127976
     14 H                     0.145686
     15 H                     0.195986
  ----------------------------------------
  Sum of atomic charges =     0.000000

                    Cartesian Multipole Moments
 -----------------------------------------------------------------
    Charge (ESU x 10^10)
                -0.0000
    Dipole Moment (Debye)
         X       0.4245      Y       0.0620      Z       0.8856
       Tot       0.9840
    Quadrupole Moments (Debye-Ang)
        XX     -53.1548     XY       2.3035     YY     -42.7884
        XZ       0.1617     YZ       1.5310     ZZ     -48.8240

 Total job time:  15.66s(wall), 740.41s(cpu)
        *  Thank you very much for using Q-Chem.  Have a nice day.  *
