 Q-Chem 5.4, Q-Chem, Inc., Pleasanton, CA (2021)
 Q-Chem 5.4.0 for Intel X86 EM64T Linux

User input:
--------------------------------------------------------------
$molecule
0 1
C	-0.515170	-0.335659	-0.002181
C	0.129830	0.209641	1.110819
C	1.192430	1.107341	0.818419
H	-0.166570	-0.040859	2.140719
C	1.382030	1.267341	-0.565781
S	0.226030	0.291041	-1.466881
C	2.005630	1.794341	1.880219
H	1.663430	1.505341	2.892819
H	1.930830	2.899441	1.805919
H	3.082630	1.535941	1.806019
C	-0.515170	-1.785759	-0.002181
H	-1.209370	-1.786259	0.825119
H	-1.233670	-2.320859	-0.605381
H	0.123330	-2.472959	0.533119
H	2.113830	1.885641	-1.099281
$end

$rem
JOBTYPE		SP
EXCHANGE	HF
CORRELATION	pRIMP2
BASIS		cc-pvtz
METHOD		rimp2
AUX_BASIS	rimp2-cc-pvtz
SOLVENT_METHOD	PCM
PURECART	11111
SYMMETRY	false
MEM_TOTAL	110000
SCF_CONVERGENCE = 6
THRESH=10
GUI = 2
$end

$solvent
dielectric 4.90
$end
--------------------------------------------------------------

             Standard Nuclear Orientation (Angstroms)
    I     Atom           X                Y                Z
 ----------------------------------------------------------------
    1      C      -0.5151700000    -0.3356590000    -0.0021810000
    2      C       0.1298300000     0.2096410000     1.1108190000
    3      C       1.1924300000     1.1073410000     0.8184190000
    4      H      -0.1665700000    -0.0408590000     2.1407190000
    5      C       1.3820300000     1.2673410000    -0.5657810000
    6      S       0.2260300000     0.2910410000    -1.4668810000
    7      C       2.0056300000     1.7943410000     1.8802190000
    8      H       1.6634300000     1.5053410000     2.8928190000
    9      H       1.9308300000     2.8994410000     1.8059190000
   10      H       3.0826300000     1.5359410000     1.8060190000
   11      C      -0.5151700000    -1.7857590000    -0.0021810000
   12      H      -1.2093700000    -1.7862590000     0.8251190000
   13      H      -1.2336700000    -2.3208590000    -0.6053810000
   14      H       0.1233300000    -2.4729590000     0.5331190000
   15      H       2.1138300000     1.8856410000    -1.0992810000
 ----------------------------------------------------------------

   10    -629.3745095621      8.87e-07  Convergence criterion met
 Total energy in the final basis set =     -629.3745095621
        RIMP2         total energy =      -630.5624447754 a.u.

                    Orbital Energies (a.u.)
 --------------------------------------------------------------

 Alpha MOs
 -- Occupied --
-91.9718 -11.2749 -11.2537 -11.2494 -11.2473 -11.2289 -11.2104  -8.9727
 -6.6535  -6.6527  -6.6524  -1.1679  -1.0529  -0.9988  -0.9368  -0.8847
 -0.7463  -0.7286  -0.6446  -0.5846  -0.5822  -0.5668  -0.5547  -0.5418
 -0.5180  -0.4835  -0.4600  -0.4251  -0.3368  -0.2996

          Ground-State Mulliken Net Atomic Charges

     Atom                 Charge (a.u.)
  ----------------------------------------
      1 C                    -0.065229
      2 C                    -0.170108
      3 C                    -0.002009
      4 H                     0.181063
      5 C                    -0.203248
      6 S                     0.005340
      7 C                    -0.268485
      8 H                     0.101733
      9 H                     0.106934
     10 H                     0.105796
     11 C                    -0.376050
     12 H                     0.114569
     13 H                     0.125139
     14 H                     0.148986
     15 H                     0.195567
  ----------------------------------------
  Sum of atomic charges =     0.000000

                    Cartesian Multipole Moments
 -----------------------------------------------------------------
    Charge (ESU x 10^10)
                -0.0000
    Dipole Moment (Debye)
         X       1.4505      Y       0.2270      Z       2.1965
       Tot       2.6420
    Quadrupole Moments (Debye-Ang)
        XX     -48.8413     XY       5.3742     YY     -48.1862
        XZ       0.0710     YZ      -0.7840     ZZ     -48.2924

 Total job time:  15.94s(wall), 745.96s(cpu)
        *  Thank you very much for using Q-Chem.  Have a nice day.  *
