 Q-Chem 5.4, Q-Chem, Inc., Pleasanton, CA (2021)
 Q-Chem 5.4.0 for Intel X86 EM64T Linux

User input:
--------------------------------------------------------------
$molecule
0 1
C	-0.339469	-0.486609	-0.003205
C	0.080131	0.246391	1.109795
C	0.771631	1.453391	0.817395
H	-0.112769	-0.090409	2.139695
C	0.895131	1.668591	-0.566805
S	0.142631	0.355791	-1.467905
C	1.300831	2.377091	1.879195
H	1.078031	1.988491	2.891795
H	0.852531	3.389991	1.804895
H	2.401231	2.502691	1.804995
C	-0.339469	-1.936709	-0.003205
H	0.200531	-1.937209	0.932095
H	-1.152069	-2.471809	0.465695
H	0.381931	-2.623909	-0.420105
H	1.371231	2.499891	-1.100305
$end

$rem
JOBTYPE		SP
EXCHANGE	HF
CORRELATION	pRIMP2
BASIS		cc-pvtz
METHOD		rimp2
AUX_BASIS	rimp2-cc-pvtz
SOLVENT_METHOD	PCM
PURECART	11111
SYMMETRY	false
MEM_TOTAL	110000
SCF_CONVERGENCE = 6
THRESH=10
GUI = 2
$end

$solvent
dielectric 4.90
$end
--------------------------------------------------------------

             Standard Nuclear Orientation (Angstroms)
    I     Atom           X                Y                Z
 ----------------------------------------------------------------
    1      C      -0.3394690000    -0.4866090000    -0.0032050000
    2      C       0.0801310000     0.2463910000     1.1097950000
    3      C       0.7716310000     1.4533910000     0.8173950000
    4      H      -0.1127690000    -0.0904090000     2.1396950000
    5      C       0.8951310000     1.6685910000    -0.5668050000
    6      S       0.1426310000     0.3557910000    -1.4679050000
    7      C       1.3008310000     2.3770910000     1.8791950000
    8      H       1.0780310000     1.9884910000     2.8917950000
    9      H       0.8525310000     3.3899910000     1.8048950000
   10      H       2.4012310000     2.5026910000     1.8049950000
   11      C      -0.3394690000    -1.9367090000    -0.0032050000
   12      H       0.2005310000    -1.9372090000     0.9320950000
   13      H      -1.1520690000    -2.4718090000     0.4656950000
   14      H       0.3819310000    -2.6239090000    -0.4201050000
   15      H       1.3712310000     2.4998910000    -1.1003050000
 ----------------------------------------------------------------

   10    -629.4032173320      5.21e-07  Convergence criterion met
 Total energy in the final basis set =     -629.4032173320
        RIMP2         total energy =      -630.5853108677 a.u.

                    Orbital Energies (a.u.)
 --------------------------------------------------------------

 Alpha MOs
 -- Occupied --
-91.9771 -11.2733 -11.2596 -11.2478 -11.2336 -11.2278 -11.2140  -8.9770
 -6.6579  -6.6574  -6.6569  -1.1635  -1.0529  -0.9992  -0.9367  -0.8844
 -0.7430  -0.7245  -0.6455  -0.5891  -0.5771  -0.5711  -0.5560  -0.5418
 -0.5127  -0.4756  -0.4680  -0.4448  -0.3350  -0.2986

          Ground-State Mulliken Net Atomic Charges

     Atom                 Charge (a.u.)
  ----------------------------------------
      1 C                     0.015873
      2 C                    -0.246824
      3 C                     0.027952
      4 H                     0.175061
      5 C                    -0.248469
      6 S                     0.001973
      7 C                    -0.270637
      8 H                     0.101412
      9 H                     0.107216
     10 H                     0.106315
     11 C                    -0.381682
     12 H                     0.136310
     13 H                     0.125669
     14 H                     0.156760
     15 H                     0.193071
  ----------------------------------------
  Sum of atomic charges =     0.000000

                    Cartesian Multipole Moments
 -----------------------------------------------------------------
    Charge (ESU x 10^10)
                -0.0000
    Dipole Moment (Debye)
         X       1.1369      Y      -0.1083      Z       2.1029
       Tot       2.3930
    Quadrupole Moments (Debye-Ang)
        XX     -52.1223     XY       2.9579     YY     -44.7916
        XZ      -0.3087     YZ      -0.8349     ZZ     -48.6123

 Total job time:  18.07s(wall), 766.47s(cpu)
        *  Thank you very much for using Q-Chem.  Have a nice day.  *
