 Q-Chem 5.4, Q-Chem, Inc., Pleasanton, CA (2021)
 Q-Chem 5.4.0 for Intel X86 EM64T Linux

User input:
--------------------------------------------------------------
$molecule
0 1
C	0.254945	-8.517702	0.194917
C	-0.680596	-7.641575	-0.335839
S	1.603876	-7.638634	0.954772
C	-0.354585	-6.264785	-0.147576
H	-1.591356	-7.966081	-0.854836
C	0.879999	-6.072714	0.567090
C	1.379534	-4.787049	0.826731
C	-1.124384	-5.162801	-0.618405
C	-0.622407	-3.874817	-0.362333
C	0.612067	-3.683952	0.355575
O	-2.281166	-5.499772	-1.253677
O	2.542174	-4.459055	1.463859
C	3.060718	-5.329063	2.462679
H	3.841678	-4.755694	2.997507
H	3.530361	-6.238095	2.027179
H	2.274283	-5.637262	3.185132
C	-2.916545	-4.572261	-2.124902
H	-3.703073	-5.139743	-2.657438
H	-2.204417	-4.153131	-2.867810
H	-3.399269	-3.739531	-1.568770
C	0.936109	-2.306654	0.540061
S	-1.341474	-2.306501	-0.761887
C	-0.000000	-1.435185	-0.000000
H	1.844392	-1.978138	1.060690
H	0.258730	-9.614033	0.192984
C	0.000000	0.000000	0.000000
S	0.309893	0.850039	1.507541
C	0.847011	2.328006	0.718873
C	0.310046	0.849645	-1.067872
C	0.783331	2.156746	-0.686410
S	0.229416	0.619785	-2.805516
C	0.823328	2.267711	-3.054530
C	1.063278	2.934142	-1.862551
F	1.515925	4.191824	-1.819088
C	0.978337	2.688069	-4.456084
O	0.722535	1.961921	-5.406510
O	1.433229	3.959697	-4.569225
C	1.607467	4.423139	-5.916207
H	1.977475	5.460158	-5.833064
H	0.647388	4.396602	-6.470168
H	2.339490	3.791823	-6.459293
H	1.161798	3.197007	1.306486
$end

$rem
JOBTYPE		SP
EXCHANGE	HF
CORRELATION	pRIMP2
BASIS		cc-pvtz
METHOD		rimp2
AUX_BASIS	rimp2-cc-pvtz
SOLVENT_METHOD	PCM
PURECART	11111
SYMMETRY	false
MEM_TOTAL	110000
SCF_CONVERGENCE = 6
THRESH=10
GUI = 2
$end

$solvent
dielectric 4.90
$end
--------------------------------------------------------------

             Standard Nuclear Orientation (Angstroms)
    I     Atom           X                Y                Z
 ----------------------------------------------------------------
    1      C       0.2549450000    -8.5177020000     0.1949170000
    2      C      -0.6805960000    -7.6415750000    -0.3358390000
    3      S       1.6038760000    -7.6386340000     0.9547720000
    4      C      -0.3545850000    -6.2647850000    -0.1475760000
    5      H      -1.5913560000    -7.9660810000    -0.8548360000
    6      C       0.8799990000    -6.0727140000     0.5670900000
    7      C       1.3795340000    -4.7870490000     0.8267310000
    8      C      -1.1243840000    -5.1628010000    -0.6184050000
    9      C      -0.6224070000    -3.8748170000    -0.3623330000
   10      C       0.6120670000    -3.6839520000     0.3555750000
   11      O      -2.2811660000    -5.4997720000    -1.2536770000
   12      O       2.5421740000    -4.4590550000     1.4638590000
   13      C       3.0607180000    -5.3290630000     2.4626790000
   14      H       3.8416780000    -4.7556940000     2.9975070000
   15      H       3.5303610000    -6.2380950000     2.0271790000
   16      H       2.2742830000    -5.6372620000     3.1851320000
   17      C      -2.9165450000    -4.5722610000    -2.1249020000
   18      H      -3.7030730000    -5.1397430000    -2.6574380000
   19      H      -2.2044170000    -4.1531310000    -2.8678100000
   20      H      -3.3992690000    -3.7395310000    -1.5687700000
   21      C       0.9361090000    -2.3066540000     0.5400610000
   22      S      -1.3414740000    -2.3065010000    -0.7618870000
   23      C       0.0000000000    -1.4351850000     0.0000000000
   24      H       1.8443920000    -1.9781380000     1.0606900000
   25      H       0.2587300000    -9.6140330000     0.1929840000
   26      C       0.0000000000     0.0000000000     0.0000000000
   27      S       0.3098930000     0.8500390000     1.5075410000
   28      C       0.8470110000     2.3280060000     0.7188730000
   29      C       0.3100460000     0.8496450000    -1.0678720000
   30      C       0.7833310000     2.1567460000    -0.6864100000
   31      S       0.2294160000     0.6197850000    -2.8055160000
   32      C       0.8233280000     2.2677110000    -3.0545300000
   33      C       1.0632780000     2.9341420000    -1.8625510000
   34      F       1.5159250000     4.1918240000    -1.8190880000
   35      C       0.9783370000     2.6880690000    -4.4560840000
   36      O       0.7225350000     1.9619210000    -5.4065100000
   37      O       1.4332290000     3.9596970000    -4.5692250000
   38      C       1.6074670000     4.4231390000    -5.9162070000
   39      H       1.9774750000     5.4601580000    -5.8330640000
   40      H       0.6473880000     4.3966020000    -6.4701680000
   41      H       2.3394900000     3.7918230000    -6.4592930000
   42      H       1.1617980000     3.1970070000     1.3064860000
 ----------------------------------------------------------------

   10   -2754.3085895488      6.99e-07  Convergence criterion met
 Total energy in the final basis set =    -2754.3085895488
        RIMP2         total energy =     -2759.3605255355 a.u.

                    Orbital Energies (a.u.)
 --------------------------------------------------------------

 Alpha MOs
 -- Occupied --
-92.0153 -91.9982 -91.9887 -91.9861 -26.3430 -20.6144 -20.5921 -20.5913
-20.5607 -11.4089 -11.3820 -11.3190 -11.3174 -11.3111 -11.3024 -11.2966
-11.2953 -11.2939 -11.2886 -11.2865 -11.2861 -11.2854 -11.2844 -11.2838
-11.2794 -11.2606 -11.2584 -11.2560 -11.2498  -9.0137  -8.9982  -8.9891
 -8.9860  -6.6944  -6.6938  -6.6933  -6.6792  -6.6785  -6.6774  -6.6700
 -6.6693  -6.6684  -6.6670  -6.6664  -6.6655  -1.6601  -1.4668  -1.4162
 -1.4140  -1.3695  -1.2214  -1.1940  -1.1652  -1.1357  -1.0845  -1.0516
 -1.0413  -1.0226  -1.0012  -0.9877  -0.9628  -0.9592  -0.9499  -0.9394
 -0.8952  -0.8673  -0.8504  -0.8122  -0.7917  -0.7883  -0.7864  -0.7647
 -0.7550  -0.7335  -0.7250  -0.7097  -0.6996  -0.6848  -0.6830  -0.6806
 -0.6735  -0.6590  -0.6572  -0.6524  -0.6302  -0.6198  -0.6166  -0.6044
 -0.5977  -0.5869  -0.5759  -0.5695  -0.5669  -0.5627  -0.5543  -0.5530
 -0.5308  -0.5282  -0.5225  -0.5162  -0.5150  -0.5095  -0.5046  -0.4940
 -0.4892  -0.4792  -0.4756  -0.4731  -0.4703  -0.4650  -0.4605  -0.4112
 -0.3963  -0.3861  -0.3593  -0.3472  -0.3190  -0.2951  -0.2563

          Ground-State Mulliken Net Atomic Charges

     Atom                 Charge (a.u.)
  ----------------------------------------
      1 C                    -0.189373
      2 C                    -0.253806
      3 S                    -0.022692
      4 C                    -0.016152
      5 H                     0.196328
      6 C                    -0.028105
      7 C                     0.239523
      8 C                     0.244437
      9 C                    -0.047716
     10 C                    -0.023012
     11 O                    -0.333530
     12 O                    -0.340361
     13 C                    -0.085673
     14 H                     0.122304
     15 H                     0.091188
     16 H                     0.093790
     17 C                    -0.086823
     18 H                     0.124655
     19 H                     0.095517
     20 H                     0.089704
     21 C                    -0.226134
     22 S                    -0.002142
     23 C                    -0.032271
     24 H                     0.200235
     25 H                     0.206253
     26 C                    -0.046205
     27 S                     0.103916
     28 C                    -0.181682
     29 C                     0.013071
     30 C                    -0.103572
     31 S                     0.011528
     32 C                    -0.151204
     33 C                     0.391083
     34 F                    -0.206536
     35 C                     0.445401
     36 O                    -0.461201
     37 O                    -0.300891
     38 C                    -0.058423
     39 H                     0.121206
     40 H                     0.094999
     41 H                     0.095059
     42 H                     0.217308
  ----------------------------------------
  Sum of atomic charges =     0.000000

                    Cartesian Multipole Moments
 -----------------------------------------------------------------
    Charge (ESU x 10^10)
                -0.0000
    Dipole Moment (Debye)
         X       0.7633      Y       1.0761      Z       3.1376
       Tot       3.4037
    Quadrupole Moments (Debye-Ang)
        XX    -187.0361     XY       5.7272     YY    -162.3950
        XZ      10.1314     YZ      -8.1464     ZZ    -194.5872

 Total job time:  290.17s(wall), 9356.39s(cpu)
        *  Thank you very much for using Q-Chem.  Have a nice day.  *
