 Q-Chem 5.4, Q-Chem, Inc., Pleasanton, CA (2021)
 Q-Chem 5.4.0 for Intel X86 EM64T Linux

User input:
--------------------------------------------------------------
$molecule
0 1
C	0.123330	-8.517702	0.296276
C	-0.421494	-7.641575	-0.631143
S	0.911611	-7.638634	1.628795
C	-0.233291	-6.264785	-0.305097
H	-0.950737	-7.966081	-1.535988
C	0.478557	-6.072714	0.931114
C	0.781346	-4.787049	1.405737
C	-0.664542	-5.162801	-1.097747
C	-0.357854	-3.874817	-0.624993
C	0.352278	-3.683952	0.613970
O	-1.348709	-5.499772	-2.226300
O	1.469658	-4.459055	2.538827
C	1.419319	-5.329063	3.663102
H	1.828237	-4.755694	4.516756
H	2.043793	-6.238095	3.520769
H	0.377021	-5.637262	3.895546
C	-1.463351	-4.572261	-3.298492
H	-1.878237	-5.139743	-4.152945
H	-0.475176	-4.153131	-3.585804
H	-2.159469	-3.739531	-3.058230
C	0.540664	-2.306654	0.935761
S	-0.780808	-2.306501	-1.330550
C	-0.000000	-1.435185	-0.000000
H	1.066946	-1.978138	1.840780
H	0.127575	-9.614033	0.296494
C	0.000000	0.000000	0.000000
S	0.452792	0.783312	1.507541
C	1.238397	2.145556	0.718873
C	0.452875	0.782898	-1.067872
C	1.145945	1.987956	-0.686410
S	0.333556	0.570531	-2.805516
C	1.204604	2.090290	-3.054530
C	1.556633	2.704929	-1.862551
F	2.220797	3.864903	-1.819088
C	1.430252	2.477345	-4.456084
O	1.052242	1.806648	-5.406510
O	2.099050	3.650663	-4.569225
C	2.351116	4.076808	-5.916207
H	2.895579	5.033821	-5.833064
H	1.401015	4.217390	-6.470168
H	2.962391	3.327969	-6.459293
H	1.699302	2.946693	1.306486
$end

$rem
JOBTYPE		SP
EXCHANGE	HF
CORRELATION	pRIMP2
BASIS		cc-pvtz
METHOD		rimp2
AUX_BASIS	rimp2-cc-pvtz
SOLVENT_METHOD	PCM
PURECART	11111
SYMMETRY	false
MEM_TOTAL	110000
SCF_CONVERGENCE = 6
THRESH=10
GUI = 2
$end

$solvent
dielectric 4.90
$end
--------------------------------------------------------------

             Standard Nuclear Orientation (Angstroms)
    I     Atom           X                Y                Z
 ----------------------------------------------------------------
    1      C       0.1233300000    -8.5177020000     0.2962760000
    2      C      -0.4214940000    -7.6415750000    -0.6311430000
    3      S       0.9116110000    -7.6386340000     1.6287950000
    4      C      -0.2332910000    -6.2647850000    -0.3050970000
    5      H      -0.9507370000    -7.9660810000    -1.5359880000
    6      C       0.4785570000    -6.0727140000     0.9311140000
    7      C       0.7813460000    -4.7870490000     1.4057370000
    8      C      -0.6645420000    -5.1628010000    -1.0977470000
    9      C      -0.3578540000    -3.8748170000    -0.6249930000
   10      C       0.3522780000    -3.6839520000     0.6139700000
   11      O      -1.3487090000    -5.4997720000    -2.2263000000
   12      O       1.4696580000    -4.4590550000     2.5388270000
   13      C       1.4193190000    -5.3290630000     3.6631020000
   14      H       1.8282370000    -4.7556940000     4.5167560000
   15      H       2.0437930000    -6.2380950000     3.5207690000
   16      H       0.3770210000    -5.6372620000     3.8955460000
   17      C      -1.4633510000    -4.5722610000    -3.2984920000
   18      H      -1.8782370000    -5.1397430000    -4.1529450000
   19      H      -0.4751760000    -4.1531310000    -3.5858040000
   20      H      -2.1594690000    -3.7395310000    -3.0582300000
   21      C       0.5406640000    -2.3066540000     0.9357610000
   22      S      -0.7808080000    -2.3065010000    -1.3305500000
   23      C       0.0000000000    -1.4351850000     0.0000000000
   24      H       1.0669460000    -1.9781380000     1.8407800000
   25      H       0.1275750000    -9.6140330000     0.2964940000
   26      C       0.0000000000     0.0000000000     0.0000000000
   27      S       0.4527920000     0.7833120000     1.5075410000
   28      C       1.2383970000     2.1455560000     0.7188730000
   29      C       0.4528750000     0.7828980000    -1.0678720000
   30      C       1.1459450000     1.9879560000    -0.6864100000
   31      S       0.3335560000     0.5705310000    -2.8055160000
   32      C       1.2046040000     2.0902900000    -3.0545300000
   33      C       1.5566330000     2.7049290000    -1.8625510000
   34      F       2.2207970000     3.8649030000    -1.8190880000
   35      C       1.4302520000     2.4773450000    -4.4560840000
   36      O       1.0522420000     1.8066480000    -5.4065100000
   37      O       2.0990500000     3.6506630000    -4.5692250000
   38      C       2.3511160000     4.0768080000    -5.9162070000
   39      H       2.8955790000     5.0338210000    -5.8330640000
   40      H       1.4010150000     4.2173900000    -6.4701680000
   41      H       2.9623910000     3.3279690000    -6.4592930000
   42      H       1.6993020000     2.9466930000     1.3064860000
 ----------------------------------------------------------------

   10   -2754.3009953074      6.92e-07  Convergence criterion met
 Total energy in the final basis set =    -2754.3009953074
        RIMP2         total energy =     -2759.3567627694 a.u.

                    Orbital Energies (a.u.)
 --------------------------------------------------------------

 Alpha MOs
 -- Occupied --
-92.0151 -92.0014 -91.9890 -91.9852 -26.3442 -20.6150 -20.5918 -20.5900
-20.5614 -11.4097 -11.3837 -11.3190 -11.3170 -11.3147 -11.3072 -11.2981
-11.2975 -11.2944 -11.2890 -11.2866 -11.2863 -11.2855 -11.2842 -11.2832
-11.2777 -11.2605 -11.2562 -11.2497 -11.2491  -9.0138  -9.0013  -8.9896
 -8.9851  -6.6946  -6.6939  -6.6934  -6.6823  -6.6815  -6.6804  -6.6706
 -6.6699  -6.6690  -6.6661  -6.6655  -6.6647  -1.6612  -1.4675  -1.4158
 -1.4128  -1.3702  -1.2250  -1.1933  -1.1652  -1.1375  -1.0853  -1.0507
 -1.0428  -1.0249  -1.0005  -0.9876  -0.9645  -0.9580  -0.9492  -0.9410
 -0.8946  -0.8690  -0.8494  -0.8156  -0.7925  -0.7866  -0.7855  -0.7643
 -0.7556  -0.7327  -0.7260  -0.7109  -0.6987  -0.6858  -0.6827  -0.6817
 -0.6741  -0.6590  -0.6580  -0.6518  -0.6300  -0.6190  -0.6159  -0.6036
 -0.5997  -0.5880  -0.5769  -0.5679  -0.5673  -0.5637  -0.5546  -0.5520
 -0.5317  -0.5277  -0.5219  -0.5176  -0.5161  -0.5110  -0.5055  -0.4939
 -0.4877  -0.4797  -0.4765  -0.4738  -0.4695  -0.4645  -0.4590  -0.4232
 -0.3922  -0.3854  -0.3608  -0.3503  -0.3229  -0.2927  -0.2498

          Ground-State Mulliken Net Atomic Charges

     Atom                 Charge (a.u.)
  ----------------------------------------
      1 C                    -0.193226
      2 C                    -0.252914
      3 S                    -0.024782
      4 C                    -0.019037
      5 H                     0.196009
      6 C                    -0.025902
      7 C                     0.234603
      8 C                     0.245257
      9 C                    -0.040968
     10 C                    -0.016695
     11 O                    -0.333193
     12 O                    -0.341326
     13 C                    -0.085516
     14 H                     0.121790
     15 H                     0.090837
     16 H                     0.093446
     17 C                    -0.088139
     18 H                     0.125139
     19 H                     0.095673
     20 H                     0.089796
     21 C                    -0.266394
     22 S                    -0.024356
     23 C                    -0.006074
     24 H                     0.192576
     25 H                     0.205668
     26 C                    -0.032265
     27 S                     0.089021
     28 C                    -0.161106
     29 C                     0.035694
     30 C                    -0.116328
     31 S                     0.021093
     32 C                    -0.160034
     33 C                     0.400194
     34 F                    -0.205672
     35 C                     0.446455
     36 O                    -0.461208
     37 O                    -0.301053
     38 C                    -0.058445
     39 H                     0.121447
     40 H                     0.095109
     41 H                     0.095177
     42 H                     0.219648
  ----------------------------------------
  Sum of atomic charges =     0.000000

                    Cartesian Multipole Moments
 -----------------------------------------------------------------
    Charge (ESU x 10^10)
                 0.0000
    Dipole Moment (Debye)
         X       1.2719      Y       1.6788      Z       2.6805
       Tot       3.4090
    Quadrupole Moments (Debye-Ang)
        XX    -196.0326     XY       8.7519     YY    -167.2406
        XZ       3.1233     YZ      -6.4582     ZZ    -182.8924

 Total job time:  288.90s(wall), 8838.06s(cpu)
        *  Thank you very much for using Q-Chem.  Have a nice day.  *
