 Q-Chem 5.4, Q-Chem, Inc., Pleasanton, CA (2021)
 Q-Chem 5.4.0 for Intel X86 EM64T Linux

User input:
--------------------------------------------------------------
$molecule
0 1
C	-0.236226	-8.517702	0.217225
C	0.448921	-7.641575	-0.611939
S	-1.218777	-7.638634	1.413715
C	0.206907	-6.264785	-0.323572
H	1.118185	-7.966081	-1.418739
C	-0.711285	-6.072714	0.768156
C	-1.053725	-4.787049	1.215016
C	0.804258	-5.162801	-0.999917
C	0.464908	-3.874817	-0.550033
C	-0.456457	-3.683952	0.541024
O	1.630752	-5.499772	-2.028811
O	-1.883064	-4.459055	2.249357
C	-2.956754	-5.329063	2.586579
H	-3.619069	-4.755694	3.262802
H	-2.609423	-6.238095	3.124711
H	-3.531667	-5.637262	1.686639
C	2.599073	-4.572261	-2.503251
H	3.260097	-5.139743	-3.185356
H	3.207034	-4.153131	-1.672937
H	2.135214	-3.739531	-3.075213
C	-0.694410	-2.306654	0.828107
S	0.983256	-2.306501	-1.188794
C	-0.000000	-1.435185	-0.000000
H	-1.364851	-1.978138	1.632185
H	-0.234980	-9.614033	0.221288
C	0.000000	0.000000	0.000000
S	0.079327	0.901280	1.507541
C	0.215617	2.467903	0.718873
C	0.079577	0.900940	-1.067872
C	0.198433	2.285998	-0.686410
S	0.061187	0.658044	-2.805516
C	0.208347	2.403534	-3.054530
C	0.267636	3.109360	-1.862551
F	0.379347	4.441341	-1.819088
C	0.249278	2.849688	-4.456084
O	0.190132	2.082076	-5.406510
O	0.359548	4.195721	-4.569225
C	0.407901	4.688467	-5.916207
H	0.496901	5.785916	-5.833064
H	-0.512596	4.414348	-6.470168
H	1.278377	4.268124	-6.459293
H	0.294764	3.388767	1.306486
$end

$rem
JOBTYPE		SP
EXCHANGE	HF
CORRELATION	pRIMP2
BASIS		cc-pvtz
METHOD		rimp2
AUX_BASIS	rimp2-cc-pvtz
SOLVENT_METHOD	PCM
PURECART	11111
SYMMETRY	false
MEM_TOTAL	110000
SCF_CONVERGENCE = 6
THRESH=10
GUI = 2
$end

$solvent
dielectric 4.90
$end
--------------------------------------------------------------

             Standard Nuclear Orientation (Angstroms)
    I     Atom           X                Y                Z
 ----------------------------------------------------------------
    1      C      -0.2362260000    -8.5177020000     0.2172250000
    2      C       0.4489210000    -7.6415750000    -0.6119390000
    3      S      -1.2187770000    -7.6386340000     1.4137150000
    4      C       0.2069070000    -6.2647850000    -0.3235720000
    5      H       1.1181850000    -7.9660810000    -1.4187390000
    6      C      -0.7112850000    -6.0727140000     0.7681560000
    7      C      -1.0537250000    -4.7870490000     1.2150160000
    8      C       0.8042580000    -5.1628010000    -0.9999170000
    9      C       0.4649080000    -3.8748170000    -0.5500330000
   10      C      -0.4564570000    -3.6839520000     0.5410240000
   11      O       1.6307520000    -5.4997720000    -2.0288110000
   12      O      -1.8830640000    -4.4590550000     2.2493570000
   13      C      -2.9567540000    -5.3290630000     2.5865790000
   14      H      -3.6190690000    -4.7556940000     3.2628020000
   15      H      -2.6094230000    -6.2380950000     3.1247110000
   16      H      -3.5316670000    -5.6372620000     1.6866390000
   17      C       2.5990730000    -4.5722610000    -2.5032510000
   18      H       3.2600970000    -5.1397430000    -3.1853560000
   19      H       3.2070340000    -4.1531310000    -1.6729370000
   20      H       2.1352140000    -3.7395310000    -3.0752130000
   21      C      -0.6944100000    -2.3066540000     0.8281070000
   22      S       0.9832560000    -2.3065010000    -1.1887940000
   23      C       0.0000000000    -1.4351850000     0.0000000000
   24      H      -1.3648510000    -1.9781380000     1.6321850000
   25      H      -0.2349800000    -9.6140330000     0.2212880000
   26      C       0.0000000000     0.0000000000     0.0000000000
   27      S       0.0793270000     0.9012800000     1.5075410000
   28      C       0.2156170000     2.4679030000     0.7188730000
   29      C       0.0795770000     0.9009400000    -1.0678720000
   30      C       0.1984330000     2.2859980000    -0.6864100000
   31      S       0.0611870000     0.6580440000    -2.8055160000
   32      C       0.2083470000     2.4035340000    -3.0545300000
   33      C       0.2676360000     3.1093600000    -1.8625510000
   34      F       0.3793470000     4.4413410000    -1.8190880000
   35      C       0.2492780000     2.8496880000    -4.4560840000
   36      O       0.1901320000     2.0820760000    -5.4065100000
   37      O       0.3595480000     4.1957210000    -4.5692250000
   38      C       0.4079010000     4.6884670000    -5.9162070000
   39      H       0.4969010000     5.7859160000    -5.8330640000
   40      H      -0.5125960000     4.4143480000    -6.4701680000
   41      H       1.2783770000     4.2681240000    -6.4592930000
   42      H       0.2947640000     3.3887670000     1.3064860000
 ----------------------------------------------------------------

   10   -2754.3161767257      7.35e-07  Convergence criterion met
 Total energy in the final basis set =    -2754.3161767257
        RIMP2         total energy =     -2759.3677495050 a.u.

                    Orbital Energies (a.u.)
 --------------------------------------------------------------

 Alpha MOs
 -- Occupied --
-92.0154 -91.9973 -91.9906 -91.9866 -26.3428 -20.6145 -20.5925 -20.5917
-20.5609 -11.4090 -11.3817 -11.3198 -11.3180 -11.3086 -11.3005 -11.2992
-11.2968 -11.2956 -11.2886 -11.2868 -11.2865 -11.2864 -11.2847 -11.2844
-11.2798 -11.2617 -11.2590 -11.2567 -11.2501  -9.0138  -8.9974  -8.9910
 -8.9865  -6.6945  -6.6939  -6.6934  -6.6784  -6.6777  -6.6765  -6.6720
 -6.6713  -6.6704  -6.6675  -6.6668  -6.6660  -1.6599  -1.4669  -1.4166
 -1.4145  -1.3696  -1.2211  -1.1949  -1.1659  -1.1356  -1.0855  -1.0523
 -1.0410  -1.0230  -1.0022  -0.9881  -0.9637  -0.9588  -0.9502  -0.9399
 -0.8961  -0.8672  -0.8519  -0.8133  -0.7917  -0.7873  -0.7871  -0.7653
 -0.7551  -0.7342  -0.7247  -0.7097  -0.6993  -0.6852  -0.6835  -0.6810
 -0.6735  -0.6593  -0.6577  -0.6528  -0.6307  -0.6202  -0.6170  -0.6040
 -0.5971  -0.5848  -0.5780  -0.5699  -0.5670  -0.5590  -0.5573  -0.5533
 -0.5320  -0.5297  -0.5247  -0.5172  -0.5161  -0.5089  -0.5071  -0.4962
 -0.4885  -0.4787  -0.4763  -0.4735  -0.4698  -0.4654  -0.4599  -0.4195
 -0.3965  -0.3855  -0.3585  -0.3500  -0.3241  -0.2902  -0.2536

          Ground-State Mulliken Net Atomic Charges

     Atom                 Charge (a.u.)
  ----------------------------------------
      1 C                    -0.188773
      2 C                    -0.253521
      3 S                    -0.022397
      4 C                    -0.016126
      5 H                     0.196573
      6 C                    -0.027281
      7 C                     0.243164
      8 C                     0.240980
      9 C                    -0.041250
     10 C                    -0.019243
     11 O                    -0.333023
     12 O                    -0.340155
     13 C                    -0.085760
     14 H                     0.122494
     15 H                     0.091089
     16 H                     0.094287
     17 C                    -0.087889
     18 H                     0.125468
     19 H                     0.094746
     20 H                     0.090962
     21 C                    -0.258742
     22 S                    -0.017733
     23 C                    -0.001219
     24 H                     0.195240
     25 H                     0.206450
     26 C                     0.020039
     27 S                     0.103308
     28 C                    -0.191098
     29 C                    -0.030021
     30 C                    -0.106769
     31 S                     0.009214
     32 C                    -0.156981
     33 C                     0.398465
     34 F                    -0.207293
     35 C                     0.443818
     36 O                    -0.460922
     37 O                    -0.300597
     38 C                    -0.058686
     39 H                     0.121319
     40 H                     0.095176
     41 H                     0.094960
     42 H                     0.217729
  ----------------------------------------
  Sum of atomic charges =     0.000000

                    Cartesian Multipole Moments
 -----------------------------------------------------------------
    Charge (ESU x 10^10)
                -0.0000
    Dipole Moment (Debye)
         X       0.1551      Y       0.9246      Z       2.7454
       Tot       2.9010
    Quadrupole Moments (Debye-Ang)
        XX    -185.7414     XY       2.4735     YY    -159.5940
        XZ     -12.7849     YZ      -6.4642     ZZ    -197.5157

 Total job time:  276.60s(wall), 9237.86s(cpu)
        *  Thank you very much for using Q-Chem.  Have a nice day.  *
