 Q-Chem 5.4, Q-Chem, Inc., Pleasanton, CA (2021)
 Q-Chem 5.4.0 for Intel X86 EM64T Linux

User input:
--------------------------------------------------------------
$molecule
0 1
C	0.070009	-8.517702	0.313191
C	-0.305494	-7.641575	-0.694746
S	0.614924	-7.638634	1.762350
C	-0.176768	-6.264785	-0.340973
H	-0.669571	-7.966081	-1.677747
C	0.309600	-6.072714	1.000069
C	0.525372	-4.787049	1.520060
C	-0.463825	-5.162801	-1.196466
C	-0.243888	-3.874817	-0.677639
C	0.240312	-3.683952	0.665815
O	-0.941626	-5.499772	-2.426678
O	1.006468	-4.459055	2.755460
C	0.761666	-5.329063	3.853913
H	1.016135	-4.755694	4.765607
H	1.401368	-6.238095	3.822182
H	-0.305161	-5.637262	3.901833
C	-0.868342	-4.572261	-3.502489
H	-1.128551	-5.139743	-4.416005
H	0.154712	-4.153131	-3.613841
H	-1.595605	-3.739531	-3.386756
C	0.369957	-2.306654	1.015430
S	-0.537898	-2.306501	-1.445922
C	-0.000000	-1.435185	-0.000000
H	0.731088	-1.978138	1.998088
H	0.074151	-9.614033	0.314143
C	0.000000	0.000000	0.000000
S	0.581934	0.692785	1.507541
C	1.592155	1.897915	0.718873
C	0.581944	0.692363	-1.067872
C	1.473741	1.758764	-0.686410
S	0.427560	0.503942	-2.805516
C	1.549278	1.849357	-3.054530
C	2.002690	2.393529	-1.862551
F	2.858191	3.420549	-1.819088
C	1.838710	2.191348	-4.456084
O	1.349977	1.596481	-5.406510
O	2.701091	3.230705	-4.569225
C	3.023327	3.606605	-5.916207
H	3.725703	4.454534	-5.833064
H	2.112072	3.910035	-6.470168
H	3.495281	2.762996	-6.459293
H	2.185174	2.606846	1.306486
$end

$rem
JOBTYPE		SP
EXCHANGE	HF
CORRELATION	pRIMP2
BASIS		cc-pvtz
METHOD		rimp2
AUX_BASIS	rimp2-cc-pvtz
SOLVENT_METHOD	PCM
PURECART	11111
SYMMETRY	false
MEM_TOTAL	110000
SCF_CONVERGENCE = 6
THRESH=10
GUI = 2
$end

$solvent
dielectric 4.90
$end
--------------------------------------------------------------

             Standard Nuclear Orientation (Angstroms)
    I     Atom           X                Y                Z
 ----------------------------------------------------------------
    1      C       0.0700090000    -8.5177020000     0.3131910000
    2      C      -0.3054940000    -7.6415750000    -0.6947460000
    3      S       0.6149240000    -7.6386340000     1.7623500000
    4      C      -0.1767680000    -6.2647850000    -0.3409730000
    5      H      -0.6695710000    -7.9660810000    -1.6777470000
    6      C       0.3096000000    -6.0727140000     1.0000690000
    7      C       0.5253720000    -4.7870490000     1.5200600000
    8      C      -0.4638250000    -5.1628010000    -1.1964660000
    9      C      -0.2438880000    -3.8748170000    -0.6776390000
   10      C       0.2403120000    -3.6839520000     0.6658150000
   11      O      -0.9416260000    -5.4997720000    -2.4266780000
   12      O       1.0064680000    -4.4590550000     2.7554600000
   13      C       0.7616660000    -5.3290630000     3.8539130000
   14      H       1.0161350000    -4.7556940000     4.7656070000
   15      H       1.4013680000    -6.2380950000     3.8221820000
   16      H      -0.3051610000    -5.6372620000     3.9018330000
   17      C      -0.8683420000    -4.5722610000    -3.5024890000
   18      H      -1.1285510000    -5.1397430000    -4.4160050000
   19      H       0.1547120000    -4.1531310000    -3.6138410000
   20      H      -1.5956050000    -3.7395310000    -3.3867560000
   21      C       0.3699570000    -2.3066540000     1.0154300000
   22      S      -0.5378980000    -2.3065010000    -1.4459220000
   23      C       0.0000000000    -1.4351850000     0.0000000000
   24      H       0.7310880000    -1.9781380000     1.9980880000
   25      H       0.0741510000    -9.6140330000     0.3141430000
   26      C       0.0000000000     0.0000000000     0.0000000000
   27      S       0.5819340000     0.6927850000     1.5075410000
   28      C       1.5921550000     1.8979150000     0.7188730000
   29      C       0.5819440000     0.6923630000    -1.0678720000
   30      C       1.4737410000     1.7587640000    -0.6864100000
   31      S       0.4275600000     0.5039420000    -2.8055160000
   32      C       1.5492780000     1.8493570000    -3.0545300000
   33      C       2.0026900000     2.3935290000    -1.8625510000
   34      F       2.8581910000     3.4205490000    -1.8190880000
   35      C       1.8387100000     2.1913480000    -4.4560840000
   36      O       1.3499770000     1.5964810000    -5.4065100000
   37      O       2.7010910000     3.2307050000    -4.5692250000
   38      C       3.0233270000     3.6066050000    -5.9162070000
   39      H       3.7257030000     4.4545340000    -5.8330640000
   40      H       2.1120720000     3.9100350000    -6.4701680000
   41      H       3.4952810000     2.7629960000    -6.4592930000
   42      H       2.1851740000     2.6068460000     1.3064860000
 ----------------------------------------------------------------

   10   -2754.2868008117      6.95e-07  Convergence criterion met
 Total energy in the final basis set =    -2754.2868008117
        RIMP2         total energy =     -2759.3458949033 a.u.

                    Orbital Energies (a.u.)
 --------------------------------------------------------------

 Alpha MOs
 -- Occupied --
-92.0146 -92.0046 -91.9871 -91.9840 -26.3453 -20.6155 -20.5912 -20.5884
-20.5620 -11.4104 -11.3853 -11.3242 -11.3181 -11.3128 -11.3120 -11.2989
-11.2983 -11.2898 -11.2893 -11.2881 -11.2859 -11.2847 -11.2821 -11.2819
-11.2759 -11.2592 -11.2539 -11.2482 -11.2436  -9.0137  -9.0045  -8.9880
 -8.9840  -6.6944  -6.6937  -6.6932  -6.6854  -6.6847  -6.6836  -6.6690
 -6.6683  -6.6673  -6.6650  -6.6644  -6.6635  -1.6623  -1.4680  -1.4152
 -1.4113  -1.3708  -1.2285  -1.1918  -1.1646  -1.1388  -1.0855  -1.0494
 -1.0438  -1.0266  -0.9992  -0.9873  -0.9655  -0.9570  -0.9485  -0.9416
 -0.8935  -0.8706  -0.8476  -0.8175  -0.7935  -0.7859  -0.7837  -0.7637
 -0.7559  -0.7314  -0.7270  -0.7120  -0.6982  -0.6864  -0.6831  -0.6810
 -0.6746  -0.6596  -0.6574  -0.6509  -0.6297  -0.6180  -0.6153  -0.6038
 -0.6012  -0.5875  -0.5782  -0.5681  -0.5659  -0.5637  -0.5541  -0.5506
 -0.5324  -0.5276  -0.5221  -0.5183  -0.5152  -0.5111  -0.5049  -0.4934
 -0.4865  -0.4807  -0.4769  -0.4739  -0.4687  -0.4631  -0.4574  -0.4259
 -0.3896  -0.3843  -0.3610  -0.3520  -0.3229  -0.2928  -0.2469

          Ground-State Mulliken Net Atomic Charges

     Atom                 Charge (a.u.)
  ----------------------------------------
      1 C                    -0.196778
      2 C                    -0.252708
      3 S                    -0.027135
      4 C                    -0.021986
      5 H                     0.195579
      6 C                    -0.023611
      7 C                     0.229920
      8 C                     0.245642
      9 C                    -0.040122
     10 C                    -0.010908
     11 O                    -0.333172
     12 O                    -0.342148
     13 C                    -0.085579
     14 H                     0.121225
     15 H                     0.090627
     16 H                     0.093025
     17 C                    -0.088131
     18 H                     0.125131
     19 H                     0.095274
     20 H                     0.089677
     21 C                    -0.285291
     22 S                    -0.035313
     23 C                     0.005897
     24 H                     0.187703
     25 H                     0.205008
     26 C                    -0.052997
     27 S                     0.093244
     28 C                    -0.144944
     29 C                     0.053714
     30 C                    -0.120568
     31 S                     0.033371
     32 C                    -0.162284
     33 C                     0.403726
     34 F                    -0.204841
     35 C                     0.447528
     36 O                    -0.461556
     37 O                    -0.301133
     38 C                    -0.058388
     39 H                     0.121541
     40 H                     0.095240
     41 H                     0.095248
     42 H                     0.221271
  ----------------------------------------
  Sum of atomic charges =     0.000000

                    Cartesian Multipole Moments
 -----------------------------------------------------------------
    Charge (ESU x 10^10)
                 0.0000
    Dipole Moment (Debye)
         X       2.0154      Y       2.2677      Z       2.3251
       Tot       3.8223
    Quadrupole Moments (Debye-Ang)
        XX    -194.6909     XY      10.2219     YY    -173.4146
        XZ      -2.0499     YZ      -4.8619     ZZ    -180.8102

 Total job time:  288.81s(wall), 9208.33s(cpu)
        *  Thank you very much for using Q-Chem.  Have a nice day.  *
