 Q-Chem 5.4, Q-Chem, Inc., Pleasanton, CA (2021)
 Q-Chem 5.4.0 for Intel X86 EM64T Linux

User input:
--------------------------------------------------------------
$molecule
0 1
C	0.147685	-8.517702	-0.284919
C	-0.212552	-7.641575	0.728574
S	0.661757	-7.638634	-1.745304
C	-0.083761	-6.264785	0.374824
H	-0.565513	-7.966081	1.715621
C	0.405665	-6.072714	-0.965104
C	0.574617	-4.787049	-1.502136
C	-0.413763	-5.162801	1.214687
C	-0.248748	-3.874817	0.675870
C	0.243888	-3.683952	-0.664513
O	-0.838511	-5.499772	2.464209
O	1.000176	-4.459055	-2.757750
C	1.893778	-5.329063	-3.441858
H	2.284868	-4.755694	-4.303826
H	1.383341	-6.238095	-3.828743
H	2.741817	-5.637262	-2.792824
C	-1.586168	-4.572261	3.241222
H	-1.974033	-5.139743	4.108274
H	-2.441448	-4.153131	2.668916
H	-0.954660	-3.739531	3.620041
C	0.369302	-2.306654	-1.015668
S	-0.517367	-2.306501	1.453394
C	-0.000000	-1.435185	-0.000000
H	0.724300	-1.978138	-2.000559
H	0.145124	-9.614033	-0.288311
C	0.000000	0.000000	0.000000
S	0.309893	0.850039	1.507541
C	0.847011	2.328006	0.718873
C	0.310046	0.849645	-1.067872
C	0.783331	2.156746	-0.686410
S	0.229416	0.619785	-2.805516
C	0.823328	2.267711	-3.054530
C	1.063278	2.934142	-1.862551
F	1.515925	4.191824	-1.819088
C	0.978337	2.688069	-4.456084
O	0.722535	1.961921	-5.406510
O	1.433229	3.959697	-4.569225
C	1.607467	4.423139	-5.916207
H	1.977475	5.460158	-5.833064
H	0.647388	4.396602	-6.470168
H	2.339490	3.791823	-6.459293
H	1.161798	3.197007	1.306486
$end

$rem
JOBTYPE		SP
EXCHANGE	HF
CORRELATION	pRIMP2
BASIS		cc-pvtz
METHOD		rimp2
AUX_BASIS	rimp2-cc-pvtz
SOLVENT_METHOD	PCM
PURECART	11111
SYMMETRY	false
MEM_TOTAL	110000
SCF_CONVERGENCE = 6
THRESH=10
GUI = 2
$end

$solvent
dielectric 4.90
$end
--------------------------------------------------------------

             Standard Nuclear Orientation (Angstroms)
    I     Atom           X                Y                Z
 ----------------------------------------------------------------
    1      C       0.1476850000    -8.5177020000    -0.2849190000
    2      C      -0.2125520000    -7.6415750000     0.7285740000
    3      S       0.6617570000    -7.6386340000    -1.7453040000
    4      C      -0.0837610000    -6.2647850000     0.3748240000
    5      H      -0.5655130000    -7.9660810000     1.7156210000
    6      C       0.4056650000    -6.0727140000    -0.9651040000
    7      C       0.5746170000    -4.7870490000    -1.5021360000
    8      C      -0.4137630000    -5.1628010000     1.2146870000
    9      C      -0.2487480000    -3.8748170000     0.6758700000
   10      C       0.2438880000    -3.6839520000    -0.6645130000
   11      O      -0.8385110000    -5.4997720000     2.4642090000
   12      O       1.0001760000    -4.4590550000    -2.7577500000
   13      C       1.8937780000    -5.3290630000    -3.4418580000
   14      H       2.2848680000    -4.7556940000    -4.3038260000
   15      H       1.3833410000    -6.2380950000    -3.8287430000
   16      H       2.7418170000    -5.6372620000    -2.7928240000
   17      C      -1.5861680000    -4.5722610000     3.2412220000
   18      H      -1.9740330000    -5.1397430000     4.1082740000
   19      H      -2.4414480000    -4.1531310000     2.6689160000
   20      H      -0.9546600000    -3.7395310000     3.6200410000
   21      C       0.3693020000    -2.3066540000    -1.0156680000
   22      S      -0.5173670000    -2.3065010000     1.4533940000
   23      C       0.0000000000    -1.4351850000     0.0000000000
   24      H       0.7243000000    -1.9781380000    -2.0005590000
   25      H       0.1451240000    -9.6140330000    -0.2883110000
   26      C       0.0000000000     0.0000000000     0.0000000000
   27      S       0.3098930000     0.8500390000     1.5075410000
   28      C       0.8470110000     2.3280060000     0.7188730000
   29      C       0.3100460000     0.8496450000    -1.0678720000
   30      C       0.7833310000     2.1567460000    -0.6864100000
   31      S       0.2294160000     0.6197850000    -2.8055160000
   32      C       0.8233280000     2.2677110000    -3.0545300000
   33      C       1.0632780000     2.9341420000    -1.8625510000
   34      F       1.5159250000     4.1918240000    -1.8190880000
   35      C       0.9783370000     2.6880690000    -4.4560840000
   36      O       0.7225350000     1.9619210000    -5.4065100000
   37      O       1.4332290000     3.9596970000    -4.5692250000
   38      C       1.6074670000     4.4231390000    -5.9162070000
   39      H       1.9774750000     5.4601580000    -5.8330640000
   40      H       0.6473880000     4.3966020000    -6.4701680000
   41      H       2.3394900000     3.7918230000    -6.4592930000
   42      H       1.1617980000     3.1970070000     1.3064860000
 ----------------------------------------------------------------

   10   -2754.3094385479      7.42e-07  Convergence criterion met
 Total energy in the final basis set =    -2754.3094385479
        RIMP2         total energy =     -2759.3635990235 a.u.

                    Orbital Energies (a.u.)
 --------------------------------------------------------------

 Alpha MOs
 -- Occupied --
-92.0161 -92.0004 -91.9899 -91.9861 -26.3438 -20.6149 -20.5927 -20.5905
-20.5614 -11.4096 -11.3832 -11.3197 -11.3167 -11.3128 -11.3020 -11.2987
-11.2979 -11.2970 -11.2889 -11.2875 -11.2863 -11.2862 -11.2853 -11.2839
-11.2790 -11.2616 -11.2581 -11.2539 -11.2498  -9.0148  -9.0003  -8.9906
 -8.9860  -6.6956  -6.6950  -6.6944  -6.6813  -6.6806  -6.6795  -6.6716
 -6.6710  -6.6700  -6.6669  -6.6663  -6.6655  -1.6608  -1.4674  -1.4168
 -1.4133  -1.3701  -1.2232  -1.1945  -1.1660  -1.1372  -1.0856  -1.0519
 -1.0425  -1.0241  -1.0014  -0.9884  -0.9641  -0.9598  -0.9503  -0.9396
 -0.8962  -0.8686  -0.8514  -0.8087  -0.7989  -0.7881  -0.7860  -0.7641
 -0.7555  -0.7341  -0.7257  -0.7104  -0.7019  -0.6858  -0.6833  -0.6811
 -0.6740  -0.6592  -0.6588  -0.6522  -0.6306  -0.6196  -0.6168  -0.6032
 -0.5988  -0.5824  -0.5799  -0.5712  -0.5649  -0.5616  -0.5560  -0.5490
 -0.5350  -0.5304  -0.5243  -0.5182  -0.5162  -0.5098  -0.5061  -0.4960
 -0.4875  -0.4814  -0.4770  -0.4741  -0.4694  -0.4657  -0.4597  -0.4253
 -0.3958  -0.3844  -0.3607  -0.3492  -0.3272  -0.2894  -0.2504

          Ground-State Mulliken Net Atomic Charges

     Atom                 Charge (a.u.)
  ----------------------------------------
      1 C                    -0.190551
      2 C                    -0.253986
      3 S                    -0.022025
      4 C                    -0.018353
      5 H                     0.196033
      6 C                    -0.027307
      7 C                     0.241289
      8 C                     0.244453
      9 C                    -0.041734
     10 C                    -0.022754
     11 O                    -0.333170
     12 O                    -0.340004
     13 C                    -0.086193
     14 H                     0.123253
     15 H                     0.091229
     16 H                     0.093605
     17 C                    -0.088128
     18 H                     0.125960
     19 H                     0.095220
     20 H                     0.089248
     21 C                    -0.232723
     22 S                    -0.036315
     23 C                    -0.001472
     24 H                     0.192076
     25 H                     0.206174
     26 C                     0.013532
     27 S                     0.101215
     28 C                    -0.198091
     29 C                    -0.037046
     30 C                    -0.097418
     31 S                     0.020664
     32 C                    -0.162660
     33 C                     0.407725
     34 F                    -0.206364
     35 C                     0.443255
     36 O                    -0.460771
     37 O                    -0.300838
     38 C                    -0.058401
     39 H                     0.121460
     40 H                     0.095265
     41 H                     0.095116
     42 H                     0.219533
  ----------------------------------------
  Sum of atomic charges =     0.000000

                    Cartesian Multipole Moments
 -----------------------------------------------------------------
    Charge (ESU x 10^10)
                -0.0000
    Dipole Moment (Debye)
         X       1.2097      Y       1.2855      Z       3.1318
       Tot       3.5950
    Quadrupole Moments (Debye-Ang)
        XX    -192.6380     XY       3.9371     YY    -162.1895
        XZ     -14.1151     YZ      -7.4732     ZZ    -188.5549

 Total job time:  346.35s(wall), 11912.50s(cpu)
        *  Thank you very much for using Q-Chem.  Have a nice day.  *
