 Q-Chem 5.4, Q-Chem, Inc., Pleasanton, CA (2021)
 Q-Chem 5.4.0 for Intel X86 EM64T Linux

User input:
--------------------------------------------------------------
$molecule
0 1
C	-0.320589	-8.517702	0.014560
C	0.737240	-7.641575	-0.180211
S	-1.842356	-7.638634	0.299553
C	0.366488	-6.264785	-0.114873
H	1.768528	-7.966081	-0.368061
C	-1.038637	-6.072714	0.131236
C	-1.588197	-4.787049	0.253435
C	1.258831	-5.162801	-0.249014
C	0.709695	-3.874817	-0.122513
C	-0.697430	-3.683952	0.121043
O	2.553323	-5.499772	-0.505933
O	-2.888369	-4.459055	0.512697
C	-3.927625	-5.329063	0.080869
H	-4.869656	-4.755694	0.173159
H	-4.007459	-6.238095	0.716363
H	-3.789565	-5.637262	-0.978072
C	3.600064	-4.572261	-0.246949
H	4.544887	-5.139743	-0.344574
H	3.532074	-4.153131	0.779898
H	3.612378	-3.739531	-0.983261
C	-1.064246	-2.306654	0.188009
S	1.517360	-2.306501	-0.278644
C	-0.000000	-1.435185	-0.000000
H	-2.094685	-1.978138	0.373017
H	-0.322246	-9.614033	0.018474
C	0.000000	0.000000	0.000000
S	0.382799	0.819795	1.507541
C	1.046687	2.245325	0.718873
C	0.382918	0.819389	-1.067872
C	0.968323	2.080267	-0.686410
S	0.282561	0.597432	-2.805516
C	1.017839	2.187324	-3.054530
C	1.314960	2.830306	-1.862551
F	1.875498	4.043751	-1.819088
C	1.208895	2.592573	-4.456084
O	0.890778	1.891482	-5.406510
O	1.772886	3.819715	-4.569225
C	1.986852	4.266207	-5.916207
H	2.445834	5.267032	-5.833064
H	1.028114	4.323448	-6.470168
H	2.661066	3.573494	-6.459293
H	1.436015	3.083584	1.306486
$end

$rem
JOBTYPE		SP
EXCHANGE	HF
CORRELATION	pRIMP2
BASIS		cc-pvtz
METHOD		rimp2
AUX_BASIS	rimp2-cc-pvtz
SOLVENT_METHOD	PCM
PURECART	11111
SYMMETRY	false
MEM_TOTAL	110000
SCF_CONVERGENCE = 6
THRESH=10
GUI = 2
$end

$solvent
dielectric 4.90
$end
--------------------------------------------------------------

             Standard Nuclear Orientation (Angstroms)
    I     Atom           X                Y                Z
 ----------------------------------------------------------------
    1      C      -0.3205890000    -8.5177020000     0.0145600000
    2      C       0.7372400000    -7.6415750000    -0.1802110000
    3      S      -1.8423560000    -7.6386340000     0.2995530000
    4      C       0.3664880000    -6.2647850000    -0.1148730000
    5      H       1.7685280000    -7.9660810000    -0.3680610000
    6      C      -1.0386370000    -6.0727140000     0.1312360000
    7      C      -1.5881970000    -4.7870490000     0.2534350000
    8      C       1.2588310000    -5.1628010000    -0.2490140000
    9      C       0.7096950000    -3.8748170000    -0.1225130000
   10      C      -0.6974300000    -3.6839520000     0.1210430000
   11      O       2.5533230000    -5.4997720000    -0.5059330000
   12      O      -2.8883690000    -4.4590550000     0.5126970000
   13      C      -3.9276250000    -5.3290630000     0.0808690000
   14      H      -4.8696560000    -4.7556940000     0.1731590000
   15      H      -4.0074590000    -6.2380950000     0.7163630000
   16      H      -3.7895650000    -5.6372620000    -0.9780720000
   17      C       3.6000640000    -4.5722610000    -0.2469490000
   18      H       4.5448870000    -5.1397430000    -0.3445740000
   19      H       3.5320740000    -4.1531310000     0.7798980000
   20      H       3.6123780000    -3.7395310000    -0.9832610000
   21      C      -1.0642460000    -2.3066540000     0.1880090000
   22      S       1.5173600000    -2.3065010000    -0.2786440000
   23      C       0.0000000000    -1.4351850000     0.0000000000
   24      H      -2.0946850000    -1.9781380000     0.3730170000
   25      H      -0.3222460000    -9.6140330000     0.0184740000
   26      C       0.0000000000     0.0000000000     0.0000000000
   27      S       0.3827990000     0.8197950000     1.5075410000
   28      C       1.0466870000     2.2453250000     0.7188730000
   29      C       0.3829180000     0.8193890000    -1.0678720000
   30      C       0.9683230000     2.0802670000    -0.6864100000
   31      S       0.2825610000     0.5974320000    -2.8055160000
   32      C       1.0178390000     2.1873240000    -3.0545300000
   33      C       1.3149600000     2.8303060000    -1.8625510000
   34      F       1.8754980000     4.0437510000    -1.8190880000
   35      C       1.2088950000     2.5925730000    -4.4560840000
   36      O       0.8907780000     1.8914820000    -5.4065100000
   37      O       1.7728860000     3.8197150000    -4.5692250000
   38      C       1.9868520000     4.2662070000    -5.9162070000
   39      H       2.4458340000     5.2670320000    -5.8330640000
   40      H       1.0281140000     4.3234480000    -6.4701680000
   41      H       2.6610660000     3.5734940000    -6.4592930000
   42      H       1.4360150000     3.0835840000     1.3064860000
 ----------------------------------------------------------------

   10   -2754.3042744313      7.57e-07  Convergence criterion met
 Total energy in the final basis set =    -2754.3042744313
        RIMP2         total energy =     -2759.3561596674 a.u.

                    Orbital Energies (a.u.)
 --------------------------------------------------------------

 Alpha MOs
 -- Occupied --
-92.0140 -91.9985 -91.9877 -91.9862 -26.3431 -20.6143 -20.5920 -20.5913
-20.5606 -11.4088 -11.3822 -11.3186 -11.3178 -11.3128 -11.3027 -11.2966
-11.2914 -11.2899 -11.2886 -11.2867 -11.2860 -11.2854 -11.2840 -11.2835
-11.2798 -11.2593 -11.2589 -11.2555 -11.2498  -9.0125  -8.9984  -8.9881
 -8.9861  -6.6932  -6.6925  -6.6921  -6.6794  -6.6787  -6.6776  -6.6690
 -6.6683  -6.6674  -6.6671  -6.6664  -6.6656  -1.6602  -1.4668  -1.4161
 -1.4141  -1.3694  -1.2216  -1.1936  -1.1647  -1.1356  -1.0839  -1.0514
 -1.0411  -1.0222  -1.0010  -0.9871  -0.9621  -0.9597  -0.9501  -0.9385
 -0.8954  -0.8672  -0.8498  -0.8107  -0.7922  -0.7879  -0.7858  -0.7647
 -0.7549  -0.7333  -0.7250  -0.7094  -0.7000  -0.6847  -0.6827  -0.6804
 -0.6735  -0.6588  -0.6573  -0.6524  -0.6299  -0.6198  -0.6170  -0.6054
 -0.5975  -0.5856  -0.5770  -0.5686  -0.5655  -0.5610  -0.5553  -0.5462
 -0.5330  -0.5306  -0.5231  -0.5156  -0.5146  -0.5089  -0.5039  -0.4948
 -0.4893  -0.4800  -0.4745  -0.4731  -0.4686  -0.4663  -0.4608  -0.4042
 -0.3983  -0.3859  -0.3559  -0.3496  -0.3148  -0.2979  -0.2588

          Ground-State Mulliken Net Atomic Charges

     Atom                 Charge (a.u.)
  ----------------------------------------
      1 C                    -0.188089
      2 C                    -0.254614
      3 S                    -0.022721
      4 C                    -0.013337
      5 H                     0.196321
      6 C                    -0.028254
      7 C                     0.242756
      8 C                     0.239628
      9 C                    -0.041777
     10 C                    -0.021094
     11 O                    -0.333413
     12 O                    -0.339733
     13 C                    -0.085745
     14 H                     0.122549
     15 H                     0.090929
     16 H                     0.094359
     17 C                    -0.086606
     18 H                     0.124798
     19 H                     0.094136
     20 H                     0.090362
     21 C                    -0.223056
     22 S                     0.000544
     23 C                    -0.068409
     24 H                     0.197123
     25 H                     0.206408
     26 C                    -0.001252
     27 S                     0.111899
     28 C                    -0.182713
     29 C                    -0.047167
     30 C                    -0.078515
     31 S                     0.020162
     32 C                    -0.153735
     33 C                     0.390062
     34 F                    -0.206535
     35 C                     0.446715
     36 O                    -0.461333
     37 O                    -0.300988
     38 C                    -0.058417
     39 H                     0.121216
     40 H                     0.095102
     41 H                     0.095003
     42 H                     0.217432
  ----------------------------------------
  Sum of atomic charges =     0.000000

                    Cartesian Multipole Moments
 -----------------------------------------------------------------
    Charge (ESU x 10^10)
                 0.0000
    Dipole Moment (Debye)
         X       1.3045      Y       0.9666      Z       2.7137
       Tot       3.1623
    Quadrupole Moments (Debye-Ang)
        XX    -174.1583     XY       6.8369     YY    -162.6999
        XZ      -1.5547     YZ      -5.2534     ZZ    -206.3168

 Total job time:  308.00s(wall), 10460.31s(cpu)
        *  Thank you very much for using Q-Chem.  Have a nice day.  *
