 Q-Chem 5.4, Q-Chem, Inc., Pleasanton, CA (2021)
 Q-Chem 5.4.0 for Intel X86 EM64T Linux

User input:
--------------------------------------------------------------
$molecule
0 1
C	-0.306235	-8.517702	-0.095966
C	0.754415	-7.641575	0.082807
S	-1.833702	-7.638634	-0.348635
C	0.383675	-6.264785	0.017401
H	1.787757	-7.966081	0.259008
C	-1.020885	-6.072714	-0.231913
C	-1.579097	-4.787049	-0.305044
C	1.268082	-5.162801	0.196549
C	0.708796	-3.874817	0.127606
C	-0.696769	-3.683952	-0.124792
O	2.572378	-5.499772	0.397867
O	-2.889532	-4.459055	-0.506103
C	-3.718420	-5.329063	-1.267335
H	-4.635204	-4.755694	-1.502804
H	-4.010790	-6.238095	-0.697471
H	-3.226506	-5.637262	-2.215194
C	3.467415	-4.572261	0.999238
H	4.388648	-5.139743	1.230649
H	3.052323	-4.153131	1.940905
H	3.730819	-3.739531	0.311543
C	-1.064366	-2.306654	-0.187323
S	1.521154	-2.306501	0.257128
C	0.000000	-1.435185	0.000000
H	-2.095939	-1.978138	-0.365903
H	-0.309131	-9.614033	-0.092855
C	0.000000	0.000000	0.000000
S	0.234628	0.873813	1.507541
C	0.640889	2.392969	0.718873
C	0.234815	0.873434	-1.067872
C	0.592377	2.216811	-0.686410
S	0.174526	0.637422	-2.805516
C	0.622551	2.330840	-3.054530
C	0.803505	3.015647	-1.862551
F	1.144815	4.307994	-1.819088
C	0.740334	2.763108	-4.456084
O	0.548793	2.017428	-5.406510
O	1.082665	4.069544	-4.569225
C	1.215848	4.546407	-5.916207
H	1.494066	5.611729	-5.833064
H	0.261736	4.436296	-6.470168
H	2.000108	3.981294	-6.459293
H	0.878739	3.286099	1.306486
$end

$rem
JOBTYPE		SP
EXCHANGE	HF
CORRELATION	pRIMP2
BASIS		cc-pvtz
METHOD		rimp2
AUX_BASIS	rimp2-cc-pvtz
SOLVENT_METHOD	PCM
PURECART	11111
SYMMETRY	false
MEM_TOTAL	110000
SCF_CONVERGENCE = 6
THRESH=10
GUI = 2
$end

$solvent
dielectric 4.90
$end
--------------------------------------------------------------

             Standard Nuclear Orientation (Angstroms)
    I     Atom           X                Y                Z
 ----------------------------------------------------------------
    1      C      -0.3062350000    -8.5177020000    -0.0959660000
    2      C       0.7544150000    -7.6415750000     0.0828070000
    3      S      -1.8337020000    -7.6386340000    -0.3486350000
    4      C       0.3836750000    -6.2647850000     0.0174010000
    5      H       1.7877570000    -7.9660810000     0.2590080000
    6      C      -1.0208850000    -6.0727140000    -0.2319130000
    7      C      -1.5790970000    -4.7870490000    -0.3050440000
    8      C       1.2680820000    -5.1628010000     0.1965490000
    9      C       0.7087960000    -3.8748170000     0.1276060000
   10      C      -0.6967690000    -3.6839520000    -0.1247920000
   11      O       2.5723780000    -5.4997720000     0.3978670000
   12      O      -2.8895320000    -4.4590550000    -0.5061030000
   13      C      -3.7184200000    -5.3290630000    -1.2673350000
   14      H      -4.6352040000    -4.7556940000    -1.5028040000
   15      H      -4.0107900000    -6.2380950000    -0.6974710000
   16      H      -3.2265060000    -5.6372620000    -2.2151940000
   17      C       3.4674150000    -4.5722610000     0.9992380000
   18      H       4.3886480000    -5.1397430000     1.2306490000
   19      H       3.0523230000    -4.1531310000     1.9409050000
   20      H       3.7308190000    -3.7395310000     0.3115430000
   21      C      -1.0643660000    -2.3066540000    -0.1873230000
   22      S       1.5211540000    -2.3065010000     0.2571280000
   23      C       0.0000000000    -1.4351850000     0.0000000000
   24      H      -2.0959390000    -1.9781380000    -0.3659030000
   25      H      -0.3091310000    -9.6140330000    -0.0928550000
   26      C       0.0000000000     0.0000000000     0.0000000000
   27      S       0.2346280000     0.8738130000     1.5075410000
   28      C       0.6408890000     2.3929690000     0.7188730000
   29      C       0.2348150000     0.8734340000    -1.0678720000
   30      C       0.5923770000     2.2168110000    -0.6864100000
   31      S       0.1745260000     0.6374220000    -2.8055160000
   32      C       0.6225510000     2.3308400000    -3.0545300000
   33      C       0.8035050000     3.0156470000    -1.8625510000
   34      F       1.1448150000     4.3079940000    -1.8190880000
   35      C       0.7403340000     2.7631080000    -4.4560840000
   36      O       0.5487930000     2.0174280000    -5.4065100000
   37      O       1.0826650000     4.0695440000    -4.5692250000
   38      C       1.2158480000     4.5464070000    -5.9162070000
   39      H       1.4940660000     5.6117290000    -5.8330640000
   40      H       0.2617360000     4.4362960000    -6.4701680000
   41      H       2.0001080000     3.9812940000    -6.4592930000
   42      H       0.8787390000     3.2860990000     1.3064860000
 ----------------------------------------------------------------

   10   -2754.3106315948      7.07e-07  Convergence criterion met
 Total energy in the final basis set =    -2754.3106315948
        RIMP2         total energy =     -2759.3606471834 a.u.

                    Orbital Energies (a.u.)
 --------------------------------------------------------------

 Alpha MOs
 -- Occupied --
-92.0141 -91.9971 -91.9889 -91.9865 -26.3427 -20.6142 -20.5924 -20.5916
-20.5605 -11.4086 -11.3816 -11.3191 -11.3184 -11.3101 -11.3011 -11.2963
-11.2949 -11.2910 -11.2885 -11.2871 -11.2862 -11.2860 -11.2839 -11.2835
-11.2802 -11.2601 -11.2594 -11.2573 -11.2500  -9.0126  -8.9971  -8.9892
 -8.9864  -6.6933  -6.6927  -6.6922  -6.6781  -6.6773  -6.6762  -6.6702
 -6.6695  -6.6685  -6.6674  -6.6667  -6.6659  -1.6598  -1.4666  -1.4165
 -1.4144  -1.3693  -1.2203  -1.1942  -1.1651  -1.1351  -1.0841  -1.0519
 -1.0406  -1.0217  -1.0016  -0.9875  -0.9611  -0.9609  -0.9503  -0.9383
 -0.8958  -0.8667  -0.8509  -0.8090  -0.7938  -0.7883  -0.7863  -0.7648
 -0.7548  -0.7338  -0.7246  -0.7090  -0.7009  -0.6845  -0.6831  -0.6800
 -0.6733  -0.6592  -0.6571  -0.6527  -0.6303  -0.6201  -0.6173  -0.6050
 -0.5971  -0.5858  -0.5772  -0.5691  -0.5662  -0.5602  -0.5554  -0.5475
 -0.5337  -0.5305  -0.5233  -0.5158  -0.5151  -0.5091  -0.5037  -0.4942
 -0.4896  -0.4793  -0.4746  -0.4729  -0.4693  -0.4669  -0.4616  -0.4059
 -0.3966  -0.3871  -0.3568  -0.3493  -0.3137  -0.2988  -0.2591

          Ground-State Mulliken Net Atomic Charges

     Atom                 Charge (a.u.)
  ----------------------------------------
      1 C                    -0.187464
      2 C                    -0.254601
      3 S                    -0.021987
      4 C                    -0.012877
      5 H                     0.196404
      6 C                    -0.028118
      7 C                     0.245673
      8 C                     0.238753
      9 C                    -0.042131
     10 C                    -0.028842
     11 O                    -0.333266
     12 O                    -0.339806
     13 C                    -0.085792
     14 H                     0.122803
     15 H                     0.090945
     16 H                     0.094457
     17 C                    -0.086417
     18 H                     0.124791
     19 H                     0.094173
     20 H                     0.090210
     21 C                    -0.214016
     22 S                     0.000192
     23 C                    -0.070802
     24 H                     0.197815
     25 H                     0.206546
     26 C                    -0.015374
     27 S                     0.107975
     28 C                    -0.185220
     29 C                     0.001314
     30 C                    -0.097317
     31 S                     0.008472
     32 C                    -0.153296
     33 C                     0.390235
     34 F                    -0.206883
     35 C                     0.445589
     36 O                    -0.461285
     37 O                    -0.300795
     38 C                    -0.058439
     39 H                     0.121167
     40 H                     0.094966
     41 H                     0.094993
     42 H                     0.217254
  ----------------------------------------
  Sum of atomic charges =     0.000000

                    Cartesian Multipole Moments
 -----------------------------------------------------------------
    Charge (ESU x 10^10)
                -0.0000
    Dipole Moment (Debye)
         X       0.8128      Y       0.8456      Z       2.7909
       Tot       3.0274
    Quadrupole Moments (Debye-Ang)
        XX    -179.7697     XY       4.2380     YY    -160.2722
        XZ       7.3907     YZ      -5.5326     ZZ    -202.7431

 Total job time:  304.71s(wall), 9510.57s(cpu)
        *  Thank you very much for using Q-Chem.  Have a nice day.  *
