 Q-Chem 5.4, Q-Chem, Inc., Pleasanton, CA (2021)
 Q-Chem 5.4.0 for Intel X86 EM64T Linux

User input:
--------------------------------------------------------------
$molecule
0 1
C	0.123330	-8.517702	0.296276
C	-0.421494	-7.641575	-0.631143
S	0.911611	-7.638634	1.628795
C	-0.233291	-6.264785	-0.305097
H	-0.950737	-7.966081	-1.535988
C	0.478557	-6.072714	0.931114
C	0.781346	-4.787049	1.405737
C	-0.664542	-5.162801	-1.097747
C	-0.357854	-3.874817	-0.624993
C	0.352278	-3.683952	0.613970
O	-1.348709	-5.499772	-2.226300
O	1.469658	-4.459055	2.538827
C	1.419319	-5.329063	3.663102
H	1.828237	-4.755694	4.516756
H	2.043793	-6.238095	3.520769
H	0.377021	-5.637262	3.895546
C	-1.463351	-4.572261	-3.298492
H	-1.878237	-5.139743	-4.152945
H	-0.475176	-4.153131	-3.585804
H	-2.159469	-3.739531	-3.058230
C	0.540664	-2.306654	0.935761
S	-0.780808	-2.306501	-1.330550
C	0.000000	-1.435185	0.000000
H	1.066946	-1.978138	1.840780
H	0.127575	-9.614033	0.296494
C	0.000000	0.000000	0.000000
S	0.693394	0.581209	1.507541
C	1.897536	1.592607	0.718873
C	0.693330	0.580791	-1.067872
C	1.756758	1.476132	-0.686410
S	0.508573	0.422041	-2.805516
C	1.846879	1.552232	-3.054530
C	2.387897	2.009402	-1.862551
F	3.408741	2.872264	-1.819088
C	2.191300	1.838768	-4.456084
O	1.606694	1.337806	-5.406510
O	3.221062	2.712584	-4.569225
C	3.603677	3.026817	-5.916207
H	4.442623	3.739898	-5.833064
H	2.758956	3.483875	-6.470168
H	3.921969	2.114070	-6.459293
H	2.604650	2.187790	1.306486
$end

$rem
JOBTYPE		SP
EXCHANGE	HF
CORRELATION	pRIMP2
BASIS		cc-pvtz
METHOD		rimp2
AUX_BASIS	rimp2-cc-pvtz
SOLVENT_METHOD	PCM
PURECART	11111
SYMMETRY	false
MEM_TOTAL	110000
SCF_CONVERGENCE = 6
THRESH=10
GUI = 2
$end

$solvent
dielectric 4.90
$end
--------------------------------------------------------------

             Standard Nuclear Orientation (Angstroms)
    I     Atom           X                Y                Z
 ----------------------------------------------------------------
    1      C       0.1233300000    -8.5177020000     0.2962760000
    2      C      -0.4214940000    -7.6415750000    -0.6311430000
    3      S       0.9116110000    -7.6386340000     1.6287950000
    4      C      -0.2332910000    -6.2647850000    -0.3050970000
    5      H      -0.9507370000    -7.9660810000    -1.5359880000
    6      C       0.4785570000    -6.0727140000     0.9311140000
    7      C       0.7813460000    -4.7870490000     1.4057370000
    8      C      -0.6645420000    -5.1628010000    -1.0977470000
    9      C      -0.3578540000    -3.8748170000    -0.6249930000
   10      C       0.3522780000    -3.6839520000     0.6139700000
   11      O      -1.3487090000    -5.4997720000    -2.2263000000
   12      O       1.4696580000    -4.4590550000     2.5388270000
   13      C       1.4193190000    -5.3290630000     3.6631020000
   14      H       1.8282370000    -4.7556940000     4.5167560000
   15      H       2.0437930000    -6.2380950000     3.5207690000
   16      H       0.3770210000    -5.6372620000     3.8955460000
   17      C      -1.4633510000    -4.5722610000    -3.2984920000
   18      H      -1.8782370000    -5.1397430000    -4.1529450000
   19      H      -0.4751760000    -4.1531310000    -3.5858040000
   20      H      -2.1594690000    -3.7395310000    -3.0582300000
   21      C       0.5406640000    -2.3066540000     0.9357610000
   22      S      -0.7808080000    -2.3065010000    -1.3305500000
   23      C       0.0000000000    -1.4351850000     0.0000000000
   24      H       1.0669460000    -1.9781380000     1.8407800000
   25      H       0.1275750000    -9.6140330000     0.2964940000
   26      C       0.0000000000     0.0000000000     0.0000000000
   27      S       0.6933940000     0.5812090000     1.5075410000
   28      C       1.8975360000     1.5926070000     0.7188730000
   29      C       0.6933300000     0.5807910000    -1.0678720000
   30      C       1.7567580000     1.4761320000    -0.6864100000
   31      S       0.5085730000     0.4220410000    -2.8055160000
   32      C       1.8468790000     1.5522320000    -3.0545300000
   33      C       2.3878970000     2.0094020000    -1.8625510000
   34      F       3.4087410000     2.8722640000    -1.8190880000
   35      C       2.1913000000     1.8387680000    -4.4560840000
   36      O       1.6066940000     1.3378060000    -5.4065100000
   37      O       3.2210620000     2.7125840000    -4.5692250000
   38      C       3.6036770000     3.0268170000    -5.9162070000
   39      H       4.4426230000     3.7398980000    -5.8330640000
   40      H       2.7589560000     3.4838750000    -6.4701680000
   41      H       3.9219690000     2.1140700000    -6.4592930000
   42      H       2.6046500000     2.1877900000     1.3064860000
 ----------------------------------------------------------------

   10   -2754.2709671105      7.67e-07  Convergence criterion met
 Total energy in the final basis set =    -2754.2709671105
        RIMP2         total energy =     -2759.3322516229 a.u.

                    Orbital Energies (a.u.)
 --------------------------------------------------------------

 Alpha MOs
 -- Occupied --
-92.0142 -92.0074 -91.9849 -91.9833 -26.3460 -20.6156 -20.5907 -20.5876
-20.5621 -11.4106 -11.3863 -11.3304 -11.3188 -11.3172 -11.3104 -11.2989
-11.2984 -11.2894 -11.2888 -11.2855 -11.2843 -11.2824 -11.2813 -11.2800
-11.2749 -11.2576 -11.2525 -11.2476 -11.2395  -9.0135  -9.0072  -8.9858
 -8.9833  -6.6942  -6.6934  -6.6930  -6.6881  -6.6874  -6.6863  -6.6668
 -6.6661  -6.6652  -6.6643  -6.6637  -6.6628  -1.6629  -1.4682  -1.4146
 -1.4105  -1.3709  -1.2316  -1.1907  -1.1646  -1.1396  -1.0854  -1.0483
 -1.0448  -1.0275  -0.9979  -0.9872  -0.9661  -0.9563  -0.9479  -0.9414
 -0.8925  -0.8716  -0.8453  -0.8183  -0.7941  -0.7847  -0.7833  -0.7632
 -0.7558  -0.7304  -0.7277  -0.7127  -0.6981  -0.6865  -0.6832  -0.6800
 -0.6748  -0.6601  -0.6569  -0.6503  -0.6294  -0.6174  -0.6150  -0.6047
 -0.6026  -0.5891  -0.5779  -0.5674  -0.5652  -0.5646  -0.5532  -0.5485
 -0.5322  -0.5259  -0.5214  -0.5170  -0.5131  -0.5110  -0.5041  -0.4928
 -0.4871  -0.4811  -0.4766  -0.4736  -0.4671  -0.4623  -0.4564  -0.4236
 -0.3884  -0.3837  -0.3616  -0.3495  -0.3224  -0.2940  -0.2477

          Ground-State Mulliken Net Atomic Charges

     Atom                 Charge (a.u.)
  ----------------------------------------
      1 C                    -0.198645
      2 C                    -0.252569
      3 S                    -0.028607
      4 C                    -0.023415
      5 H                     0.195314
      6 C                    -0.022580
      7 C                     0.227101
      8 C                     0.245322
      9 C                    -0.040978
     10 C                    -0.007413
     11 O                    -0.333366
     12 O                    -0.342634
     13 C                    -0.085546
     14 H                     0.120859
     15 H                     0.090369
     16 H                     0.092766
     17 C                    -0.087861
     18 H                     0.124749
     19 H                     0.095083
     20 H                     0.089499
     21 C                    -0.300050
     22 S                    -0.035994
     23 C                     0.014401
     24 H                     0.189719
     25 H                     0.204628
     26 C                    -0.100598
     27 S                     0.099744
     28 C                    -0.130503
     29 C                     0.079298
     30 C                    -0.122113
     31 S                     0.047853
     32 C                    -0.160079
     33 C                     0.399970
     34 F                    -0.204342
     35 C                     0.448349
     36 O                    -0.462026
     37 O                    -0.301246
     38 C                    -0.058284
     39 H                     0.121554
     40 H                     0.095206
     41 H                     0.095338
     42 H                     0.221728
  ----------------------------------------
  Sum of atomic charges =     0.000000

                    Cartesian Multipole Moments
 -----------------------------------------------------------------
    Charge (ESU x 10^10)
                -0.0000
    Dipole Moment (Debye)
         X       2.6441      Y       2.4087      Z       2.2483
       Tot       4.2247
    Quadrupole Moments (Debye-Ang)
        XX    -189.8026     XY      10.7151     YY    -178.5875
        XZ       0.9775     YZ      -4.0171     ZZ    -182.1967

 Total job time:  286.89s(wall), 8687.36s(cpu)
        *  Thank you very much for using Q-Chem.  Have a nice day.  *
