 Q-Chem 5.4, Q-Chem, Inc., Pleasanton, CA (2021)
 Q-Chem 5.4.0 for Intel X86 EM64T Linux

User input:
--------------------------------------------------------------
$molecule
0 1
C	-0.296276	-8.517702	0.123330
C	0.631143	-7.641575	-0.421494
S	-1.628795	-7.638634	0.911611
C	0.305097	-6.264785	-0.233291
H	1.535988	-7.966081	-0.950737
C	-0.931114	-6.072714	0.478557
C	-1.405737	-4.787049	0.781346
C	1.097747	-5.162801	-0.664542
C	0.624993	-3.874817	-0.357854
C	-0.613970	-3.683952	0.352278
O	2.226300	-5.499772	-1.348709
O	-2.538827	-4.459055	1.469658
C	-3.663102	-5.329063	1.419319
H	-4.516756	-4.755694	1.828237
H	-3.520769	-6.238095	2.043793
H	-3.895546	-5.637262	0.377021
C	3.298492	-4.572261	-1.463351
H	4.152945	-5.139743	-1.878237
H	3.585804	-4.153131	-0.475176
H	3.058230	-3.739531	-2.159469
C	-0.935761	-2.306654	0.540664
S	1.330550	-2.306501	-0.780808
C	0.000000	-1.435185	0.000000
H	-1.840780	-1.978138	1.066946
H	-0.296494	-9.614033	0.127575
C	0.000000	0.000000	0.000000
S	0.000474	0.904764	1.507541
C	-0.000295	2.477305	0.718873
C	0.000752	0.904447	-1.067872
C	-0.001560	2.294593	-0.686410
S	0.003602	0.660872	-2.805516
C	-0.001928	2.412546	-3.054530
C	-0.004381	3.120854	-1.862551
F	-0.009185	4.457503	-1.819088
C	-0.000038	2.860570	-4.456084
O	0.007944	2.090724	-5.406510
O	-0.007501	4.211092	-4.569225
C	-0.002278	4.706177	-5.916207
H	-0.009265	5.807207	-5.833064
H	-0.895381	4.352875	-6.470168
H	0.901521	4.363301	-6.459293
H	-0.001708	3.401562	1.306486
$end

$rem
JOBTYPE		SP
EXCHANGE	HF
CORRELATION	pRIMP2
BASIS		cc-pvtz
METHOD		rimp2
AUX_BASIS	rimp2-cc-pvtz
SOLVENT_METHOD	PCM
PURECART	11111
SYMMETRY	false
MEM_TOTAL	110000
SCF_CONVERGENCE = 6
THRESH=10
GUI = 2
$end

$solvent
dielectric 4.90
$end
--------------------------------------------------------------

             Standard Nuclear Orientation (Angstroms)
    I     Atom           X                Y                Z
 ----------------------------------------------------------------
    1      C      -0.2962760000    -8.5177020000     0.1233300000
    2      C       0.6311430000    -7.6415750000    -0.4214940000
    3      S      -1.6287950000    -7.6386340000     0.9116110000
    4      C       0.3050970000    -6.2647850000    -0.2332910000
    5      H       1.5359880000    -7.9660810000    -0.9507370000
    6      C      -0.9311140000    -6.0727140000     0.4785570000
    7      C      -1.4057370000    -4.7870490000     0.7813460000
    8      C       1.0977470000    -5.1628010000    -0.6645420000
    9      C       0.6249930000    -3.8748170000    -0.3578540000
   10      C      -0.6139700000    -3.6839520000     0.3522780000
   11      O       2.2263000000    -5.4997720000    -1.3487090000
   12      O      -2.5388270000    -4.4590550000     1.4696580000
   13      C      -3.6631020000    -5.3290630000     1.4193190000
   14      H      -4.5167560000    -4.7556940000     1.8282370000
   15      H      -3.5207690000    -6.2380950000     2.0437930000
   16      H      -3.8955460000    -5.6372620000     0.3770210000
   17      C       3.2984920000    -4.5722610000    -1.4633510000
   18      H       4.1529450000    -5.1397430000    -1.8782370000
   19      H       3.5858040000    -4.1531310000    -0.4751760000
   20      H       3.0582300000    -3.7395310000    -2.1594690000
   21      C      -0.9357610000    -2.3066540000     0.5406640000
   22      S       1.3305500000    -2.3065010000    -0.7808080000
   23      C       0.0000000000    -1.4351850000     0.0000000000
   24      H      -1.8407800000    -1.9781380000     1.0669460000
   25      H      -0.2964940000    -9.6140330000     0.1275750000
   26      C       0.0000000000     0.0000000000     0.0000000000
   27      S       0.0004740000     0.9047640000     1.5075410000
   28      C      -0.0002950000     2.4773050000     0.7188730000
   29      C       0.0007520000     0.9044470000    -1.0678720000
   30      C      -0.0015600000     2.2945930000    -0.6864100000
   31      S       0.0036020000     0.6608720000    -2.8055160000
   32      C      -0.0019280000     2.4125460000    -3.0545300000
   33      C      -0.0043810000     3.1208540000    -1.8625510000
   34      F      -0.0091850000     4.4575030000    -1.8190880000
   35      C      -0.0000380000     2.8605700000    -4.4560840000
   36      O       0.0079440000     2.0907240000    -5.4065100000
   37      O      -0.0075010000     4.2110920000    -4.5692250000
   38      C      -0.0022780000     4.7061770000    -5.9162070000
   39      H      -0.0092650000     5.8072070000    -5.8330640000
   40      H      -0.8953810000     4.3528750000    -6.4701680000
   41      H       0.9015210000     4.3633010000    -6.4592930000
   42      H      -0.0017080000     3.4015620000     1.3064860000
 ----------------------------------------------------------------

   10   -2754.3156051171      7.00e-07  Convergence criterion met
 Total energy in the final basis set =    -2754.3156051171
        RIMP2         total energy =     -2759.3656584268 a.u.

                    Orbital Energies (a.u.)
 --------------------------------------------------------------

 Alpha MOs
 -- Occupied --
-92.0153 -91.9967 -91.9898 -91.9866 -26.3425 -20.6143 -20.5924 -20.5919
-20.5606 -11.4087 -11.3813 -11.3194 -11.3185 -11.3079 -11.2997 -11.2982
-11.2965 -11.2935 -11.2885 -11.2869 -11.2865 -11.2864 -11.2843 -11.2839
-11.2802 -11.2611 -11.2594 -11.2580 -11.2502  -9.0136  -8.9967  -8.9902
 -8.9866  -6.6943  -6.6937  -6.6932  -6.6777  -6.6770  -6.6759  -6.6711
 -6.6704  -6.6695  -6.6675  -6.6669  -6.6661  -1.6596  -1.4667  -1.4165
 -1.4146  -1.3694  -1.2201  -1.1947  -1.1656  -1.1350  -1.0849  -1.0523
 -1.0406  -1.0221  -1.0020  -0.9879  -0.9628  -0.9593  -0.9503  -0.9391
 -0.8959  -0.8667  -0.8517  -0.8116  -0.7916  -0.7885  -0.7868  -0.7652
 -0.7549  -0.7341  -0.7245  -0.7092  -0.6998  -0.6847  -0.6835  -0.6804
 -0.6734  -0.6593  -0.6573  -0.6528  -0.6306  -0.6203  -0.6171  -0.6044
 -0.5968  -0.5853  -0.5774  -0.5700  -0.5666  -0.5593  -0.5563  -0.5529
 -0.5314  -0.5300  -0.5244  -0.5164  -0.5152  -0.5080  -0.5057  -0.4960
 -0.4893  -0.4791  -0.4756  -0.4729  -0.4697  -0.4657  -0.4602  -0.4119
 -0.3977  -0.3860  -0.3579  -0.3485  -0.3204  -0.2929  -0.2574

          Ground-State Mulliken Net Atomic Charges

     Atom                 Charge (a.u.)
  ----------------------------------------
      1 C                    -0.187804
      2 C                    -0.253757
      3 S                    -0.021990
      4 C                    -0.014357
      5 H                     0.196545
      6 C                    -0.027311
      7 C                     0.244244
      8 C                     0.238913
      9 C                    -0.043498
     10 C                    -0.028402
     11 O                    -0.333164
     12 O                    -0.340025
     13 C                    -0.085719
     14 H                     0.122634
     15 H                     0.091002
     16 H                     0.094433
     17 C                    -0.086548
     18 H                     0.124979
     19 H                     0.094485
     20 H                     0.090562
     21 C                    -0.233921
     22 S                    -0.003432
     23 C                    -0.036473
     24 H                     0.198513
     25 H                     0.206552
     26 C                    -0.007533
     27 S                     0.106398
     28 C                    -0.189127
     29 C                    -0.000462
     30 C                    -0.110085
     31 S                     0.008692
     32 C                    -0.152966
     33 C                     0.392930
     34 F                    -0.207237
     35 C                     0.444547
     36 O                    -0.461065
     37 O                    -0.300601
     38 C                    -0.058661
     39 H                     0.121234
     40 H                     0.095078
     41 H                     0.094955
     42 H                     0.217440
  ----------------------------------------
  Sum of atomic charges =     0.000000

                    Cartesian Multipole Moments
 -----------------------------------------------------------------
    Charge (ESU x 10^10)
                -0.0000
    Dipole Moment (Debye)
         X      -0.0454      Y       0.8189      Z       2.7904
       Tot       2.9085
    Quadrupole Moments (Debye-Ang)
        XX    -178.8694     XY       1.0043     YY    -159.1448
        XZ      -6.9232     YZ      -6.2425     ZZ    -204.6691

 Total job time:  310.27s(wall), 10386.69s(cpu)
        *  Thank you very much for using Q-Chem.  Have a nice day.  *
