 Q-Chem 5.4, Q-Chem, Inc., Pleasanton, CA (2021)
 Q-Chem 5.4.0 for Intel X86 EM64T Linux

User input:
--------------------------------------------------------------
$molecule
0 1
C	-0.236226	-8.517702	0.217225
C	0.448921	-7.641575	-0.611939
S	-1.218777	-7.638634	1.413715
C	0.206907	-6.264785	-0.323572
H	1.118185	-7.966081	-1.418739
C	-0.711285	-6.072714	0.768156
C	-1.053725	-4.787049	1.215016
C	0.804258	-5.162801	-0.999917
C	0.464908	-3.874817	-0.550033
C	-0.456457	-3.683952	0.541024
O	1.630752	-5.499772	-2.028811
O	-1.883064	-4.459055	2.249357
C	-2.956754	-5.329063	2.586579
H	-3.619069	-4.755694	3.262802
H	-2.609423	-6.238095	3.124711
H	-3.531667	-5.637262	1.686639
C	2.599073	-4.572261	-2.503251
H	3.260097	-5.139743	-3.185356
H	3.207034	-4.153131	-1.672937
H	2.135214	-3.739531	-3.075213
C	-0.694410	-2.306654	0.828107
S	0.983256	-2.306501	-1.188794
C	-0.000000	-1.435185	-0.000000
H	-1.364851	-1.978138	1.632185
H	-0.234980	-9.614033	0.221288
C	0.000000	0.000000	0.000000
S	0.157577	0.890937	1.507541
C	0.429889	2.439720	0.718873
C	0.157797	0.890576	-1.067872
C	0.396915	2.260004	-0.686410
S	0.118307	0.650207	-2.805516
C	0.417036	2.376229	-3.054530
C	0.537616	3.074202	-1.862551
F	0.764992	4.391378	-1.819088
C	0.496696	2.817118	-4.456084
O	0.370874	2.057582	-5.406510
O	0.723861	4.148418	-4.569225
C	0.814976	4.635075	-5.916207
H	0.999286	5.720591	-5.833064
H	-0.125909	4.442226	-6.470168
H	1.645504	4.140465	-6.459293
H	0.588993	3.350182	1.306486
$end

$rem
JOBTYPE		SP
EXCHANGE	HF
CORRELATION	pRIMP2
BASIS		cc-pvtz
METHOD		rimp2
AUX_BASIS	rimp2-cc-pvtz
SOLVENT_METHOD	PCM
PURECART	11111
SYMMETRY	false
MEM_TOTAL	110000
SCF_CONVERGENCE = 6
THRESH=10
GUI = 2
$end

$solvent
dielectric 4.90
$end
--------------------------------------------------------------

             Standard Nuclear Orientation (Angstroms)
    I     Atom           X                Y                Z
 ----------------------------------------------------------------
    1      C      -0.2362260000    -8.5177020000     0.2172250000
    2      C       0.4489210000    -7.6415750000    -0.6119390000
    3      S      -1.2187770000    -7.6386340000     1.4137150000
    4      C       0.2069070000    -6.2647850000    -0.3235720000
    5      H       1.1181850000    -7.9660810000    -1.4187390000
    6      C      -0.7112850000    -6.0727140000     0.7681560000
    7      C      -1.0537250000    -4.7870490000     1.2150160000
    8      C       0.8042580000    -5.1628010000    -0.9999170000
    9      C       0.4649080000    -3.8748170000    -0.5500330000
   10      C      -0.4564570000    -3.6839520000     0.5410240000
   11      O       1.6307520000    -5.4997720000    -2.0288110000
   12      O      -1.8830640000    -4.4590550000     2.2493570000
   13      C      -2.9567540000    -5.3290630000     2.5865790000
   14      H      -3.6190690000    -4.7556940000     3.2628020000
   15      H      -2.6094230000    -6.2380950000     3.1247110000
   16      H      -3.5316670000    -5.6372620000     1.6866390000
   17      C       2.5990730000    -4.5722610000    -2.5032510000
   18      H       3.2600970000    -5.1397430000    -3.1853560000
   19      H       3.2070340000    -4.1531310000    -1.6729370000
   20      H       2.1352140000    -3.7395310000    -3.0752130000
   21      C      -0.6944100000    -2.3066540000     0.8281070000
   22      S       0.9832560000    -2.3065010000    -1.1887940000
   23      C       0.0000000000    -1.4351850000     0.0000000000
   24      H      -1.3648510000    -1.9781380000     1.6321850000
   25      H      -0.2349800000    -9.6140330000     0.2212880000
   26      C       0.0000000000     0.0000000000     0.0000000000
   27      S       0.1575770000     0.8909370000     1.5075410000
   28      C       0.4298890000     2.4397200000     0.7188730000
   29      C       0.1577970000     0.8905760000    -1.0678720000
   30      C       0.3969150000     2.2600040000    -0.6864100000
   31      S       0.1183070000     0.6502070000    -2.8055160000
   32      C       0.4170360000     2.3762290000    -3.0545300000
   33      C       0.5376160000     3.0742020000    -1.8625510000
   34      F       0.7649920000     4.3913780000    -1.8190880000
   35      C       0.4966960000     2.8171180000    -4.4560840000
   36      O       0.3708740000     2.0575820000    -5.4065100000
   37      O       0.7238610000     4.1484180000    -4.5692250000
   38      C       0.8149760000     4.6350750000    -5.9162070000
   39      H       0.9992860000     5.7205910000    -5.8330640000
   40      H      -0.1259090000     4.4422260000    -6.4701680000
   41      H       1.6455040000     4.1404650000    -6.4592930000
   42      H       0.5889930000     3.3501820000     1.3064860000
 ----------------------------------------------------------------

   10   -2754.3147011807      7.40e-07  Convergence criterion met
 Total energy in the final basis set =    -2754.3147011807
        RIMP2         total energy =     -2759.3666976673 a.u.

                    Orbital Energies (a.u.)
 --------------------------------------------------------------

 Alpha MOs
 -- Occupied --
-92.0153 -91.9975 -91.9904 -91.9865 -26.3428 -20.6145 -20.5924 -20.5916
-20.5609 -11.4090 -11.3818 -11.3197 -11.3178 -11.3091 -11.3003 -11.2991
-11.2969 -11.2953 -11.2886 -11.2868 -11.2863 -11.2863 -11.2848 -11.2843
-11.2797 -11.2615 -11.2589 -11.2562 -11.2500  -9.0137  -8.9976  -8.9908
 -8.9864  -6.6944  -6.6939  -6.6933  -6.6786  -6.6779  -6.6767  -6.6717
 -6.6711  -6.6701  -6.6674  -6.6667  -6.6659  -1.6599  -1.4670  -1.4165
 -1.4144  -1.3696  -1.2213  -1.1947  -1.1658  -1.1357  -1.0854  -1.0522
 -1.0410  -1.0230  -1.0021  -0.9880  -0.9637  -0.9588  -0.9501  -0.9399
 -0.8960  -0.8673  -0.8516  -0.8133  -0.7918  -0.7873  -0.7868  -0.7652
 -0.7551  -0.7341  -0.7248  -0.7097  -0.6992  -0.6852  -0.6835  -0.6811
 -0.6736  -0.6592  -0.6577  -0.6527  -0.6306  -0.6201  -0.6170  -0.6041
 -0.5972  -0.5844  -0.5782  -0.5696  -0.5669  -0.5590  -0.5573  -0.5529
 -0.5322  -0.5298  -0.5246  -0.5171  -0.5160  -0.5089  -0.5071  -0.4963
 -0.4884  -0.4789  -0.4762  -0.4735  -0.4698  -0.4651  -0.4598  -0.4191
 -0.3967  -0.3852  -0.3581  -0.3502  -0.3243  -0.2899  -0.2535

          Ground-State Mulliken Net Atomic Charges

     Atom                 Charge (a.u.)
  ----------------------------------------
      1 C                    -0.188936
      2 C                    -0.253700
      3 S                    -0.022652
      4 C                    -0.016193
      5 H                     0.196528
      6 C                    -0.026650
      7 C                     0.241452
      8 C                     0.241116
      9 C                    -0.041327
     10 C                    -0.013973
     11 O                    -0.333053
     12 O                    -0.340186
     13 C                    -0.085730
     14 H                     0.122446
     15 H                     0.091067
     16 H                     0.094251
     17 C                    -0.088164
     18 H                     0.125503
     19 H                     0.094673
     20 H                     0.091031
     21 C                    -0.262487
     22 S                    -0.017794
     23 C                    -0.001203
     24 H                     0.194795
     25 H                     0.206412
     26 C                     0.028851
     27 S                     0.107269
     28 C                    -0.193179
     29 C                    -0.051481
     30 C                    -0.098348
     31 S                     0.012580
     32 C                    -0.157486
     33 C                     0.399374
     34 F                    -0.207289
     35 C                     0.443766
     36 O                    -0.460974
     37 O                    -0.300653
     38 C                    -0.058615
     39 H                     0.121322
     40 H                     0.095167
     41 H                     0.094980
     42 H                     0.217489
  ----------------------------------------
  Sum of atomic charges =     0.000000

                    Cartesian Multipole Moments
 -----------------------------------------------------------------
    Charge (ESU x 10^10)
                -0.0000
    Dipole Moment (Debye)
         X       0.4085      Y       0.9640      Z       2.7278
       Tot       2.9218
    Quadrupole Moments (Debye-Ang)
        XX    -185.3953     XY       3.7951     YY    -160.1987
        XZ     -13.4206     YZ      -6.3474     ZZ    -197.4597

 Total job time:  316.42s(wall), 9525.47s(cpu)
        *  Thank you very much for using Q-Chem.  Have a nice day.  *
