 Q-Chem 5.4, Q-Chem, Inc., Pleasanton, CA (2021)
 Q-Chem 5.4.0 for Intel X86 EM64T Linux

User input:
--------------------------------------------------------------
$molecule
0 1
C	-0.296276	-8.517702	0.123330
C	0.631143	-7.641575	-0.421494
S	-1.628795	-7.638634	0.911611
C	0.305097	-6.264785	-0.233291
H	1.535988	-7.966081	-0.950737
C	-0.931114	-6.072714	0.478557
C	-1.405737	-4.787049	0.781346
C	1.097747	-5.162801	-0.664542
C	0.624993	-3.874817	-0.357854
C	-0.613970	-3.683952	0.352278
O	2.226300	-5.499772	-1.348709
O	-2.538827	-4.459055	1.469658
C	-3.663102	-5.329063	1.419319
H	-4.516756	-4.755694	1.828237
H	-3.520769	-6.238095	2.043793
H	-3.895546	-5.637262	0.377021
C	3.298492	-4.572261	-1.463351
H	4.152945	-5.139743	-1.878237
H	3.585804	-4.153131	-0.475176
H	3.058230	-3.739531	-2.159469
C	-0.935761	-2.306654	0.540664
S	1.330550	-2.306501	-0.780808
C	-0.000000	-1.435185	-0.000000
H	-1.840780	-1.978138	1.066946
H	-0.296494	-9.614033	0.127575
C	0.000000	0.000000	0.000000
S	0.581934	0.692785	1.507541
C	1.592155	1.897915	0.718873
C	0.581944	0.692363	-1.067872
C	1.473741	1.758764	-0.686410
S	0.427560	0.503942	-2.805516
C	1.549278	1.849357	-3.054530
C	2.002690	2.393529	-1.862551
F	2.858191	3.420549	-1.819088
C	1.838710	2.191348	-4.456084
O	1.349977	1.596481	-5.406510
O	2.701091	3.230705	-4.569225
C	3.023327	3.606605	-5.916207
H	3.725703	4.454534	-5.833064
H	2.112072	3.910035	-6.470168
H	3.495281	2.762996	-6.459293
H	2.185174	2.606846	1.306486
$end

$rem
JOBTYPE		SP
EXCHANGE	HF
CORRELATION	pRIMP2
BASIS		cc-pvtz
METHOD		rimp2
AUX_BASIS	rimp2-cc-pvtz
SOLVENT_METHOD	PCM
PURECART	11111
SYMMETRY	false
MEM_TOTAL	110000
SCF_CONVERGENCE = 6
THRESH=10
GUI = 2
$end

$solvent
dielectric 4.90
$end
--------------------------------------------------------------

             Standard Nuclear Orientation (Angstroms)
    I     Atom           X                Y                Z
 ----------------------------------------------------------------
    1      C      -0.2962760000    -8.5177020000     0.1233300000
    2      C       0.6311430000    -7.6415750000    -0.4214940000
    3      S      -1.6287950000    -7.6386340000     0.9116110000
    4      C       0.3050970000    -6.2647850000    -0.2332910000
    5      H       1.5359880000    -7.9660810000    -0.9507370000
    6      C      -0.9311140000    -6.0727140000     0.4785570000
    7      C      -1.4057370000    -4.7870490000     0.7813460000
    8      C       1.0977470000    -5.1628010000    -0.6645420000
    9      C       0.6249930000    -3.8748170000    -0.3578540000
   10      C      -0.6139700000    -3.6839520000     0.3522780000
   11      O       2.2263000000    -5.4997720000    -1.3487090000
   12      O      -2.5388270000    -4.4590550000     1.4696580000
   13      C      -3.6631020000    -5.3290630000     1.4193190000
   14      H      -4.5167560000    -4.7556940000     1.8282370000
   15      H      -3.5207690000    -6.2380950000     2.0437930000
   16      H      -3.8955460000    -5.6372620000     0.3770210000
   17      C       3.2984920000    -4.5722610000    -1.4633510000
   18      H       4.1529450000    -5.1397430000    -1.8782370000
   19      H       3.5858040000    -4.1531310000    -0.4751760000
   20      H       3.0582300000    -3.7395310000    -2.1594690000
   21      C      -0.9357610000    -2.3066540000     0.5406640000
   22      S       1.3305500000    -2.3065010000    -0.7808080000
   23      C       0.0000000000    -1.4351850000     0.0000000000
   24      H      -1.8407800000    -1.9781380000     1.0669460000
   25      H      -0.2964940000    -9.6140330000     0.1275750000
   26      C       0.0000000000     0.0000000000     0.0000000000
   27      S       0.5819340000     0.6927850000     1.5075410000
   28      C       1.5921550000     1.8979150000     0.7188730000
   29      C       0.5819440000     0.6923630000    -1.0678720000
   30      C       1.4737410000     1.7587640000    -0.6864100000
   31      S       0.4275600000     0.5039420000    -2.8055160000
   32      C       1.5492780000     1.8493570000    -3.0545300000
   33      C       2.0026900000     2.3935290000    -1.8625510000
   34      F       2.8581910000     3.4205490000    -1.8190880000
   35      C       1.8387100000     2.1913480000    -4.4560840000
   36      O       1.3499770000     1.5964810000    -5.4065100000
   37      O       2.7010910000     3.2307050000    -4.5692250000
   38      C       3.0233270000     3.6066050000    -5.9162070000
   39      H       3.7257030000     4.4545340000    -5.8330640000
   40      H       2.1120720000     3.9100350000    -6.4701680000
   41      H       3.4952810000     2.7629960000    -6.4592930000
   42      H       2.1851740000     2.6068460000     1.3064860000
 ----------------------------------------------------------------

   10   -2754.2870498882      8.20e-07  Convergence criterion met
 Total energy in the final basis set =    -2754.2870498882
        RIMP2         total energy =     -2759.3446930550 a.u.

                    Orbital Energies (a.u.)
 --------------------------------------------------------------

 Alpha MOs
 -- Occupied --
-92.0144 -92.0018 -91.9858 -91.9851 -26.3441 -20.6150 -20.5913 -20.5899
-20.5614 -11.4097 -11.3837 -11.3203 -11.3176 -11.3151 -11.3076 -11.2977
-11.2904 -11.2890 -11.2863 -11.2861 -11.2853 -11.2845 -11.2829 -11.2825
-11.2781 -11.2581 -11.2566 -11.2489 -11.2489  -9.0131  -9.0017  -8.9863
 -8.9850  -6.6938  -6.6930  -6.6926  -6.6827  -6.6819  -6.6809  -6.6673
 -6.6666  -6.6660  -6.6656  -6.6654  -6.6645  -1.6612  -1.4675  -1.4153
 -1.4127  -1.3702  -1.2258  -1.1920  -1.1640  -1.1373  -1.0840  -1.0501
 -1.0425  -1.0242  -0.9996  -0.9866  -0.9638  -0.9582  -0.9493  -0.9392
 -0.8943  -0.8689  -0.8472  -0.8134  -0.7927  -0.7860  -0.7841  -0.7641
 -0.7554  -0.7321  -0.7261  -0.7105  -0.6989  -0.6855  -0.6822  -0.6807
 -0.6741  -0.6586  -0.6578  -0.6516  -0.6291  -0.6188  -0.6163  -0.6066
 -0.5985  -0.5851  -0.5764  -0.5682  -0.5646  -0.5617  -0.5545  -0.5439
 -0.5319  -0.5306  -0.5221  -0.5154  -0.5145  -0.5086  -0.5057  -0.4957
 -0.4881  -0.4815  -0.4750  -0.4736  -0.4684  -0.4642  -0.4590  -0.4074
 -0.3991  -0.3829  -0.3540  -0.3509  -0.3214  -0.2927  -0.2547

          Ground-State Mulliken Net Atomic Charges

     Atom                 Charge (a.u.)
  ----------------------------------------
      1 C                    -0.191614
      2 C                    -0.254100
      3 S                    -0.024919
      4 C                    -0.017590
      5 H                     0.195900
      6 C                    -0.025411
      7 C                     0.233534
      8 C                     0.240493
      9 C                    -0.043866
     10 C                    -0.008296
     11 O                    -0.333423
     12 O                    -0.340301
     13 C                    -0.085646
     14 H                     0.121983
     15 H                     0.090630
     16 H                     0.093799
     17 C                    -0.087700
     18 H                     0.125069
     19 H                     0.093841
     20 H                     0.090397
     21 C                    -0.258979
     22 S                    -0.010536
     23 C                    -0.026025
     24 H                     0.195043
     25 H                     0.205783
     26 C                    -0.038025
     27 S                     0.122810
     28 C                    -0.166247
     29 C                    -0.062532
     30 C                    -0.074415
     31 S                     0.047588
     32 C                    -0.150546
     33 C                     0.394057
     34 F                    -0.206160
     35 C                     0.446433
     36 O                    -0.461404
     37 O                    -0.301001
     38 C                    -0.058328
     39 H                     0.121364
     40 H                     0.095292
     41 H                     0.095055
     42 H                     0.217997
  ----------------------------------------
  Sum of atomic charges =     0.000000

                    Cartesian Multipole Moments
 -----------------------------------------------------------------
    Charge (ESU x 10^10)
                 0.0000
    Dipole Moment (Debye)
         X       2.2987      Y       1.4466      Z       2.4873
       Tot       3.6829
    Quadrupole Moments (Debye-Ang)
        XX    -172.3789     XY       8.8588     YY    -169.6976
        XZ     -11.4459     YZ      -4.1698     ZZ    -203.4716

 Total job time:  329.86s(wall), 10132.41s(cpu)
        *  Thank you very much for using Q-Chem.  Have a nice day.  *
