 Q-Chem 5.4, Q-Chem, Inc., Pleasanton, CA (2021)
 Q-Chem 5.4.0 for Intel X86 EM64T Linux

User input:
--------------------------------------------------------------
$molecule
0 1
C	-0.236226	-8.517702	0.217225
C	0.448921	-7.641575	-0.611939
S	-1.218777	-7.638634	1.413715
C	0.206907	-6.264785	-0.323572
H	1.118185	-7.966081	-1.418739
C	-0.711285	-6.072714	0.768156
C	-1.053725	-4.787049	1.215016
C	0.804258	-5.162801	-0.999917
C	0.464908	-3.874817	-0.550033
C	-0.456457	-3.683952	0.541024
O	1.630752	-5.499772	-2.028811
O	-1.883064	-4.459055	2.249357
C	-2.956754	-5.329063	2.586579
H	-3.619069	-4.755694	3.262802
H	-2.609423	-6.238095	3.124711
H	-3.531667	-5.637262	1.686639
C	2.599073	-4.572261	-2.503251
H	3.260097	-5.139743	-3.185356
H	3.207034	-4.153131	-1.672937
H	2.135214	-3.739531	-3.075213
C	-0.694410	-2.306654	0.828107
S	0.983256	-2.306501	-1.188794
C	-0.000000	-1.435185	-0.000000
H	-1.364851	-1.978138	1.632185
H	-0.234980	-9.614033	0.221288
C	0.000000	0.000000	0.000000
S	0.452792	0.783312	1.507541
C	1.238397	2.145556	0.718873
C	0.452875	0.782898	-1.067872
C	1.145945	1.987956	-0.686410
S	0.333556	0.570531	-2.805516
C	1.204604	2.090290	-3.054530
C	1.556633	2.704929	-1.862551
F	2.220797	3.864903	-1.819088
C	1.430252	2.477345	-4.456084
O	1.052242	1.806648	-5.406510
O	2.099050	3.650663	-4.569225
C	2.351116	4.076808	-5.916207
H	2.895579	5.033821	-5.833064
H	1.401015	4.217390	-6.470168
H	2.962391	3.327969	-6.459293
H	1.699302	2.946693	1.306486
$end

$rem
JOBTYPE		SP
EXCHANGE	HF
CORRELATION	pRIMP2
BASIS		cc-pvtz
METHOD		rimp2
AUX_BASIS	rimp2-cc-pvtz
SOLVENT_METHOD	PCM
PURECART	11111
SYMMETRY	false
MEM_TOTAL	110000
SCF_CONVERGENCE = 6
THRESH=10
GUI = 2
$end

$solvent
dielectric 4.90
$end
--------------------------------------------------------------

             Standard Nuclear Orientation (Angstroms)
    I     Atom           X                Y                Z
 ----------------------------------------------------------------
    1      C      -0.2362260000    -8.5177020000     0.2172250000
    2      C       0.4489210000    -7.6415750000    -0.6119390000
    3      S      -1.2187770000    -7.6386340000     1.4137150000
    4      C       0.2069070000    -6.2647850000    -0.3235720000
    5      H       1.1181850000    -7.9660810000    -1.4187390000
    6      C      -0.7112850000    -6.0727140000     0.7681560000
    7      C      -1.0537250000    -4.7870490000     1.2150160000
    8      C       0.8042580000    -5.1628010000    -0.9999170000
    9      C       0.4649080000    -3.8748170000    -0.5500330000
   10      C      -0.4564570000    -3.6839520000     0.5410240000
   11      O       1.6307520000    -5.4997720000    -2.0288110000
   12      O      -1.8830640000    -4.4590550000     2.2493570000
   13      C      -2.9567540000    -5.3290630000     2.5865790000
   14      H      -3.6190690000    -4.7556940000     3.2628020000
   15      H      -2.6094230000    -6.2380950000     3.1247110000
   16      H      -3.5316670000    -5.6372620000     1.6866390000
   17      C       2.5990730000    -4.5722610000    -2.5032510000
   18      H       3.2600970000    -5.1397430000    -3.1853560000
   19      H       3.2070340000    -4.1531310000    -1.6729370000
   20      H       2.1352140000    -3.7395310000    -3.0752130000
   21      C      -0.6944100000    -2.3066540000     0.8281070000
   22      S       0.9832560000    -2.3065010000    -1.1887940000
   23      C       0.0000000000    -1.4351850000     0.0000000000
   24      H      -1.3648510000    -1.9781380000     1.6321850000
   25      H      -0.2349800000    -9.6140330000     0.2212880000
   26      C       0.0000000000     0.0000000000     0.0000000000
   27      S       0.4527920000     0.7833120000     1.5075410000
   28      C       1.2383970000     2.1455560000     0.7188730000
   29      C       0.4528750000     0.7828980000    -1.0678720000
   30      C       1.1459450000     1.9879560000    -0.6864100000
   31      S       0.3335560000     0.5705310000    -2.8055160000
   32      C       1.2046040000     2.0902900000    -3.0545300000
   33      C       1.5566330000     2.7049290000    -1.8625510000
   34      F       2.2207970000     3.8649030000    -1.8190880000
   35      C       1.4302520000     2.4773450000    -4.4560840000
   36      O       1.0522420000     1.8066480000    -5.4065100000
   37      O       2.0990500000     3.6506630000    -4.5692250000
   38      C       2.3511160000     4.0768080000    -5.9162070000
   39      H       2.8955790000     5.0338210000    -5.8330640000
   40      H       1.4010150000     4.2173900000    -6.4701680000
   41      H       2.9623910000     3.3279690000    -6.4592930000
   42      H       1.6993020000     2.9466930000     1.3064860000
 ----------------------------------------------------------------

   10   -2754.2992066444      7.51e-07  Convergence criterion met
 Total energy in the final basis set =    -2754.2992066444
        RIMP2         total energy =     -2759.3554147447 a.u.

                    Orbital Energies (a.u.)
 --------------------------------------------------------------

 Alpha MOs
 -- Occupied --
-92.0149 -92.0001 -91.9879 -91.9854 -26.3436 -20.6149 -20.5917 -20.5903
-20.5613 -11.4095 -11.3829 -11.3185 -11.3155 -11.3155 -11.3043 -11.2974
-11.2941 -11.2925 -11.2889 -11.2863 -11.2858 -11.2856 -11.2836 -11.2831
-11.2783 -11.2597 -11.2569 -11.2508 -11.2492  -9.0136  -9.0001  -8.9884
 -8.9854  -6.6943  -6.6936  -6.6931  -6.6811  -6.6804  -6.6793  -6.6694
 -6.6687  -6.6677  -6.6664  -6.6657  -6.6649  -1.6607  -1.4674  -1.4157
 -1.4131  -1.3701  -1.2241  -1.1929  -1.1646  -1.1368  -1.0848  -1.0508
 -1.0419  -1.0241  -1.0006  -0.9871  -0.9640  -0.9580  -0.9494  -0.9400
 -0.8948  -0.8684  -0.8491  -0.8142  -0.7923  -0.7864  -0.7847  -0.7645
 -0.7553  -0.7327  -0.7256  -0.7102  -0.6987  -0.6855  -0.6825  -0.6813
 -0.6740  -0.6586  -0.6578  -0.6518  -0.6297  -0.6191  -0.6163  -0.6052
 -0.5981  -0.5832  -0.5780  -0.5684  -0.5657  -0.5597  -0.5559  -0.5501
 -0.5322  -0.5300  -0.5233  -0.5163  -0.5153  -0.5091  -0.5070  -0.4961
 -0.4876  -0.4805  -0.4757  -0.4738  -0.4699  -0.4634  -0.4588  -0.4171
 -0.3971  -0.3834  -0.3557  -0.3511  -0.3249  -0.2891  -0.2519

          Ground-State Mulliken Net Atomic Charges

     Atom                 Charge (a.u.)
  ----------------------------------------
      1 C                    -0.191702
      2 C                    -0.253795
      3 S                    -0.024511
      4 C                    -0.018646
      5 H                     0.196122
      6 C                    -0.024470
      7 C                     0.231997
      8 C                     0.241867
      9 C                    -0.045446
     10 C                    -0.004006
     11 O                    -0.333182
     12 O                    -0.340541
     13 C                    -0.085651
     14 H                     0.121983
     15 H                     0.090750
     16 H                     0.093838
     17 C                    -0.088903
     18 H                     0.125484
     19 H                     0.094156
     20 H                     0.091090
     21 C                    -0.274529
     22 S                    -0.016082
     23 C                     0.004405
     24 H                     0.193642
     25 H                     0.205895
     26 C                     0.006039
     27 S                     0.119975
     28 C                    -0.185860
     29 C                    -0.074839
     30 C                    -0.079426
     31 S                     0.033486
     32 C                    -0.157263
     33 C                     0.401792
     34 F                    -0.206839
     35 C                     0.444487
     36 O                    -0.461192
     37 O                    -0.300879
     38 C                    -0.058392
     39 H                     0.121446
     40 H                     0.095233
     41 H                     0.095007
     42 H                     0.217465
  ----------------------------------------
  Sum of atomic charges =     0.000000

                    Cartesian Multipole Moments
 -----------------------------------------------------------------
    Charge (ESU x 10^10)
                -0.0000
    Dipole Moment (Debye)
         X       1.5796      Y       1.4281      Z       2.5319
       Tot       3.3084
    Quadrupole Moments (Debye-Ang)
        XX    -181.9136     XY       7.9471     YY    -166.5129
        XZ     -15.6494     YZ      -5.0999     ZZ    -196.9628

 Total job time:  288.89s(wall), 9128.81s(cpu)
        *  Thank you very much for using Q-Chem.  Have a nice day.  *
