 Q-Chem 5.4, Q-Chem, Inc., Pleasanton, CA (2021)
 Q-Chem 5.4.0 for Intel X86 EM64T Linux

User input:
--------------------------------------------------------------
$molecule
0 1
C	-0.318247	-8.517702	-0.041330
C	0.757333	-7.641575	-0.049453
S	-1.866383	-7.638634	-0.024919
C	0.380867	-6.264785	-0.049488
H	1.805573	-7.966081	-0.055368
C	-1.045647	-6.072714	-0.051115
C	-1.608077	-4.787049	-0.026203
C	1.282948	-5.162801	-0.026637
C	0.720187	-3.874817	0.002586
C	-0.707853	-3.683952	-0.001903
O	2.602386	-5.499772	-0.054867
O	-2.933517	-4.459055	0.003348
C	-3.881999	-5.329063	-0.602384
H	-4.825744	-4.755694	-0.675079
H	-4.070972	-6.238095	0.009592
H	-3.562152	-5.637262	-1.621263
C	3.588253	-4.572261	0.381947
H	4.535674	-5.139743	0.449872
H	3.342986	-4.153131	1.381388
H	3.728239	-3.739531	-0.341040
C	-1.080725	-2.306654	0.000348
S	1.542694	-2.306501	-0.010924
C	-0.000000	-1.435185	-0.000000
H	-2.127635	-1.978138	0.003612
H	-0.320559	-9.614033	-0.037764
C	0.000000	0.000000	0.000000
S	0.382799	0.819795	1.507541
C	1.046687	2.245325	0.718873
C	0.382918	0.819389	-1.067872
C	0.968323	2.080267	-0.686410
S	0.282561	0.597432	-2.805516
C	1.017839	2.187324	-3.054530
C	1.314960	2.830306	-1.862551
F	1.875498	4.043751	-1.819088
C	1.208895	2.592573	-4.456084
O	0.890778	1.891482	-5.406510
O	1.772886	3.819715	-4.569225
C	1.986852	4.266207	-5.916207
H	2.445834	5.267032	-5.833064
H	1.028114	4.323448	-6.470168
H	2.661066	3.573494	-6.459293
H	1.436015	3.083584	1.306486
$end

$rem
JOBTYPE		SP
EXCHANGE	HF
CORRELATION	pRIMP2
BASIS		cc-pvtz
METHOD		rimp2
AUX_BASIS	rimp2-cc-pvtz
SOLVENT_METHOD	PCM
PURECART	11111
SYMMETRY	false
MEM_TOTAL	110000
SCF_CONVERGENCE = 6
THRESH=10
GUI = 2
$end

$solvent
dielectric 4.90
$end
--------------------------------------------------------------

             Standard Nuclear Orientation (Angstroms)
    I     Atom           X                Y                Z
 ----------------------------------------------------------------
    1      C      -0.3182470000    -8.5177020000    -0.0413300000
    2      C       0.7573330000    -7.6415750000    -0.0494530000
    3      S      -1.8663830000    -7.6386340000    -0.0249190000
    4      C       0.3808670000    -6.2647850000    -0.0494880000
    5      H       1.8055730000    -7.9660810000    -0.0553680000
    6      C      -1.0456470000    -6.0727140000    -0.0511150000
    7      C      -1.6080770000    -4.7870490000    -0.0262030000
    8      C       1.2829480000    -5.1628010000    -0.0266370000
    9      C       0.7201870000    -3.8748170000     0.0025860000
   10      C      -0.7078530000    -3.6839520000    -0.0019030000
   11      O       2.6023860000    -5.4997720000    -0.0548670000
   12      O      -2.9335170000    -4.4590550000     0.0033480000
   13      C      -3.8819990000    -5.3290630000    -0.6023840000
   14      H      -4.8257440000    -4.7556940000    -0.6750790000
   15      H      -4.0709720000    -6.2380950000     0.0095920000
   16      H      -3.5621520000    -5.6372620000    -1.6212630000
   17      C       3.5882530000    -4.5722610000     0.3819470000
   18      H       4.5356740000    -5.1397430000     0.4498720000
   19      H       3.3429860000    -4.1531310000     1.3813880000
   20      H       3.7282390000    -3.7395310000    -0.3410400000
   21      C      -1.0807250000    -2.3066540000     0.0003480000
   22      S       1.5426940000    -2.3065010000    -0.0109240000
   23      C       0.0000000000    -1.4351850000     0.0000000000
   24      H      -2.1276350000    -1.9781380000     0.0036120000
   25      H      -0.3205590000    -9.6140330000    -0.0377640000
   26      C       0.0000000000     0.0000000000     0.0000000000
   27      S       0.3827990000     0.8197950000     1.5075410000
   28      C       1.0466870000     2.2453250000     0.7188730000
   29      C       0.3829180000     0.8193890000    -1.0678720000
   30      C       0.9683230000     2.0802670000    -0.6864100000
   31      S       0.2825610000     0.5974320000    -2.8055160000
   32      C       1.0178390000     2.1873240000    -3.0545300000
   33      C       1.3149600000     2.8303060000    -1.8625510000
   34      F       1.8754980000     4.0437510000    -1.8190880000
   35      C       1.2088950000     2.5925730000    -4.4560840000
   36      O       0.8907780000     1.8914820000    -5.4065100000
   37      O       1.7728860000     3.8197150000    -4.5692250000
   38      C       1.9868520000     4.2662070000    -5.9162070000
   39      H       2.4458340000     5.2670320000    -5.8330640000
   40      H       1.0281140000     4.3234480000    -6.4701680000
   41      H       2.6610660000     3.5734940000    -6.4592930000
   42      H       1.4360150000     3.0835840000     1.3064860000
 ----------------------------------------------------------------

   10   -2754.3039919317      7.55e-07  Convergence criterion met
 Total energy in the final basis set =    -2754.3039919317
        RIMP2         total energy =     -2759.3556749341 a.u.

                    Orbital Energies (a.u.)
 --------------------------------------------------------------

 Alpha MOs
 -- Occupied --
-92.0138 -91.9984 -91.9877 -91.9862 -26.3431 -20.6143 -20.5920 -20.5913
-20.5606 -11.4088 -11.3822 -11.3186 -11.3178 -11.3130 -11.3030 -11.2965
-11.2912 -11.2898 -11.2885 -11.2869 -11.2859 -11.2855 -11.2839 -11.2835
-11.2798 -11.2592 -11.2589 -11.2556 -11.2498  -9.0123  -8.9984  -8.9881
 -8.9861  -6.6930  -6.6924  -6.6919  -6.6794  -6.6787  -6.6776  -6.6690
 -6.6683  -6.6674  -6.6671  -6.6665  -6.6656  -1.6602  -1.4668  -1.4161
 -1.4141  -1.3694  -1.2215  -1.1936  -1.1647  -1.1356  -1.0838  -1.0514
 -1.0411  -1.0221  -1.0010  -0.9871  -0.9617  -0.9602  -0.9501  -0.9384
 -0.8954  -0.8672  -0.8498  -0.8100  -0.7927  -0.7881  -0.7858  -0.7646
 -0.7549  -0.7334  -0.7250  -0.7094  -0.7003  -0.6847  -0.6827  -0.6803
 -0.6735  -0.6589  -0.6573  -0.6524  -0.6299  -0.6198  -0.6171  -0.6054
 -0.5976  -0.5860  -0.5769  -0.5687  -0.5656  -0.5610  -0.5552  -0.5453
 -0.5335  -0.5306  -0.5230  -0.5155  -0.5147  -0.5091  -0.5036  -0.4943
 -0.4895  -0.4800  -0.4743  -0.4731  -0.4686  -0.4666  -0.4612  -0.4043
 -0.3971  -0.3865  -0.3561  -0.3497  -0.3124  -0.3001  -0.2591

          Ground-State Mulliken Net Atomic Charges

     Atom                 Charge (a.u.)
  ----------------------------------------
      1 C                    -0.187908
      2 C                    -0.254834
      3 S                    -0.022640
      4 C                    -0.013238
      5 H                     0.196409
      6 C                    -0.028751
      7 C                     0.243866
      8 C                     0.239634
      9 C                    -0.041672
     10 C                    -0.024189
     11 O                    -0.333325
     12 O                    -0.339638
     13 C                    -0.085739
     14 H                     0.122635
     15 H                     0.090807
     16 H                     0.094330
     17 C                    -0.086455
     18 H                     0.124805
     19 H                     0.094029
     20 H                     0.090218
     21 C                    -0.216045
     22 S                     0.000230
     23 C                    -0.075989
     24 H                     0.197620
     25 H                     0.206410
     26 C                    -0.009970
     27 S                     0.110790
     28 C                    -0.181257
     29 C                    -0.027861
     30 C                    -0.082948
     31 S                     0.016563
     32 C                    -0.153810
     33 C                     0.389816
     34 F                    -0.206464
     35 C                     0.446690
     36 O                    -0.461407
     37 O                    -0.301001
     38 C                    -0.058420
     39 H                     0.121201
     40 H                     0.095069
     41 H                     0.095015
     42 H                     0.217425
  ----------------------------------------
  Sum of atomic charges =     0.000000

                    Cartesian Multipole Moments
 -----------------------------------------------------------------
    Charge (ESU x 10^10)
                 0.0000
    Dipole Moment (Debye)
         X       1.3359      Y       0.9601      Z       2.7254
       Tot       3.1834
    Quadrupole Moments (Debye-Ang)
        XX    -175.4229     XY       6.6279     YY    -162.6434
        XZ       2.6609     YZ      -5.1577     ZZ    -205.0934

 Total job time:  313.82s(wall), 10205.16s(cpu)
        *  Thank you very much for using Q-Chem.  Have a nice day.  *
