 Q-Chem 5.4, Q-Chem, Inc., Pleasanton, CA (2021)
 Q-Chem 5.4.0 for Intel X86 EM64T Linux

User input:
--------------------------------------------------------------
$molecule
0 1
C	0.217225	-8.517702	0.236226
C	-0.611939	-7.641575	-0.448921
S	1.413715	-7.638634	1.218777
C	-0.323572	-6.264785	-0.206907
H	-1.418739	-7.966081	-1.118185
C	0.768156	-6.072714	0.711285
C	1.215016	-4.787049	1.053725
C	-0.999917	-5.162801	-0.804258
C	-0.550033	-3.874817	-0.464908
C	0.541024	-3.683952	0.456457
O	-2.028811	-5.499772	-1.630752
O	2.249357	-4.459055	1.883064
C	2.586579	-5.329063	2.956754
H	3.262802	-4.755694	3.619069
H	3.124711	-6.238095	2.609423
H	1.686639	-5.637262	3.531667
C	-2.503251	-4.572261	-2.599073
H	-3.185356	-5.139743	-3.260097
H	-1.672937	-4.153131	-3.207034
H	-3.075213	-3.739531	-2.135214
C	0.828107	-2.306654	0.694410
S	-1.188794	-2.306501	-0.983256
C	0.000000	-1.435185	0.000000
H	1.632185	-1.978138	1.364851
H	0.221288	-9.614033	0.234980
C	0.000000	0.000000	0.000000
S	0.693394	0.581209	1.507541
C	1.897536	1.592607	0.718873
C	0.693330	0.580791	-1.067872
C	1.756758	1.476132	-0.686410
S	0.508573	0.422041	-2.805516
C	1.846879	1.552232	-3.054530
C	2.387897	2.009402	-1.862551
F	3.408741	2.872264	-1.819088
C	2.191300	1.838768	-4.456084
O	1.606694	1.337806	-5.406510
O	3.221062	2.712584	-4.569225
C	3.603677	3.026817	-5.916207
H	4.442623	3.739898	-5.833064
H	2.758956	3.483875	-6.470168
H	3.921969	2.114070	-6.459293
H	2.604650	2.187790	1.306486
$end

$rem
JOBTYPE		SP
EXCHANGE	HF
CORRELATION	pRIMP2
BASIS		cc-pvtz
METHOD		rimp2
AUX_BASIS	rimp2-cc-pvtz
SOLVENT_METHOD	PCM
PURECART	11111
SYMMETRY	false
MEM_TOTAL	110000
SCF_CONVERGENCE = 6
THRESH=10
GUI = 2
$end

$solvent
dielectric 4.90
$end
--------------------------------------------------------------

             Standard Nuclear Orientation (Angstroms)
    I     Atom           X                Y                Z
 ----------------------------------------------------------------
    1      C       0.2172250000    -8.5177020000     0.2362260000
    2      C      -0.6119390000    -7.6415750000    -0.4489210000
    3      S       1.4137150000    -7.6386340000     1.2187770000
    4      C      -0.3235720000    -6.2647850000    -0.2069070000
    5      H      -1.4187390000    -7.9660810000    -1.1181850000
    6      C       0.7681560000    -6.0727140000     0.7112850000
    7      C       1.2150160000    -4.7870490000     1.0537250000
    8      C      -0.9999170000    -5.1628010000    -0.8042580000
    9      C      -0.5500330000    -3.8748170000    -0.4649080000
   10      C       0.5410240000    -3.6839520000     0.4564570000
   11      O      -2.0288110000    -5.4997720000    -1.6307520000
   12      O       2.2493570000    -4.4590550000     1.8830640000
   13      C       2.5865790000    -5.3290630000     2.9567540000
   14      H       3.2628020000    -4.7556940000     3.6190690000
   15      H       3.1247110000    -6.2380950000     2.6094230000
   16      H       1.6866390000    -5.6372620000     3.5316670000
   17      C      -2.5032510000    -4.5722610000    -2.5990730000
   18      H      -3.1853560000    -5.1397430000    -3.2600970000
   19      H      -1.6729370000    -4.1531310000    -3.2070340000
   20      H      -3.0752130000    -3.7395310000    -2.1352140000
   21      C       0.8281070000    -2.3066540000     0.6944100000
   22      S      -1.1887940000    -2.3065010000    -0.9832560000
   23      C       0.0000000000    -1.4351850000     0.0000000000
   24      H       1.6321850000    -1.9781380000     1.3648510000
   25      H       0.2212880000    -9.6140330000     0.2349800000
   26      C       0.0000000000     0.0000000000     0.0000000000
   27      S       0.6933940000     0.5812090000     1.5075410000
   28      C       1.8975360000     1.5926070000     0.7188730000
   29      C       0.6933300000     0.5807910000    -1.0678720000
   30      C       1.7567580000     1.4761320000    -0.6864100000
   31      S       0.5085730000     0.4220410000    -2.8055160000
   32      C       1.8468790000     1.5522320000    -3.0545300000
   33      C       2.3878970000     2.0094020000    -1.8625510000
   34      F       3.4087410000     2.8722640000    -1.8190880000
   35      C       2.1913000000     1.8387680000    -4.4560840000
   36      O       1.6066940000     1.3378060000    -5.4065100000
   37      O       3.2210620000     2.7125840000    -4.5692250000
   38      C       3.6036770000     3.0268170000    -5.9162070000
   39      H       4.4426230000     3.7398980000    -5.8330640000
   40      H       2.7589560000     3.4838750000    -6.4701680000
   41      H       3.9219690000     2.1140700000    -6.4592930000
   42      H       2.6046500000     2.1877900000     1.3064860000
 ----------------------------------------------------------------

   10   -2754.2721645143      8.83e-07  Convergence criterion met
 Total energy in the final basis set =    -2754.2721645143
        RIMP2         total energy =     -2759.3324515719 a.u.

                    Orbital Energies (a.u.)
 --------------------------------------------------------------

 Alpha MOs
 -- Occupied --
-92.0144 -92.0064 -91.9845 -91.9840 -26.3454 -20.6151 -20.5908 -20.5885
-20.5615 -11.4100 -11.3856 -11.3279 -11.3173 -11.3171 -11.3121 -11.2976
-11.2964 -11.2891 -11.2874 -11.2855 -11.2849 -11.2817 -11.2805 -11.2795
-11.2760 -11.2578 -11.2539 -11.2481 -11.2436  -9.0135  -9.0061  -8.9852
 -8.9839  -6.6941  -6.6933  -6.6930  -6.6870  -6.6863  -6.6853  -6.6661
 -6.6654  -6.6649  -6.6645  -6.6643  -6.6634  -1.6624  -1.4677  -1.4147
 -1.4114  -1.3704  -1.2300  -1.1910  -1.1645  -1.1389  -1.0845  -1.0487
 -1.0446  -1.0261  -0.9980  -0.9870  -0.9650  -0.9571  -0.9483  -0.9406
 -0.8927  -0.8706  -0.8450  -0.8163  -0.7935  -0.7854  -0.7844  -0.7633
 -0.7556  -0.7309  -0.7272  -0.7121  -0.6986  -0.6859  -0.6826  -0.6802
 -0.6743  -0.6594  -0.6570  -0.6508  -0.6291  -0.6179  -0.6149  -0.6061
 -0.6014  -0.5902  -0.5757  -0.5671  -0.5655  -0.5653  -0.5533  -0.5485
 -0.5315  -0.5236  -0.5207  -0.5143  -0.5131  -0.5118  -0.5036  -0.4925
 -0.4883  -0.4820  -0.4753  -0.4733  -0.4681  -0.4619  -0.4572  -0.4157
 -0.3908  -0.3851  -0.3627  -0.3443  -0.3201  -0.2968  -0.2512

          Ground-State Mulliken Net Atomic Charges

     Atom                 Charge (a.u.)
  ----------------------------------------
      1 C                    -0.196171
      2 C                    -0.253175
      3 S                    -0.027524
      4 C                    -0.020889
      5 H                     0.195583
      6 C                    -0.025494
      7 C                     0.231009
      8 C                     0.244712
      9 C                    -0.041778
     10 C                    -0.013367
     11 O                    -0.333513
     12 O                    -0.342038
     13 C                    -0.085661
     14 H                     0.121110
     15 H                     0.090632
     16 H                     0.092988
     17 C                    -0.087265
     18 H                     0.124540
     19 H                     0.095031
     20 H                     0.089601
     21 C                    -0.280233
     22 S                    -0.027004
     23 C                     0.004644
     24 H                     0.193143
     25 H                     0.205014
     26 C                    -0.110066
     27 S                     0.105822
     28 C                    -0.140728
     29 C                     0.065067
     30 C                    -0.108772
     31 S                     0.042480
     32 C                    -0.152905
     33 C                     0.391665
     34 F                    -0.204598
     35 C                     0.447960
     36 O                    -0.462329
     37 O                    -0.301333
     38 C                    -0.058276
     39 H                     0.121400
     40 H                     0.095122
     41 H                     0.095291
     42 H                     0.220307
  ----------------------------------------
  Sum of atomic charges =     0.000000

                    Cartesian Multipole Moments
 -----------------------------------------------------------------
    Charge (ESU x 10^10)
                -0.0000
    Dipole Moment (Debye)
         X       2.5454      Y       1.9737      Z       2.6281
       Tot       4.1571
    Quadrupole Moments (Debye-Ang)
        XX    -183.3762     XY      10.2747     YY    -176.5983
        XZ       6.1999     YZ      -5.0475     ZZ    -189.1500

 Total job time:  748.09s(wall), 36303.95s(cpu)
        *  Thank you very much for using Q-Chem.  Have a nice day.  *
