 Q-Chem 5.4, Q-Chem, Inc., Pleasanton, CA (2021)
 Q-Chem 5.4.0 for Intel X86 EM64T Linux

User input:
--------------------------------------------------------------
$molecule
0 1
C	-0.318247	-8.517702	-0.041330
C	0.757333	-7.641575	-0.049453
S	-1.866383	-7.638634	-0.024919
C	0.380867	-6.264785	-0.049488
H	1.805573	-7.966081	-0.055368
C	-1.045647	-6.072714	-0.051115
C	-1.608077	-4.787049	-0.026203
C	1.282948	-5.162801	-0.026637
C	0.720187	-3.874817	0.002586
C	-0.707853	-3.683952	-0.001903
O	2.602386	-5.499772	-0.054867
O	-2.933517	-4.459055	0.003348
C	-3.881999	-5.329063	-0.602384
H	-4.825744	-4.755694	-0.675079
H	-4.070972	-6.238095	0.009592
H	-3.562152	-5.637262	-1.621263
C	3.588253	-4.572261	0.381947
H	4.535674	-5.139743	0.449872
H	3.342986	-4.153131	1.381388
H	3.728239	-3.739531	-0.341040
C	-1.080725	-2.306654	0.000348
S	1.542694	-2.306501	-0.010924
C	-0.000000	-1.435185	-0.000000
H	-2.127635	-1.978138	0.003612
H	-0.320559	-9.614033	-0.037764
C	0.000000	0.000000	0.000000
S	0.581934	0.692785	1.507541
C	1.592155	1.897915	0.718873
C	0.581944	0.692363	-1.067872
C	1.473741	1.758764	-0.686410
S	0.427560	0.503942	-2.805516
C	1.549278	1.849357	-3.054530
C	2.002690	2.393529	-1.862551
F	2.858191	3.420549	-1.819088
C	1.838710	2.191348	-4.456084
O	1.349977	1.596481	-5.406510
O	2.701091	3.230705	-4.569225
C	3.023327	3.606605	-5.916207
H	3.725703	4.454534	-5.833064
H	2.112072	3.910035	-6.470168
H	3.495281	2.762996	-6.459293
H	2.185174	2.606846	1.306486
$end

$rem
JOBTYPE		SP
EXCHANGE	HF
CORRELATION	pRIMP2
BASIS		cc-pvtz
METHOD		rimp2
AUX_BASIS	rimp2-cc-pvtz
SOLVENT_METHOD	PCM
PURECART	11111
SYMMETRY	false
MEM_TOTAL	110000
SCF_CONVERGENCE = 6
THRESH=10
GUI = 2
$end

$solvent
dielectric 4.90
$end
--------------------------------------------------------------

             Standard Nuclear Orientation (Angstroms)
    I     Atom           X                Y                Z
 ----------------------------------------------------------------
    1      C      -0.3182470000    -8.5177020000    -0.0413300000
    2      C       0.7573330000    -7.6415750000    -0.0494530000
    3      S      -1.8663830000    -7.6386340000    -0.0249190000
    4      C       0.3808670000    -6.2647850000    -0.0494880000
    5      H       1.8055730000    -7.9660810000    -0.0553680000
    6      C      -1.0456470000    -6.0727140000    -0.0511150000
    7      C      -1.6080770000    -4.7870490000    -0.0262030000
    8      C       1.2829480000    -5.1628010000    -0.0266370000
    9      C       0.7201870000    -3.8748170000     0.0025860000
   10      C      -0.7078530000    -3.6839520000    -0.0019030000
   11      O       2.6023860000    -5.4997720000    -0.0548670000
   12      O      -2.9335170000    -4.4590550000     0.0033480000
   13      C      -3.8819990000    -5.3290630000    -0.6023840000
   14      H      -4.8257440000    -4.7556940000    -0.6750790000
   15      H      -4.0709720000    -6.2380950000     0.0095920000
   16      H      -3.5621520000    -5.6372620000    -1.6212630000
   17      C       3.5882530000    -4.5722610000     0.3819470000
   18      H       4.5356740000    -5.1397430000     0.4498720000
   19      H       3.3429860000    -4.1531310000     1.3813880000
   20      H       3.7282390000    -3.7395310000    -0.3410400000
   21      C      -1.0807250000    -2.3066540000     0.0003480000
   22      S       1.5426940000    -2.3065010000    -0.0109240000
   23      C       0.0000000000    -1.4351850000     0.0000000000
   24      H      -2.1276350000    -1.9781380000     0.0036120000
   25      H      -0.3205590000    -9.6140330000    -0.0377640000
   26      C       0.0000000000     0.0000000000     0.0000000000
   27      S       0.5819340000     0.6927850000     1.5075410000
   28      C       1.5921550000     1.8979150000     0.7188730000
   29      C       0.5819440000     0.6923630000    -1.0678720000
   30      C       1.4737410000     1.7587640000    -0.6864100000
   31      S       0.4275600000     0.5039420000    -2.8055160000
   32      C       1.5492780000     1.8493570000    -3.0545300000
   33      C       2.0026900000     2.3935290000    -1.8625510000
   34      F       2.8581910000     3.4205490000    -1.8190880000
   35      C       1.8387100000     2.1913480000    -4.4560840000
   36      O       1.3499770000     1.5964810000    -5.4065100000
   37      O       2.7010910000     3.2307050000    -4.5692250000
   38      C       3.0233270000     3.6066050000    -5.9162070000
   39      H       3.7257030000     4.4545340000    -5.8330640000
   40      H       2.1120720000     3.9100350000    -6.4701680000
   41      H       3.4952810000     2.7629960000    -6.4592930000
   42      H       2.1851740000     2.6068460000     1.3064860000
 ----------------------------------------------------------------

   10   -2754.2871247062      8.62e-07  Convergence criterion met
 Total energy in the final basis set =    -2754.2871247062
        RIMP2         total energy =     -2759.3429330437 a.u.

                    Orbital Energies (a.u.)
 --------------------------------------------------------------

 Alpha MOs
 -- Occupied --
-92.0131 -92.0019 -91.9855 -91.9851 -26.3441 -20.6147 -20.5915 -20.5903
-20.5610 -11.4093 -11.3837 -11.3203 -11.3177 -11.3162 -11.3086 -11.2971
-11.2888 -11.2886 -11.2866 -11.2854 -11.2852 -11.2839 -11.2826 -11.2823
-11.2789 -11.2577 -11.2576 -11.2512 -11.2492  -9.0120  -9.0017  -8.9857
 -8.9854  -6.6926  -6.6919  -6.6915  -6.6827  -6.6820  -6.6809  -6.6667
 -6.6664  -6.6660  -6.6658  -6.6650  -6.6649  -1.6612  -1.4672  -1.4156
 -1.4131  -1.3698  -1.2250  -1.1923  -1.1642  -1.1371  -1.0834  -1.0503
 -1.0426  -1.0234  -0.9998  -0.9866  -0.9625  -0.9597  -0.9497  -0.9384
 -0.8946  -0.8685  -0.8474  -0.8113  -0.7931  -0.7870  -0.7847  -0.7641
 -0.7553  -0.7324  -0.7260  -0.7104  -0.6999  -0.6852  -0.6820  -0.6806
 -0.6739  -0.6584  -0.6580  -0.6518  -0.6292  -0.6191  -0.6167  -0.6065
 -0.5985  -0.5871  -0.5760  -0.5687  -0.5647  -0.5624  -0.5545  -0.5400
 -0.5330  -0.5309  -0.5218  -0.5150  -0.5144  -0.5096  -0.5035  -0.4938
 -0.4889  -0.4814  -0.4743  -0.4735  -0.4679  -0.4657  -0.4605  -0.4035
 -0.3959  -0.3854  -0.3548  -0.3512  -0.3100  -0.3028  -0.2580

          Ground-State Mulliken Net Atomic Charges

     Atom                 Charge (a.u.)
  ----------------------------------------
      1 C                    -0.189802
      2 C                    -0.254671
      3 S                    -0.023770
      4 C                    -0.014984
      5 H                     0.196108
      6 C                    -0.028644
      7 C                     0.241025
      8 C                     0.240466
      9 C                    -0.041295
     10 C                    -0.021838
     11 O                    -0.333527
     12 O                    -0.339692
     13 C                    -0.085734
     14 H                     0.122334
     15 H                     0.090595
     16 H                     0.094013
     17 C                    -0.086484
     18 H                     0.124798
     19 H                     0.093772
     20 H                     0.089869
     21 C                    -0.220519
     22 S                    -0.010078
     23 C                    -0.079179
     24 H                     0.197201
     25 H                     0.206037
     26 C                    -0.039961
     27 S                     0.116238
     28 C                    -0.162061
     29 C                    -0.021266
     30 C                    -0.080798
     31 S                     0.032843
     32 C                    -0.152510
     33 C                     0.390982
     34 F                    -0.205652
     35 C                     0.447654
     36 O                    -0.461723
     37 O                    -0.301129
     38 C                    -0.058325
     39 H                     0.121256
     40 H                     0.095165
     41 H                     0.095108
     42 H                     0.218177
  ----------------------------------------
  Sum of atomic charges =     0.000000

                    Cartesian Multipole Moments
 -----------------------------------------------------------------
    Charge (ESU x 10^10)
                 0.0000
    Dipole Moment (Debye)
         X       2.3234      Y       1.2222      Z       2.5934
       Tot       3.6902
    Quadrupole Moments (Debye-Ang)
        XX    -171.6530     XY       8.5932     YY    -168.1860
        XZ       1.0852     YZ      -4.1488     ZZ    -204.3732

 Total job time:  309.77s(wall), 9957.49s(cpu)
        *  Thank you very much for using Q-Chem.  Have a nice day.  *
