 Q-Chem 5.4, Q-Chem, Inc., Pleasanton, CA (2021)
 Q-Chem 5.4.0 for Intel X86 EM64T Linux

User input:
--------------------------------------------------------------
$molecule
0 1
C	0.318247	-8.517702	0.041330
C	-0.757333	-7.641575	0.049453
S	1.866383	-7.638634	0.024919
C	-0.380867	-6.264785	0.049488
H	-1.805573	-7.966081	0.055368
C	1.045647	-6.072714	0.051115
C	1.608077	-4.787049	0.026203
C	-1.282948	-5.162801	0.026637
C	-0.720187	-3.874817	-0.002586
C	0.707853	-3.683952	0.001903
O	-2.602386	-5.499772	0.054867
O	2.933517	-4.459055	-0.003348
C	3.881999	-5.329063	0.602384
H	4.825744	-4.755694	0.675079
H	4.070972	-6.238095	-0.009592
H	3.562152	-5.637262	1.621263
C	-3.588253	-4.572261	-0.381947
H	-4.535674	-5.139743	-0.449872
H	-3.342986	-4.153131	-1.381388
H	-3.728239	-3.739531	0.341040
C	1.080725	-2.306654	-0.000348
S	-1.542694	-2.306501	0.010924
C	-0.000000	-1.435185	-0.000000
H	2.127635	-1.978138	-0.003612
H	0.320559	-9.614033	0.037764
C	0.000000	0.000000	0.000000
S	0.581934	0.692785	1.507541
C	1.592155	1.897915	0.718873
C	0.581944	0.692363	-1.067872
C	1.473741	1.758764	-0.686410
S	0.427560	0.503942	-2.805516
C	1.549278	1.849357	-3.054530
C	2.002690	2.393529	-1.862551
F	2.858191	3.420549	-1.819088
C	1.838710	2.191348	-4.456084
O	1.349977	1.596481	-5.406510
O	2.701091	3.230705	-4.569225
C	3.023327	3.606605	-5.916207
H	3.725703	4.454534	-5.833064
H	2.112072	3.910035	-6.470168
H	3.495281	2.762996	-6.459293
H	2.185174	2.606846	1.306486
$end

$rem
JOBTYPE		SP
EXCHANGE	HF
CORRELATION	pRIMP2
BASIS		cc-pvtz
METHOD		rimp2
AUX_BASIS	rimp2-cc-pvtz
SOLVENT_METHOD	PCM
PURECART	11111
SYMMETRY	false
MEM_TOTAL	110000
SCF_CONVERGENCE = 6
THRESH=10
GUI = 2
$end

$solvent
dielectric 4.90
$end
--------------------------------------------------------------

             Standard Nuclear Orientation (Angstroms)
    I     Atom           X                Y                Z
 ----------------------------------------------------------------
    1      C       0.3182470000    -8.5177020000     0.0413300000
    2      C      -0.7573330000    -7.6415750000     0.0494530000
    3      S       1.8663830000    -7.6386340000     0.0249190000
    4      C      -0.3808670000    -6.2647850000     0.0494880000
    5      H      -1.8055730000    -7.9660810000     0.0553680000
    6      C       1.0456470000    -6.0727140000     0.0511150000
    7      C       1.6080770000    -4.7870490000     0.0262030000
    8      C      -1.2829480000    -5.1628010000     0.0266370000
    9      C      -0.7201870000    -3.8748170000    -0.0025860000
   10      C       0.7078530000    -3.6839520000     0.0019030000
   11      O      -2.6023860000    -5.4997720000     0.0548670000
   12      O       2.9335170000    -4.4590550000    -0.0033480000
   13      C       3.8819990000    -5.3290630000     0.6023840000
   14      H       4.8257440000    -4.7556940000     0.6750790000
   15      H       4.0709720000    -6.2380950000    -0.0095920000
   16      H       3.5621520000    -5.6372620000     1.6212630000
   17      C      -3.5882530000    -4.5722610000    -0.3819470000
   18      H      -4.5356740000    -5.1397430000    -0.4498720000
   19      H      -3.3429860000    -4.1531310000    -1.3813880000
   20      H      -3.7282390000    -3.7395310000     0.3410400000
   21      C       1.0807250000    -2.3066540000    -0.0003480000
   22      S      -1.5426940000    -2.3065010000     0.0109240000
   23      C       0.0000000000    -1.4351850000     0.0000000000
   24      H       2.1276350000    -1.9781380000    -0.0036120000
   25      H       0.3205590000    -9.6140330000     0.0377640000
   26      C       0.0000000000     0.0000000000     0.0000000000
   27      S       0.5819340000     0.6927850000     1.5075410000
   28      C       1.5921550000     1.8979150000     0.7188730000
   29      C       0.5819440000     0.6923630000    -1.0678720000
   30      C       1.4737410000     1.7587640000    -0.6864100000
   31      S       0.4275600000     0.5039420000    -2.8055160000
   32      C       1.5492780000     1.8493570000    -3.0545300000
   33      C       2.0026900000     2.3935290000    -1.8625510000
   34      F       2.8581910000     3.4205490000    -1.8190880000
   35      C       1.8387100000     2.1913480000    -4.4560840000
   36      O       1.3499770000     1.5964810000    -5.4065100000
   37      O       2.7010910000     3.2307050000    -4.5692250000
   38      C       3.0233270000     3.6066050000    -5.9162070000
   39      H       3.7257030000     4.4545340000    -5.8330640000
   40      H       2.1120720000     3.9100350000    -6.4701680000
   41      H       3.4952810000     2.7629960000    -6.4592930000
   42      H       2.1851740000     2.6068460000     1.3064860000
 ----------------------------------------------------------------

   10   -2754.2859270698      9.35e-07  Convergence criterion met
 Total energy in the final basis set =    -2754.2859270698
        RIMP2         total energy =     -2759.3420228323 a.u.

                    Orbital Energies (a.u.)
 --------------------------------------------------------------

 Alpha MOs
 -- Occupied --
-92.0136 -92.0017 -91.9850 -91.9838 -26.3441 -20.6145 -20.5911 -20.5901
-20.5608 -11.4091 -11.3837 -11.3206 -11.3174 -11.3155 -11.3096 -11.2967
-11.2906 -11.2887 -11.2859 -11.2856 -11.2848 -11.2825 -11.2825 -11.2819
-11.2782 -11.2587 -11.2566 -11.2519 -11.2489  -9.0123  -9.0015  -8.9850
 -8.9844  -6.6930  -6.6923  -6.6919  -6.6825  -6.6817  -6.6807  -6.6660
 -6.6653  -6.6653  -6.6646  -6.6645  -6.6637  -1.6612  -1.4670  -1.4152
 -1.4129  -1.3697  -1.2246  -1.1920  -1.1639  -1.1367  -1.0834  -1.0499
 -1.0426  -1.0232  -0.9990  -0.9866  -0.9621  -0.9591  -0.9491  -0.9392
 -0.8936  -0.8683  -0.8466  -0.8111  -0.7937  -0.7881  -0.7847  -0.7635
 -0.7552  -0.7321  -0.7259  -0.7104  -0.7000  -0.6850  -0.6819  -0.6804
 -0.6738  -0.6583  -0.6573  -0.6516  -0.6287  -0.6189  -0.6158  -0.6063
 -0.5986  -0.5869  -0.5738  -0.5695  -0.5660  -0.5625  -0.5533  -0.5508
 -0.5308  -0.5250  -0.5213  -0.5153  -0.5133  -0.5091  -0.5032  -0.4933
 -0.4883  -0.4814  -0.4742  -0.4733  -0.4685  -0.4634  -0.4594  -0.4023
 -0.3962  -0.3857  -0.3600  -0.3441  -0.3110  -0.3040  -0.2559

          Ground-State Mulliken Net Atomic Charges

     Atom                 Charge (a.u.)
  ----------------------------------------
      1 C                    -0.191217
      2 C                    -0.254360
      3 S                    -0.025058
      4 C                    -0.017347
      5 H                     0.196072
      6 C                    -0.028577
      7 C                     0.238362
      8 C                     0.243417
      9 C                    -0.048891
     10 C                    -0.016885
     11 O                    -0.333608
     12 O                    -0.340752
     13 C                    -0.085645
     14 H                     0.121883
     15 H                     0.091001
     16 H                     0.093346
     17 C                    -0.086139
     18 H                     0.124327
     19 H                     0.094455
     20 H                     0.089459
     21 C                    -0.219061
     22 S                    -0.008403
     23 C                    -0.037885
     24 H                     0.197646
     25 H                     0.205785
     26 C                    -0.079512
     27 S                     0.115753
     28 C                    -0.163143
     29 C                    -0.008674
     30 C                    -0.084303
     31 S                     0.031273
     32 C                    -0.154746
     33 C                     0.391147
     34 F                    -0.205673
     35 C                     0.447593
     36 O                    -0.462077
     37 O                    -0.301220
     38 C                    -0.058349
     39 H                     0.121211
     40 H                     0.095117
     41 H                     0.095105
     42 H                     0.218571
  ----------------------------------------
  Sum of atomic charges =     0.000000

                    Cartesian Multipole Moments
 -----------------------------------------------------------------
    Charge (ESU x 10^10)
                -0.0000
    Dipole Moment (Debye)
         X       2.1394      Y       1.4155      Z       3.1035
       Tot       4.0264
    Quadrupole Moments (Debye-Ang)
        XX    -171.8821     XY       8.1728     YY    -169.8242
        XZ       1.1500     YZ      -6.8783     ZZ    -204.5149

 Total job time:  288.59s(wall), 9033.42s(cpu)
        *  Thank you very much for using Q-Chem.  Have a nice day.  *
