 Q-Chem 5.4, Q-Chem, Inc., Pleasanton, CA (2021)
 Q-Chem 5.4.0 for Intel X86 EM64T Linux

User input:
--------------------------------------------------------------
$molecule
0 1
C	-0.095966	-8.517702	0.306235
C	0.082807	-7.641575	-0.754415
S	-0.348635	-7.638634	1.833702
C	0.017401	-6.264785	-0.383675
H	0.259008	-7.966081	-1.787757
C	-0.231913	-6.072714	1.020885
C	-0.305044	-4.787049	1.579097
C	0.196549	-5.162801	-1.268082
C	0.127606	-3.874817	-0.708796
C	-0.124792	-3.683952	0.696769
O	0.397867	-5.499772	-2.572378
O	-0.506103	-4.459055	2.889532
C	-1.267335	-5.329063	3.718420
H	-1.502804	-4.755694	4.635204
H	-0.697471	-6.238095	4.010790
H	-2.215194	-5.637262	3.226506
C	0.999238	-4.572261	-3.467415
H	1.230649	-5.139743	-4.388648
H	1.940905	-4.153131	-3.052323
H	0.311543	-3.739531	-3.730819
C	-0.187323	-2.306654	1.064366
S	0.257128	-2.306501	-1.521154
C	0.000000	-1.435185	0.000000
H	-0.365903	-1.978138	2.095939
H	-0.092855	-9.614033	0.309131
C	0.000000	0.000000	0.000000
S	0.581934	0.692785	1.507541
C	1.592155	1.897915	0.718873
C	0.581944	0.692363	-1.067872
C	1.473741	1.758764	-0.686410
S	0.427560	0.503942	-2.805516
C	1.549278	1.849357	-3.054530
C	2.002690	2.393529	-1.862551
F	2.858191	3.420549	-1.819088
C	1.838710	2.191348	-4.456084
O	1.349977	1.596481	-5.406510
O	2.701091	3.230705	-4.569225
C	3.023327	3.606605	-5.916207
H	3.725703	4.454534	-5.833064
H	2.112072	3.910035	-6.470168
H	3.495281	2.762996	-6.459293
H	2.185174	2.606846	1.306486
$end

$rem
JOBTYPE		SP
EXCHANGE	HF
CORRELATION	pRIMP2
BASIS		cc-pvtz
METHOD		rimp2
AUX_BASIS	rimp2-cc-pvtz
SOLVENT_METHOD	PCM
PURECART	11111
SYMMETRY	false
MEM_TOTAL	110000
SCF_CONVERGENCE = 6
THRESH=10
GUI = 2
$end

$solvent
dielectric 4.90
$end
--------------------------------------------------------------

             Standard Nuclear Orientation (Angstroms)
    I     Atom           X                Y                Z
 ----------------------------------------------------------------
    1      C      -0.0959660000    -8.5177020000     0.3062350000
    2      C       0.0828070000    -7.6415750000    -0.7544150000
    3      S      -0.3486350000    -7.6386340000     1.8337020000
    4      C       0.0174010000    -6.2647850000    -0.3836750000
    5      H       0.2590080000    -7.9660810000    -1.7877570000
    6      C      -0.2319130000    -6.0727140000     1.0208850000
    7      C      -0.3050440000    -4.7870490000     1.5790970000
    8      C       0.1965490000    -5.1628010000    -1.2680820000
    9      C       0.1276060000    -3.8748170000    -0.7087960000
   10      C      -0.1247920000    -3.6839520000     0.6967690000
   11      O       0.3978670000    -5.4997720000    -2.5723780000
   12      O      -0.5061030000    -4.4590550000     2.8895320000
   13      C      -1.2673350000    -5.3290630000     3.7184200000
   14      H      -1.5028040000    -4.7556940000     4.6352040000
   15      H      -0.6974710000    -6.2380950000     4.0107900000
   16      H      -2.2151940000    -5.6372620000     3.2265060000
   17      C       0.9992380000    -4.5722610000    -3.4674150000
   18      H       1.2306490000    -5.1397430000    -4.3886480000
   19      H       1.9409050000    -4.1531310000    -3.0523230000
   20      H       0.3115430000    -3.7395310000    -3.7308190000
   21      C      -0.1873230000    -2.3066540000     1.0643660000
   22      S       0.2571280000    -2.3065010000    -1.5211540000
   23      C       0.0000000000    -1.4351850000     0.0000000000
   24      H      -0.3659030000    -1.9781380000     2.0959390000
   25      H      -0.0928550000    -9.6140330000     0.3091310000
   26      C       0.0000000000     0.0000000000     0.0000000000
   27      S       0.5819340000     0.6927850000     1.5075410000
   28      C       1.5921550000     1.8979150000     0.7188730000
   29      C       0.5819440000     0.6923630000    -1.0678720000
   30      C       1.4737410000     1.7587640000    -0.6864100000
   31      S       0.4275600000     0.5039420000    -2.8055160000
   32      C       1.5492780000     1.8493570000    -3.0545300000
   33      C       2.0026900000     2.3935290000    -1.8625510000
   34      F       2.8581910000     3.4205490000    -1.8190880000
   35      C       1.8387100000     2.1913480000    -4.4560840000
   36      O       1.3499770000     1.5964810000    -5.4065100000
   37      O       2.7010910000     3.2307050000    -4.5692250000
   38      C       3.0233270000     3.6066050000    -5.9162070000
   39      H       3.7257030000     4.4545340000    -5.8330640000
   40      H       2.1120720000     3.9100350000    -6.4701680000
   41      H       3.4952810000     2.7629960000    -6.4592930000
   42      H       2.1851740000     2.6068460000     1.3064860000
 ----------------------------------------------------------------

   10   -2754.2833948979      6.95e-07  Convergence criterion met
 Total energy in the final basis set =    -2754.2833948979
        RIMP2         total energy =     -2759.3442655386 a.u.

                    Orbital Energies (a.u.)
 --------------------------------------------------------------

 Alpha MOs
 -- Occupied --
-92.0148 -92.0047 -91.9862 -91.9838 -26.3454 -20.6157 -20.5910 -20.5881
-20.5622 -11.4107 -11.3856 -11.3245 -11.3178 -11.3119 -11.3113 -11.2987
-11.2975 -11.2896 -11.2895 -11.2882 -11.2857 -11.2845 -11.2818 -11.2801
-11.2756 -11.2590 -11.2534 -11.2480 -11.2429  -9.0139  -9.0048  -8.9871
 -8.9837  -6.6946  -6.6939  -6.6935  -6.6857  -6.6849  -6.6838  -6.6680
 -6.6674  -6.6663  -6.6647  -6.6641  -6.6633  -1.6624  -1.4682  -1.4149
 -1.4110  -1.3710  -1.2289  -1.1912  -1.1642  -1.1389  -1.0857  -1.0492
 -1.0434  -1.0269  -0.9991  -0.9870  -0.9656  -0.9566  -0.9483  -0.9417
 -0.8934  -0.8709  -0.8473  -0.8176  -0.7937  -0.7859  -0.7824  -0.7636
 -0.7559  -0.7312  -0.7272  -0.7119  -0.6979  -0.6867  -0.6833  -0.6807
 -0.6748  -0.6597  -0.6572  -0.6506  -0.6300  -0.6177  -0.6153  -0.6050
 -0.6000  -0.5819  -0.5803  -0.5692  -0.5658  -0.5593  -0.5557  -0.5509
 -0.5329  -0.5289  -0.5238  -0.5182  -0.5160  -0.5110  -0.5051  -0.4942
 -0.4856  -0.4817  -0.4771  -0.4745  -0.4700  -0.4607  -0.4567  -0.4252
 -0.3908  -0.3827  -0.3585  -0.3537  -0.3244  -0.2905  -0.2452

          Ground-State Mulliken Net Atomic Charges

     Atom                 Charge (a.u.)
  ----------------------------------------
      1 C                    -0.197622
      2 C                    -0.252692
      3 S                    -0.027296
      4 C                    -0.024332
      5 H                     0.195540
      6 C                    -0.024926
      7 C                     0.228360
      8 C                     0.245716
      9 C                    -0.044215
     10 C                    -0.008014
     11 O                    -0.333073
     12 O                    -0.342002
     13 C                    -0.085453
     14 H                     0.121151
     15 H                     0.090333
     16 H                     0.093052
     17 C                    -0.088797
     18 H                     0.125516
     19 H                     0.094298
     20 H                     0.090682
     21 C                    -0.284881
     22 S                    -0.036551
     23 C                     0.018581
     24 H                     0.184248
     25 H                     0.204939
     26 C                    -0.036985
     27 S                     0.108815
     28 C                    -0.156453
     29 C                     0.006477
     30 C                    -0.103023
     31 S                     0.041057
     32 C                    -0.162878
     33 C                     0.405611
     34 F                    -0.205114
     35 C                     0.447260
     36 O                    -0.461249
     37 O                    -0.300950
     38 C                    -0.058322
     39 H                     0.121615
     40 H                     0.095347
     41 H                     0.095150
     42 H                     0.221081
  ----------------------------------------
  Sum of atomic charges =     0.000000

                    Cartesian Multipole Moments
 -----------------------------------------------------------------
    Charge (ESU x 10^10)
                 0.0000
    Dipole Moment (Debye)
         X       2.2712      Y       2.3989      Z       2.1657
       Tot       3.9501
    Quadrupole Moments (Debye-Ang)
        XX    -190.9365     XY       9.6542     YY    -174.1712
        XZ     -13.7930     YZ      -4.0803     ZZ    -184.3208

 Total job time:  287.63s(wall), 9235.86s(cpu)
        *  Thank you very much for using Q-Chem.  Have a nice day.  *
