 Q-Chem 5.4, Q-Chem, Inc., Pleasanton, CA (2021)
 Q-Chem 5.4.0 for Intel X86 EM64T Linux

User input:
--------------------------------------------------------------
$molecule
0 1
C	0.147685	-8.517702	-0.284919
C	-0.212552	-7.641575	0.728574
S	0.661757	-7.638634	-1.745304
C	-0.083761	-6.264785	0.374824
H	-0.565513	-7.966081	1.715621
C	0.405665	-6.072714	-0.965104
C	0.574617	-4.787049	-1.502136
C	-0.413763	-5.162801	1.214687
C	-0.248748	-3.874817	0.675870
C	0.243888	-3.683952	-0.664513
O	-0.838511	-5.499772	2.464209
O	1.000176	-4.459055	-2.757750
C	1.893778	-5.329063	-3.441858
H	2.284868	-4.755694	-4.303826
H	1.383341	-6.238095	-3.828743
H	2.741817	-5.637262	-2.792824
C	-1.586168	-4.572261	3.241222
H	-1.974033	-5.139743	4.108274
H	-2.441448	-4.153131	2.668916
H	-0.954660	-3.739531	3.620041
C	0.369302	-2.306654	-1.015668
S	-0.517367	-2.306501	1.453394
C	-0.000000	-1.435185	-0.000000
H	0.724300	-1.978138	-2.000559
H	0.145124	-9.614033	-0.288311
C	0.000000	0.000000	0.000000
S	0.783786	0.451972	1.507541
C	2.145261	1.238908	0.718873
C	0.783650	0.451572	-1.067872
C	1.986396	1.148648	-0.686410
S	0.574133	0.327317	-2.805516
C	2.088363	1.207943	-3.054530
C	2.700548	1.564221	-1.862551
F	3.855718	2.236706	-1.819088
C	2.477307	1.430318	-4.456084
O	1.814592	1.038482	-5.406510
O	3.643162	2.112042	-4.569225
C	4.074530	2.355061	-5.916207
H	5.024556	2.911627	-5.833064
H	3.322010	2.951860	-6.470168
H	4.229490	1.400910	-6.459293
H	2.944986	1.702260	1.306486
$end

$rem
JOBTYPE		SP
EXCHANGE	HF
CORRELATION	pRIMP2
BASIS		cc-pvtz
METHOD		rimp2
AUX_BASIS	rimp2-cc-pvtz
SOLVENT_METHOD	PCM
PURECART	11111
SYMMETRY	false
MEM_TOTAL	110000
SCF_CONVERGENCE = 6
THRESH=10
GUI = 2
$end

$solvent
dielectric 4.90
$end
--------------------------------------------------------------

             Standard Nuclear Orientation (Angstroms)
    I     Atom           X                Y                Z
 ----------------------------------------------------------------
    1      C       0.1476850000    -8.5177020000    -0.2849190000
    2      C      -0.2125520000    -7.6415750000     0.7285740000
    3      S       0.6617570000    -7.6386340000    -1.7453040000
    4      C      -0.0837610000    -6.2647850000     0.3748240000
    5      H      -0.5655130000    -7.9660810000     1.7156210000
    6      C       0.4056650000    -6.0727140000    -0.9651040000
    7      C       0.5746170000    -4.7870490000    -1.5021360000
    8      C      -0.4137630000    -5.1628010000     1.2146870000
    9      C      -0.2487480000    -3.8748170000     0.6758700000
   10      C       0.2438880000    -3.6839520000    -0.6645130000
   11      O      -0.8385110000    -5.4997720000     2.4642090000
   12      O       1.0001760000    -4.4590550000    -2.7577500000
   13      C       1.8937780000    -5.3290630000    -3.4418580000
   14      H       2.2848680000    -4.7556940000    -4.3038260000
   15      H       1.3833410000    -6.2380950000    -3.8287430000
   16      H       2.7418170000    -5.6372620000    -2.7928240000
   17      C      -1.5861680000    -4.5722610000     3.2412220000
   18      H      -1.9740330000    -5.1397430000     4.1082740000
   19      H      -2.4414480000    -4.1531310000     2.6689160000
   20      H      -0.9546600000    -3.7395310000     3.6200410000
   21      C       0.3693020000    -2.3066540000    -1.0156680000
   22      S      -0.5173670000    -2.3065010000     1.4533940000
   23      C       0.0000000000    -1.4351850000     0.0000000000
   24      H       0.7243000000    -1.9781380000    -2.0005590000
   25      H       0.1451240000    -9.6140330000    -0.2883110000
   26      C       0.0000000000     0.0000000000     0.0000000000
   27      S       0.7837860000     0.4519720000     1.5075410000
   28      C       2.1452610000     1.2389080000     0.7188730000
   29      C       0.7836500000     0.4515720000    -1.0678720000
   30      C       1.9863960000     1.1486480000    -0.6864100000
   31      S       0.5741330000     0.3273170000    -2.8055160000
   32      C       2.0883630000     1.2079430000    -3.0545300000
   33      C       2.7005480000     1.5642210000    -1.8625510000
   34      F       3.8557180000     2.2367060000    -1.8190880000
   35      C       2.4773070000     1.4303180000    -4.4560840000
   36      O       1.8145920000     1.0384820000    -5.4065100000
   37      O       3.6431620000     2.1120420000    -4.5692250000
   38      C       4.0745300000     2.3550610000    -5.9162070000
   39      H       5.0245560000     2.9116270000    -5.8330640000
   40      H       3.3220100000     2.9518600000    -6.4701680000
   41      H       4.2294900000     1.4009100000    -6.4592930000
   42      H       2.9449860000     1.7022600000     1.3064860000
 ----------------------------------------------------------------

   10   -2754.2453602494      9.62e-07  Convergence criterion met
 Total energy in the final basis set =    -2754.2453602494
        RIMP2         total energy =     -2759.3116120434 a.u.

                    Orbital Energies (a.u.)
 --------------------------------------------------------------

 Alpha MOs
 -- Occupied --
-92.0168 -92.0113 -91.9824 -91.9817 -26.3473 -20.6163 -20.5903 -20.5858
-20.5629 -11.4116 -11.3881 -11.3391 -11.3234 -11.3159 -11.3082 -11.3000
-11.2977 -11.2911 -11.2898 -11.2858 -11.2831 -11.2801 -11.2777 -11.2736
-11.2731 -11.2559 -11.2508 -11.2469 -11.2326  -9.0164  -9.0110  -8.9829
 -8.9824  -6.6970  -6.6961  -6.6959  -6.6919  -6.6911  -6.6902  -6.6640
 -6.6633  -6.6632  -6.6627  -6.6623  -6.6619  -1.6642  -1.4689  -1.4142
 -1.4088  -1.3717  -1.2368  -1.1891  -1.1651  -1.1409  -1.0862  -1.0482
 -1.0454  -1.0291  -0.9959  -0.9881  -0.9668  -0.9572  -0.9479  -0.9394
 -0.8926  -0.8734  -0.8442  -0.8122  -0.7992  -0.7873  -0.7816  -0.7612
 -0.7564  -0.7302  -0.7289  -0.7151  -0.6995  -0.6873  -0.6835  -0.6796
 -0.6753  -0.6613  -0.6565  -0.6492  -0.6296  -0.6168  -0.6162  -0.6069
 -0.6025  -0.5827  -0.5759  -0.5702  -0.5645  -0.5601  -0.5569  -0.5425
 -0.5329  -0.5298  -0.5211  -0.5154  -0.5134  -0.5086  -0.5049  -0.4958
 -0.4877  -0.4815  -0.4774  -0.4743  -0.4672  -0.4597  -0.4558  -0.4216
 -0.3905  -0.3803  -0.3620  -0.3468  -0.3282  -0.2894  -0.2457

          Ground-State Mulliken Net Atomic Charges

     Atom                 Charge (a.u.)
  ----------------------------------------
      1 C                    -0.201122
      2 C                    -0.253548
      3 S                    -0.029519
      4 C                    -0.025760
      5 H                     0.194673
      6 C                    -0.022335
      7 C                     0.230154
      8 C                     0.248560
      9 C                    -0.050270
     10 C                    -0.014869
     11 O                    -0.333840
     12 O                    -0.343067
     13 C                    -0.086212
     14 H                     0.121599
     15 H                     0.090562
     16 H                     0.091735
     17 C                    -0.087351
     18 H                     0.124999
     19 H                     0.094630
     20 H                     0.088576
     21 C                    -0.278724
     22 S                    -0.052493
     23 C                     0.012170
     24 H                     0.192307
     25 H                     0.204112
     26 C                    -0.167190
     27 S                     0.128208
     28 C                    -0.118165
     29 C                     0.076127
     30 C                    -0.108152
     31 S                     0.071758
     32 C                    -0.157285
     33 C                     0.398490
     34 F                    -0.204063
     35 C                     0.449955
     36 O                    -0.461664
     37 O                    -0.301114
     38 C                    -0.058029
     39 H                     0.121705
     40 H                     0.095508
     41 H                     0.095344
     42 H                     0.223598
  ----------------------------------------
  Sum of atomic charges =     0.000000

                    Cartesian Multipole Moments
 -----------------------------------------------------------------
    Charge (ESU x 10^10)
                -0.0000
    Dipole Moment (Debye)
         X       4.0022      Y       2.6405      Z       3.0162
       Tot       5.6646
    Quadrupole Moments (Debye-Ang)
        XX    -180.5449     XY       7.5486     YY    -184.3470
        XZ     -17.2154     YZ      -5.2954     ZZ    -187.1247

 Total job time:  309.70s(wall), 9613.37s(cpu)
        *  Thank you very much for using Q-Chem.  Have a nice day.  *
