 Q-Chem 5.4, Q-Chem, Inc., Pleasanton, CA (2021)
 Q-Chem 5.4.0 for Intel X86 EM64T Linux

User input:
--------------------------------------------------------------
$molecule
0 1
C	0.284919	-8.517702	0.147685
C	-0.728574	-7.641575	-0.212552
S	1.745304	-7.638634	0.661757
C	-0.374824	-6.264785	-0.083761
H	-1.715621	-7.966081	-0.565513
C	0.965104	-6.072714	0.405665
C	1.502136	-4.787049	0.574617
C	-1.214687	-5.162801	-0.413763
C	-0.675870	-3.874817	-0.248748
C	0.664513	-3.683952	0.243888
O	-2.464209	-5.499772	-0.838511
O	2.757750	-4.459055	1.000176
C	3.441858	-5.329063	1.893778
H	4.303826	-4.755694	2.284868
H	3.828743	-6.238095	1.383341
H	2.792824	-5.637262	2.741817
C	-3.241222	-4.572261	-1.586168
H	-4.108274	-5.139743	-1.974033
H	-2.668916	-4.153131	-2.441448
H	-3.620041	-3.739531	-0.954660
C	1.015668	-2.306654	0.369302
S	-1.453394	-2.306501	-0.517367
C	0.000000	-1.435185	0.000000
H	2.000559	-1.978138	0.724300
H	0.288311	-9.614033	0.145124
C	0.000000	0.000000	0.000000
S	0.693394	0.581209	1.507541
C	1.897536	1.592607	0.718873
C	0.693330	0.580791	-1.067872
C	1.756758	1.476132	-0.686410
S	0.508573	0.422041	-2.805516
C	1.846879	1.552232	-3.054530
C	2.387897	2.009402	-1.862551
F	3.408741	2.872264	-1.819088
C	2.191300	1.838768	-4.456084
O	1.606694	1.337806	-5.406510
O	3.221062	2.712584	-4.569225
C	3.603677	3.026817	-5.916207
H	4.442623	3.739898	-5.833064
H	2.758956	3.483875	-6.470168
H	3.921969	2.114070	-6.459293
H	2.604650	2.187790	1.306486
$end

$rem
JOBTYPE		SP
EXCHANGE	HF
CORRELATION	pRIMP2
BASIS		cc-pvtz
METHOD		rimp2
AUX_BASIS	rimp2-cc-pvtz
SOLVENT_METHOD	PCM
PURECART	11111
SYMMETRY	false
MEM_TOTAL	110000
SCF_CONVERGENCE = 6
THRESH=10
GUI = 2
$end

$solvent
dielectric 4.90
$end
--------------------------------------------------------------

             Standard Nuclear Orientation (Angstroms)
    I     Atom           X                Y                Z
 ----------------------------------------------------------------
    1      C       0.2849190000    -8.5177020000     0.1476850000
    2      C      -0.7285740000    -7.6415750000    -0.2125520000
    3      S       1.7453040000    -7.6386340000     0.6617570000
    4      C      -0.3748240000    -6.2647850000    -0.0837610000
    5      H      -1.7156210000    -7.9660810000    -0.5655130000
    6      C       0.9651040000    -6.0727140000     0.4056650000
    7      C       1.5021360000    -4.7870490000     0.5746170000
    8      C      -1.2146870000    -5.1628010000    -0.4137630000
    9      C      -0.6758700000    -3.8748170000    -0.2487480000
   10      C       0.6645130000    -3.6839520000     0.2438880000
   11      O      -2.4642090000    -5.4997720000    -0.8385110000
   12      O       2.7577500000    -4.4590550000     1.0001760000
   13      C       3.4418580000    -5.3290630000     1.8937780000
   14      H       4.3038260000    -4.7556940000     2.2848680000
   15      H       3.8287430000    -6.2380950000     1.3833410000
   16      H       2.7928240000    -5.6372620000     2.7418170000
   17      C      -3.2412220000    -4.5722610000    -1.5861680000
   18      H      -4.1082740000    -5.1397430000    -1.9740330000
   19      H      -2.6689160000    -4.1531310000    -2.4414480000
   20      H      -3.6200410000    -3.7395310000    -0.9546600000
   21      C       1.0156680000    -2.3066540000     0.3693020000
   22      S      -1.4533940000    -2.3065010000    -0.5173670000
   23      C       0.0000000000    -1.4351850000     0.0000000000
   24      H       2.0005590000    -1.9781380000     0.7243000000
   25      H       0.2883110000    -9.6140330000     0.1451240000
   26      C       0.0000000000     0.0000000000     0.0000000000
   27      S       0.6933940000     0.5812090000     1.5075410000
   28      C       1.8975360000     1.5926070000     0.7188730000
   29      C       0.6933300000     0.5807910000    -1.0678720000
   30      C       1.7567580000     1.4761320000    -0.6864100000
   31      S       0.5085730000     0.4220410000    -2.8055160000
   32      C       1.8468790000     1.5522320000    -3.0545300000
   33      C       2.3878970000     2.0094020000    -1.8625510000
   34      F       3.4087410000     2.8722640000    -1.8190880000
   35      C       2.1913000000     1.8387680000    -4.4560840000
   36      O       1.6066940000     1.3378060000    -5.4065100000
   37      O       3.2210620000     2.7125840000    -4.5692250000
   38      C       3.6036770000     3.0268170000    -5.9162070000
   39      H       4.4426230000     3.7398980000    -5.8330640000
   40      H       2.7589560000     3.4838750000    -6.4701680000
   41      H       3.9219690000     2.1140700000    -6.4592930000
   42      H       2.6046500000     2.1877900000     1.3064860000
 ----------------------------------------------------------------

   11   -2754.2706564975      4.02e-07  Convergence criterion met
 Total energy in the final basis set =    -2754.2706564975
        RIMP2         total energy =     -2759.3303394163 a.u.

                    Orbital Energies (a.u.)
 --------------------------------------------------------------

 Alpha MOs
 -- Occupied --
-92.0139 -92.0054 -91.9842 -91.9829 -26.3452 -20.6149 -20.5907 -20.5891
-20.5611 -11.4096 -11.3853 -11.3269 -11.3168 -11.3161 -11.3133 -11.2970
-11.2929 -11.2890 -11.2860 -11.2855 -11.2852 -11.2817 -11.2805 -11.2768
-11.2758 -11.2579 -11.2547 -11.2483 -11.2468  -9.0129  -9.0051  -8.9841
 -8.9835  -6.6935  -6.6927  -6.6924  -6.6861  -6.6853  -6.6843  -6.6651
 -6.6645  -6.6644  -6.6637  -6.6636  -6.6628  -1.6622  -1.4674  -1.4146
 -1.4120  -1.3700  -1.2286  -1.1910  -1.1641  -1.1382  -1.0837  -1.0488
 -1.0441  -1.0249  -0.9979  -0.9867  -0.9637  -0.9578  -0.9485  -0.9399
 -0.8926  -0.8698  -0.8445  -0.8141  -0.7934  -0.7870  -0.7840  -0.7632
 -0.7554  -0.7311  -0.7269  -0.7116  -0.6991  -0.6855  -0.6822  -0.6801
 -0.6741  -0.6588  -0.6571  -0.6510  -0.6287  -0.6183  -0.6150  -0.6070
 -0.6000  -0.5894  -0.5740  -0.5682  -0.5657  -0.5641  -0.5531  -0.5489
 -0.5311  -0.5233  -0.5198  -0.5144  -0.5128  -0.5105  -0.5029  -0.4924
 -0.4883  -0.4828  -0.4745  -0.4732  -0.4681  -0.4617  -0.4581  -0.4066
 -0.3932  -0.3855  -0.3630  -0.3414  -0.3142  -0.3022  -0.2533

          Ground-State Mulliken Net Atomic Charges

     Atom                 Charge (a.u.)
  ----------------------------------------
      1 C                    -0.194303
      2 C                    -0.253938
      3 S                    -0.026925
      4 C                    -0.019176
      5 H                     0.195626
      6 C                    -0.027255
      7 C                     0.233545
      8 C                     0.243068
      9 C                    -0.044924
     10 C                    -0.016386
     11 O                    -0.333665
     12 O                    -0.341819
     13 C                    -0.085720
     14 H                     0.121260
     15 H                     0.090842
     16 H                     0.093155
     17 C                    -0.086423
     18 H                     0.124301
     19 H                     0.094610
     20 H                     0.089573
     21 C                    -0.254061
     22 S                    -0.018140
     23 C                    -0.014677
     24 H                     0.194896
     25 H                     0.205255
     26 C                    -0.120920
     27 S                     0.117035
     28 C                    -0.145759
     29 C                     0.054515
     30 C                    -0.104315
     31 S                     0.039931
     32 C                    -0.153458
     33 C                     0.391995
     34 F                    -0.204764
     35 C                     0.448194
     36 O                    -0.462600
     37 O                    -0.301401
     38 C                    -0.058274
     39 H                     0.121286
     40 H                     0.095087
     41 H                     0.095239
     42 H                     0.219489
  ----------------------------------------
  Sum of atomic charges =     0.000000

                    Cartesian Multipole Moments
 -----------------------------------------------------------------
    Charge (ESU x 10^10)
                 0.0000
    Dipole Moment (Debye)
         X       2.6471      Y       1.7180      Z       2.8870
       Tot       4.2771
    Quadrupole Moments (Debye-Ang)
        XX    -175.1110     XY       9.4880     YY    -175.5215
        XZ       5.9103     YZ      -5.7112     ZZ    -197.6890

 Total job time:  362.06s(wall), 12149.67s(cpu)
        *  Thank you very much for using Q-Chem.  Have a nice day.  *
