 Q-Chem 5.4, Q-Chem, Inc., Pleasanton, CA (2021)
 Q-Chem 5.4.0 for Intel X86 EM64T Linux

User input:
--------------------------------------------------------------
$molecule
0 1
C	0.041330	-8.517702	-0.318247
C	0.049453	-7.641575	0.757333
S	0.024919	-7.638634	-1.866383
C	0.049488	-6.264785	0.380867
H	0.055368	-7.966081	1.805573
C	0.051115	-6.072714	-1.045647
C	0.026203	-4.787049	-1.608077
C	0.026637	-5.162801	1.282948
C	-0.002586	-3.874817	0.720187
C	0.001903	-3.683952	-0.707853
O	0.054867	-5.499772	2.602386
O	-0.003348	-4.459055	-2.933517
C	0.602384	-5.329063	-3.881999
H	0.675079	-4.755694	-4.825744
H	-0.009592	-6.238095	-4.070972
H	1.621263	-5.637262	-3.562152
C	-0.381947	-4.572261	3.588253
H	-0.449872	-5.139743	4.535674
H	-1.381388	-4.153131	3.342986
H	0.341040	-3.739531	3.728239
C	-0.000348	-2.306654	-1.080725
S	0.010924	-2.306501	1.542694
C	-0.000000	-1.435185	-0.000000
H	-0.003612	-1.978138	-2.127635
H	0.037764	-9.614033	-0.320559
C	0.000000	0.000000	0.000000
S	0.452792	0.783312	1.507541
C	1.238397	2.145556	0.718873
C	0.452875	0.782898	-1.067872
C	1.145945	1.987956	-0.686410
S	0.333556	0.570531	-2.805516
C	1.204604	2.090290	-3.054530
C	1.556633	2.704929	-1.862551
F	2.220797	3.864903	-1.819088
C	1.430252	2.477345	-4.456084
O	1.052242	1.806648	-5.406510
O	2.099050	3.650663	-4.569225
C	2.351116	4.076808	-5.916207
H	2.895579	5.033821	-5.833064
H	1.401015	4.217390	-6.470168
H	2.962391	3.327969	-6.459293
H	1.699302	2.946693	1.306486
$end

$rem
JOBTYPE		SP
EXCHANGE	HF
CORRELATION	pRIMP2
BASIS		cc-pvtz
METHOD		rimp2
AUX_BASIS	rimp2-cc-pvtz
SOLVENT_METHOD	PCM
PURECART	11111
SYMMETRY	false
MEM_TOTAL	110000
SCF_CONVERGENCE = 6
THRESH=10
GUI = 2
$end

$solvent
dielectric 4.90
$end
--------------------------------------------------------------

             Standard Nuclear Orientation (Angstroms)
    I     Atom           X                Y                Z
 ----------------------------------------------------------------
    1      C       0.0413300000    -8.5177020000    -0.3182470000
    2      C       0.0494530000    -7.6415750000     0.7573330000
    3      S       0.0249190000    -7.6386340000    -1.8663830000
    4      C       0.0494880000    -6.2647850000     0.3808670000
    5      H       0.0553680000    -7.9660810000     1.8055730000
    6      C       0.0511150000    -6.0727140000    -1.0456470000
    7      C       0.0262030000    -4.7870490000    -1.6080770000
    8      C       0.0266370000    -5.1628010000     1.2829480000
    9      C      -0.0025860000    -3.8748170000     0.7201870000
   10      C       0.0019030000    -3.6839520000    -0.7078530000
   11      O       0.0548670000    -5.4997720000     2.6023860000
   12      O      -0.0033480000    -4.4590550000    -2.9335170000
   13      C       0.6023840000    -5.3290630000    -3.8819990000
   14      H       0.6750790000    -4.7556940000    -4.8257440000
   15      H      -0.0095920000    -6.2380950000    -4.0709720000
   16      H       1.6212630000    -5.6372620000    -3.5621520000
   17      C      -0.3819470000    -4.5722610000     3.5882530000
   18      H      -0.4498720000    -5.1397430000     4.5356740000
   19      H      -1.3813880000    -4.1531310000     3.3429860000
   20      H       0.3410400000    -3.7395310000     3.7282390000
   21      C      -0.0003480000    -2.3066540000    -1.0807250000
   22      S       0.0109240000    -2.3065010000     1.5426940000
   23      C       0.0000000000    -1.4351850000     0.0000000000
   24      H      -0.0036120000    -1.9781380000    -2.1276350000
   25      H       0.0377640000    -9.6140330000    -0.3205590000
   26      C       0.0000000000     0.0000000000     0.0000000000
   27      S       0.4527920000     0.7833120000     1.5075410000
   28      C       1.2383970000     2.1455560000     0.7188730000
   29      C       0.4528750000     0.7828980000    -1.0678720000
   30      C       1.1459450000     1.9879560000    -0.6864100000
   31      S       0.3335560000     0.5705310000    -2.8055160000
   32      C       1.2046040000     2.0902900000    -3.0545300000
   33      C       1.5566330000     2.7049290000    -1.8625510000
   34      F       2.2207970000     3.8649030000    -1.8190880000
   35      C       1.4302520000     2.4773450000    -4.4560840000
   36      O       1.0522420000     1.8066480000    -5.4065100000
   37      O       2.0990500000     3.6506630000    -4.5692250000
   38      C       2.3511160000     4.0768080000    -5.9162070000
   39      H       2.8955790000     5.0338210000    -5.8330640000
   40      H       1.4010150000     4.2173900000    -6.4701680000
   41      H       2.9623910000     3.3279690000    -6.4592930000
   42      H       1.6993020000     2.9466930000     1.3064860000
 ----------------------------------------------------------------

   10   -2754.2990234612      7.19e-07  Convergence criterion met
 Total energy in the final basis set =    -2754.2990234612
        RIMP2         total energy =     -2759.3562295944 a.u.

                    Orbital Energies (a.u.)
 --------------------------------------------------------------

 Alpha MOs
 -- Occupied --
-92.0162 -92.0033 -91.9892 -91.9851 -26.3448 -20.6153 -20.5923 -20.5893
-20.5619 -11.4102 -11.3847 -11.3190 -11.3178 -11.3145 -11.3059 -11.2985
-11.2976 -11.2954 -11.2891 -11.2875 -11.2873 -11.2845 -11.2842 -11.2830
-11.2776 -11.2607 -11.2563 -11.2492 -11.2490  -9.0152  -9.0032  -8.9900
 -8.9851  -6.6960  -6.6953  -6.6948  -6.6841  -6.6834  -6.6823  -6.6710
 -6.6703  -6.6693  -6.6660  -6.6654  -6.6646  -1.6618  -1.4678  -1.4163
 -1.4121  -1.3706  -1.2256  -1.1934  -1.1656  -1.1384  -1.0853  -1.0508
 -1.0436  -1.0254  -1.0003  -0.9882  -0.9648  -0.9594  -0.9498  -0.9396
 -0.8956  -0.8698  -0.8502  -0.8099  -0.7987  -0.7882  -0.7849  -0.7633
 -0.7559  -0.7331  -0.7265  -0.7116  -0.7012  -0.6863  -0.6827  -0.6817
 -0.6744  -0.6593  -0.6586  -0.6514  -0.6302  -0.6188  -0.6162  -0.6026
 -0.6001  -0.5838  -0.5798  -0.5710  -0.5646  -0.5606  -0.5573  -0.5470
 -0.5352  -0.5306  -0.5231  -0.5184  -0.5163  -0.5111  -0.5049  -0.4953
 -0.4869  -0.4819  -0.4771  -0.4746  -0.4698  -0.4633  -0.4590  -0.4276
 -0.3954  -0.3829  -0.3616  -0.3477  -0.3282  -0.2894  -0.2483

          Ground-State Mulliken Net Atomic Charges

     Atom                 Charge (a.u.)
  ----------------------------------------
      1 C                    -0.193152
      2 C                    -0.254204
      3 S                    -0.023932
      4 C                    -0.019850
      5 H                     0.195813
      6 C                    -0.026045
      7 C                     0.240547
      8 C                     0.244621
      9 C                    -0.043889
     10 C                    -0.017502
     11 O                    -0.332943
     12 O                    -0.341655
     13 C                    -0.086364
     14 H                     0.123228
     15 H                     0.091133
     16 H                     0.093239
     17 C                    -0.088690
     18 H                     0.125983
     19 H                     0.094867
     20 H                     0.089336
     21 C                    -0.244391
     22 S                    -0.042048
     23 C                    -0.016143
     24 H                     0.187339
     25 H                     0.205667
     26 C                     0.007189
     27 S                     0.093860
     28 C                    -0.177885
     29 C                     0.000167
     30 C                    -0.107266
     31 S                     0.024813
     32 C                    -0.162002
     33 C                     0.405845
     34 F                    -0.205057
     35 C                     0.446305
     36 O                    -0.460991
     37 O                    -0.301055
     38 C                    -0.058385
     39 H                     0.121588
     40 H                     0.095261
     41 H                     0.095230
     42 H                     0.221419
  ----------------------------------------
  Sum of atomic charges =     0.000000

                    Cartesian Multipole Moments
 -----------------------------------------------------------------
    Charge (ESU x 10^10)
                -0.0000
    Dipole Moment (Debye)
         X       1.9155      Y       1.7963      Z       3.0919
       Tot       4.0566
    Quadrupole Moments (Debye-Ang)
        XX    -196.5877     XY       5.9671     YY    -166.9346
        XZ      -9.3979     YZ      -6.9329     ZZ    -182.0204

 Total job time:  440.28s(wall), 8840.54s(cpu)
        *  Thank you very much for using Q-Chem.  Have a nice day.  *
