 Q-Chem 5.4, Q-Chem, Inc., Pleasanton, CA (2021)
 Q-Chem 5.4.0 for Intel X86 EM64T Linux

User input:
--------------------------------------------------------------
$molecule
0 1
C	-0.217225	-8.517702	-0.236226
C	0.611939	-7.641575	0.448921
S	-1.413715	-7.638634	-1.218777
C	0.323572	-6.264785	0.206907
H	1.418739	-7.966081	1.118185
C	-0.768156	-6.072714	-0.711285
C	-1.215016	-4.787049	-1.053725
C	0.999917	-5.162801	0.804258
C	0.550033	-3.874817	0.464908
C	-0.541024	-3.683952	-0.456457
O	2.028811	-5.499772	1.630752
O	-2.249357	-4.459055	-1.883064
C	-2.586579	-5.329063	-2.956754
H	-3.262802	-4.755694	-3.619069
H	-3.124711	-6.238095	-2.609423
H	-1.686639	-5.637262	-3.531667
C	2.503251	-4.572261	2.599073
H	3.185356	-5.139743	3.260097
H	1.672937	-4.153131	3.207034
H	3.075213	-3.739531	2.135214
C	-0.828107	-2.306654	-0.694410
S	1.188794	-2.306501	0.983256
C	-0.000000	-1.435185	-0.000000
H	-1.632185	-1.978138	-1.364851
H	-0.221288	-9.614033	-0.234980
C	0.000000	0.000000	0.000000
S	0.452792	0.783312	1.507541
C	1.238397	2.145556	0.718873
C	0.452875	0.782898	-1.067872
C	1.145945	1.987956	-0.686410
S	0.333556	0.570531	-2.805516
C	1.204604	2.090290	-3.054530
C	1.556633	2.704929	-1.862551
F	2.220797	3.864903	-1.819088
C	1.430252	2.477345	-4.456084
O	1.052242	1.806648	-5.406510
O	2.099050	3.650663	-4.569225
C	2.351116	4.076808	-5.916207
H	2.895579	5.033821	-5.833064
H	1.401015	4.217390	-6.470168
H	2.962391	3.327969	-6.459293
H	1.699302	2.946693	1.306486
$end

$rem
JOBTYPE		SP
EXCHANGE	HF
CORRELATION	pRIMP2
BASIS		cc-pvtz
METHOD		rimp2
AUX_BASIS	rimp2-cc-pvtz
SOLVENT_METHOD	PCM
PURECART	11111
SYMMETRY	false
MEM_TOTAL	110000
SCF_CONVERGENCE = 6
THRESH=10
GUI = 2
$end

$solvent
dielectric 4.90
$end
--------------------------------------------------------------

             Standard Nuclear Orientation (Angstroms)
    I     Atom           X                Y                Z
 ----------------------------------------------------------------
    1      C      -0.2172250000    -8.5177020000    -0.2362260000
    2      C       0.6119390000    -7.6415750000     0.4489210000
    3      S      -1.4137150000    -7.6386340000    -1.2187770000
    4      C       0.3235720000    -6.2647850000     0.2069070000
    5      H       1.4187390000    -7.9660810000     1.1181850000
    6      C      -0.7681560000    -6.0727140000    -0.7112850000
    7      C      -1.2150160000    -4.7870490000    -1.0537250000
    8      C       0.9999170000    -5.1628010000     0.8042580000
    9      C       0.5500330000    -3.8748170000     0.4649080000
   10      C      -0.5410240000    -3.6839520000    -0.4564570000
   11      O       2.0288110000    -5.4997720000     1.6307520000
   12      O      -2.2493570000    -4.4590550000    -1.8830640000
   13      C      -2.5865790000    -5.3290630000    -2.9567540000
   14      H      -3.2628020000    -4.7556940000    -3.6190690000
   15      H      -3.1247110000    -6.2380950000    -2.6094230000
   16      H      -1.6866390000    -5.6372620000    -3.5316670000
   17      C       2.5032510000    -4.5722610000     2.5990730000
   18      H       3.1853560000    -5.1397430000     3.2600970000
   19      H       1.6729370000    -4.1531310000     3.2070340000
   20      H       3.0752130000    -3.7395310000     2.1352140000
   21      C      -0.8281070000    -2.3066540000    -0.6944100000
   22      S       1.1887940000    -2.3065010000     0.9832560000
   23      C       0.0000000000    -1.4351850000     0.0000000000
   24      H      -1.6321850000    -1.9781380000    -1.3648510000
   25      H      -0.2212880000    -9.6140330000    -0.2349800000
   26      C       0.0000000000     0.0000000000     0.0000000000
   27      S       0.4527920000     0.7833120000     1.5075410000
   28      C       1.2383970000     2.1455560000     0.7188730000
   29      C       0.4528750000     0.7828980000    -1.0678720000
   30      C       1.1459450000     1.9879560000    -0.6864100000
   31      S       0.3335560000     0.5705310000    -2.8055160000
   32      C       1.2046040000     2.0902900000    -3.0545300000
   33      C       1.5566330000     2.7049290000    -1.8625510000
   34      F       2.2207970000     3.8649030000    -1.8190880000
   35      C       1.4302520000     2.4773450000    -4.4560840000
   36      O       1.0522420000     1.8066480000    -5.4065100000
   37      O       2.0990500000     3.6506630000    -4.5692250000
   38      C       2.3511160000     4.0768080000    -5.9162070000
   39      H       2.8955790000     5.0338210000    -5.8330640000
   40      H       1.4010150000     4.2173900000    -6.4701680000
   41      H       2.9623910000     3.3279690000    -6.4592930000
   42      H       1.6993020000     2.9466930000     1.3064860000
 ----------------------------------------------------------------

   10   -2754.2998772215      7.15e-07  Convergence criterion met
 Total energy in the final basis set =    -2754.2998772215
        RIMP2         total energy =     -2759.3543050113 a.u.

                    Orbital Energies (a.u.)
 --------------------------------------------------------------

 Alpha MOs
 -- Occupied --
-92.0148 -92.0005 -91.9897 -91.9853 -26.3438 -20.6148 -20.5922 -20.5898
-20.5612 -11.4094 -11.3832 -11.3188 -11.3159 -11.3153 -11.3061 -11.2974
-11.2940 -11.2923 -11.2888 -11.2873 -11.2857 -11.2850 -11.2837 -11.2830
-11.2783 -11.2595 -11.2569 -11.2504 -11.2492  -9.0136  -9.0004  -8.9902
 -8.9852  -6.6944  -6.6937  -6.6932  -6.6813  -6.6806  -6.6795  -6.6711
 -6.6704  -6.6694  -6.6662  -6.6656  -6.6648  -1.6608  -1.4673  -1.4162
 -1.4126  -1.3700  -1.2239  -1.1931  -1.1650  -1.1371  -1.0842  -1.0507
 -1.0424  -1.0237  -1.0005  -0.9873  -0.9631  -0.9598  -0.9498  -0.9387
 -0.8952  -0.8685  -0.8496  -0.8093  -0.7962  -0.7867  -0.7859  -0.7637
 -0.7553  -0.7327  -0.7257  -0.7103  -0.7009  -0.6852  -0.6820  -0.6807
 -0.6739  -0.6586  -0.6579  -0.6517  -0.6296  -0.6190  -0.6166  -0.6044
 -0.5989  -0.5880  -0.5767  -0.5698  -0.5652  -0.5612  -0.5549  -0.5429
 -0.5346  -0.5308  -0.5215  -0.5161  -0.5149  -0.5109  -0.5041  -0.4939
 -0.4879  -0.4816  -0.4745  -0.4742  -0.4693  -0.4661  -0.4612  -0.4154
 -0.3960  -0.3842  -0.3565  -0.3508  -0.3200  -0.2943  -0.2536

          Ground-State Mulliken Net Atomic Charges

     Atom                 Charge (a.u.)
  ----------------------------------------
      1 C                    -0.191453
      2 C                    -0.254275
      3 S                    -0.023781
      4 C                    -0.017308
      5 H                     0.195871
      6 C                    -0.025610
      7 C                     0.235606
      8 C                     0.241060
      9 C                    -0.047669
     10 C                    -0.018860
     11 O                    -0.333135
     12 O                    -0.340521
     13 C                    -0.085803
     14 H                     0.122568
     15 H                     0.090592
     16 H                     0.093834
     17 C                    -0.087099
     18 H                     0.125131
     19 H                     0.094304
     20 H                     0.089495
     21 C                    -0.251914
     22 S                    -0.009192
     23 C                    -0.036514
     24 H                     0.199042
     25 H                     0.205850
     26 C                    -0.028762
     27 S                     0.090726
     28 C                    -0.165941
     29 C                     0.025470
     30 C                    -0.100014
     31 S                     0.019901
     32 C                    -0.151142
     33 C                     0.389201
     34 F                    -0.205898
     35 C                     0.446386
     36 O                    -0.461011
     37 O                    -0.301016
     38 C                    -0.058380
     39 H                     0.121361
     40 H                     0.095086
     41 H                     0.095159
     42 H                     0.218654
  ----------------------------------------
  Sum of atomic charges =     0.000000

                    Cartesian Multipole Moments
 -----------------------------------------------------------------
    Charge (ESU x 10^10)
                 0.0000
    Dipole Moment (Debye)
         X       1.9340      Y       1.4676      Z       2.8500
       Tot       3.7439
    Quadrupole Moments (Debye-Ang)
        XX    -189.2182     XY       6.0785     YY    -166.3691
        XZ       8.3444     YZ      -5.4567     ZZ    -189.8019

 Total job time:  334.58s(wall), 11579.32s(cpu)
        *  Thank you very much for using Q-Chem.  Have a nice day.  *
