 Q-Chem 5.4, Q-Chem, Inc., Pleasanton, CA (2021)
 Q-Chem 5.4.0 for Intel X86 EM64T Linux

User input:
--------------------------------------------------------------
$molecule
0 1
C	0.320589	-8.517702	-0.014560
C	-0.737240	-7.641575	0.180211
S	1.842356	-7.638634	-0.299553
C	-0.366488	-6.264785	0.114873
H	-1.768528	-7.966081	0.368061
C	1.038637	-6.072714	-0.131236
C	1.588197	-4.787049	-0.253435
C	-1.258831	-5.162801	0.249014
C	-0.709695	-3.874817	0.122513
C	0.697430	-3.683952	-0.121043
O	-2.553323	-5.499772	0.505933
O	2.888369	-4.459055	-0.512697
C	3.927625	-5.329063	-0.080869
H	4.869656	-4.755694	-0.173159
H	4.007459	-6.238095	-0.716363
H	3.789565	-5.637262	0.978072
C	-3.600064	-4.572261	0.246949
H	-4.544887	-5.139743	0.344574
H	-3.532074	-4.153131	-0.779898
H	-3.612378	-3.739531	0.983261
C	1.064246	-2.306654	-0.188009
S	-1.517360	-2.306501	0.278644
C	-0.000000	-1.435185	-0.000000
H	2.094685	-1.978138	-0.373017
H	0.322246	-9.614033	-0.018474
C	0.000000	0.000000	0.000000
S	0.581934	0.692785	1.507541
C	1.592155	1.897915	0.718873
C	0.581944	0.692363	-1.067872
C	1.473741	1.758764	-0.686410
S	0.427560	0.503942	-2.805516
C	1.549278	1.849357	-3.054530
C	2.002690	2.393529	-1.862551
F	2.858191	3.420549	-1.819088
C	1.838710	2.191348	-4.456084
O	1.349977	1.596481	-5.406510
O	2.701091	3.230705	-4.569225
C	3.023327	3.606605	-5.916207
H	3.725703	4.454534	-5.833064
H	2.112072	3.910035	-6.470168
H	3.495281	2.762996	-6.459293
H	2.185174	2.606846	1.306486
$end

$rem
JOBTYPE		SP
EXCHANGE	HF
CORRELATION	pRIMP2
BASIS		cc-pvtz
METHOD		rimp2
AUX_BASIS	rimp2-cc-pvtz
SOLVENT_METHOD	PCM
PURECART	11111
SYMMETRY	false
MEM_TOTAL	110000
SCF_CONVERGENCE = 6
THRESH=10
GUI = 2
$end

$solvent
dielectric 4.90
$end
--------------------------------------------------------------

             Standard Nuclear Orientation (Angstroms)
    I     Atom           X                Y                Z
 ----------------------------------------------------------------
    1      C       0.3205890000    -8.5177020000    -0.0145600000
    2      C      -0.7372400000    -7.6415750000     0.1802110000
    3      S       1.8423560000    -7.6386340000    -0.2995530000
    4      C      -0.3664880000    -6.2647850000     0.1148730000
    5      H      -1.7685280000    -7.9660810000     0.3680610000
    6      C       1.0386370000    -6.0727140000    -0.1312360000
    7      C       1.5881970000    -4.7870490000    -0.2534350000
    8      C      -1.2588310000    -5.1628010000     0.2490140000
    9      C      -0.7096950000    -3.8748170000     0.1225130000
   10      C       0.6974300000    -3.6839520000    -0.1210430000
   11      O      -2.5533230000    -5.4997720000     0.5059330000
   12      O       2.8883690000    -4.4590550000    -0.5126970000
   13      C       3.9276250000    -5.3290630000    -0.0808690000
   14      H       4.8696560000    -4.7556940000    -0.1731590000
   15      H       4.0074590000    -6.2380950000    -0.7163630000
   16      H       3.7895650000    -5.6372620000     0.9780720000
   17      C      -3.6000640000    -4.5722610000     0.2469490000
   18      H      -4.5448870000    -5.1397430000     0.3445740000
   19      H      -3.5320740000    -4.1531310000    -0.7798980000
   20      H      -3.6123780000    -3.7395310000     0.9832610000
   21      C       1.0642460000    -2.3066540000    -0.1880090000
   22      S      -1.5173600000    -2.3065010000     0.2786440000
   23      C       0.0000000000    -1.4351850000     0.0000000000
   24      H       2.0946850000    -1.9781380000    -0.3730170000
   25      H       0.3222460000    -9.6140330000    -0.0184740000
   26      C       0.0000000000     0.0000000000     0.0000000000
   27      S       0.5819340000     0.6927850000     1.5075410000
   28      C       1.5921550000     1.8979150000     0.7188730000
   29      C       0.5819440000     0.6923630000    -1.0678720000
   30      C       1.4737410000     1.7587640000    -0.6864100000
   31      S       0.4275600000     0.5039420000    -2.8055160000
   32      C       1.5492780000     1.8493570000    -3.0545300000
   33      C       2.0026900000     2.3935290000    -1.8625510000
   34      F       2.8581910000     3.4205490000    -1.8190880000
   35      C       1.8387100000     2.1913480000    -4.4560840000
   36      O       1.3499770000     1.5964810000    -5.4065100000
   37      O       2.7010910000     3.2307050000    -4.5692250000
   38      C       3.0233270000     3.6066050000    -5.9162070000
   39      H       3.7257030000     4.4545340000    -5.8330640000
   40      H       2.1120720000     3.9100350000    -6.4701680000
   41      H       3.4952810000     2.7629960000    -6.4592930000
   42      H       2.1851740000     2.6068460000     1.3064860000
 ----------------------------------------------------------------

   10   -2754.2864697815      9.34e-07  Convergence criterion met
 Total energy in the final basis set =    -2754.2864697815
        RIMP2         total energy =     -2759.3424626476 a.u.

                    Orbital Energies (a.u.)
 --------------------------------------------------------------

 Alpha MOs
 -- Occupied --
-92.0133 -92.0014 -91.9850 -91.9838 -26.3441 -20.6146 -20.5912 -20.5901
-20.5609 -11.4092 -11.3836 -11.3209 -11.3174 -11.3155 -11.3093 -11.2968
-11.2906 -11.2888 -11.2859 -11.2855 -11.2850 -11.2826 -11.2825 -11.2820
-11.2783 -11.2587 -11.2567 -11.2519 -11.2490  -9.0122  -9.0013  -8.9850
 -8.9843  -6.6928  -6.6921  -6.6917  -6.6823  -6.6815  -6.6805  -6.6660
 -6.6654  -6.6653  -6.6646  -6.6645  -6.6637  -1.6612  -1.4671  -1.4152
 -1.4129  -1.3697  -1.2246  -1.1920  -1.1639  -1.1368  -1.0834  -1.0499
 -1.0427  -1.0232  -0.9990  -0.9866  -0.9621  -0.9592  -0.9492  -0.9392
 -0.8936  -0.8684  -0.8466  -0.8104  -0.7946  -0.7880  -0.7847  -0.7635
 -0.7552  -0.7321  -0.7259  -0.7104  -0.7002  -0.6850  -0.6818  -0.6805
 -0.6738  -0.6583  -0.6574  -0.6516  -0.6287  -0.6189  -0.6160  -0.6064
 -0.5986  -0.5861  -0.5738  -0.5698  -0.5659  -0.5621  -0.5535  -0.5504
 -0.5308  -0.5254  -0.5216  -0.5154  -0.5133  -0.5088  -0.5034  -0.4937
 -0.4879  -0.4814  -0.4744  -0.4733  -0.4683  -0.4638  -0.4594  -0.4033
 -0.3954  -0.3856  -0.3591  -0.3454  -0.3140  -0.3011  -0.2557

          Ground-State Mulliken Net Atomic Charges

     Atom                 Charge (a.u.)
  ----------------------------------------
      1 C                    -0.191245
      2 C                    -0.254195
      3 S                    -0.024808
      4 C                    -0.017371
      5 H                     0.195957
      6 C                    -0.028180
      7 C                     0.238120
      8 C                     0.243577
      9 C                    -0.049107
     10 C                    -0.016966
     11 O                    -0.333723
     12 O                    -0.340679
     13 C                    -0.085669
     14 H                     0.121928
     15 H                     0.091080
     16 H                     0.093361
     17 C                    -0.086345
     18 H                     0.124378
     19 H                     0.094474
     20 H                     0.089457
     21 C                    -0.219856
     22 S                    -0.010878
     23 C                    -0.030513
     24 H                     0.197497
     25 H                     0.205811
     26 C                    -0.075171
     27 S                     0.116111
     28 C                    -0.162689
     29 C                    -0.028154
     30 C                    -0.078302
     31 S                     0.034572
     32 C                    -0.153865
     33 C                     0.390985
     34 F                    -0.205835
     35 C                     0.447432
     36 O                    -0.461904
     37 O                    -0.301188
     38 C                    -0.058350
     39 H                     0.121224
     40 H                     0.095153
     41 H                     0.095100
     42 H                     0.218778
  ----------------------------------------
  Sum of atomic charges =     0.000000

                    Cartesian Multipole Moments
 -----------------------------------------------------------------
    Charge (ESU x 10^10)
                -0.0000
    Dipole Moment (Debye)
         X       2.2008      Y       1.4018      Z       3.1050
       Tot       4.0558
    Quadrupole Moments (Debye-Ang)
        XX    -170.5761     XY       7.8913     YY    -169.6647
        XZ      -2.9440     YZ      -6.8282     ZZ    -205.7975

 Total job time:  281.07s(wall), 8793.96s(cpu)
        *  Thank you very much for using Q-Chem.  Have a nice day.  *
