 Q-Chem 5.4, Q-Chem, Inc., Pleasanton, CA (2021)
 Q-Chem 5.4.0 for Intel X86 EM64T Linux

User input:
--------------------------------------------------------------
$molecule
0 1
C	0.236226	-8.517702	-0.217225
C	-0.448921	-7.641575	0.611939
S	1.218777	-7.638634	-1.413715
C	-0.206907	-6.264785	0.323572
H	-1.118185	-7.966081	1.418739
C	0.711285	-6.072714	-0.768156
C	1.053725	-4.787049	-1.215016
C	-0.804258	-5.162801	0.999917
C	-0.464908	-3.874817	0.550033
C	0.456457	-3.683952	-0.541024
O	-1.630752	-5.499772	2.028811
O	1.883064	-4.459055	-2.249357
C	2.956754	-5.329063	-2.586579
H	3.619069	-4.755694	-3.262802
H	2.609423	-6.238095	-3.124711
H	3.531667	-5.637262	-1.686639
C	-2.599073	-4.572261	2.503251
H	-3.260097	-5.139743	3.185356
H	-3.207034	-4.153131	1.672937
H	-2.135214	-3.739531	3.075213
C	0.694410	-2.306654	-0.828107
S	-0.983256	-2.306501	1.188794
C	-0.000000	-1.435185	-0.000000
H	1.364851	-1.978138	-1.632185
H	0.234980	-9.614033	-0.221288
C	0.000000	0.000000	0.000000
S	0.157577	0.890937	1.507541
C	0.429889	2.439720	0.718873
C	0.157797	0.890576	-1.067872
C	0.396915	2.260004	-0.686410
S	0.118307	0.650207	-2.805516
C	0.417036	2.376229	-3.054530
C	0.537616	3.074202	-1.862551
F	0.764992	4.391378	-1.819088
C	0.496696	2.817118	-4.456084
O	0.370874	2.057582	-5.406510
O	0.723861	4.148418	-4.569225
C	0.814976	4.635075	-5.916207
H	0.999286	5.720591	-5.833064
H	-0.125909	4.442226	-6.470168
H	1.645504	4.140465	-6.459293
H	0.588993	3.350182	1.306486
$end

$rem
JOBTYPE		SP
EXCHANGE	HF
CORRELATION	pRIMP2
BASIS		cc-pvtz
METHOD		rimp2
AUX_BASIS	rimp2-cc-pvtz
SOLVENT_METHOD	PCM
PURECART	11111
SYMMETRY	false
MEM_TOTAL	110000
SCF_CONVERGENCE = 6
THRESH=10
GUI = 2
$end

$solvent
dielectric 4.90
$end
--------------------------------------------------------------

             Standard Nuclear Orientation (Angstroms)
    I     Atom           X                Y                Z
 ----------------------------------------------------------------
    1      C       0.2362260000    -8.5177020000    -0.2172250000
    2      C      -0.4489210000    -7.6415750000     0.6119390000
    3      S       1.2187770000    -7.6386340000    -1.4137150000
    4      C      -0.2069070000    -6.2647850000     0.3235720000
    5      H      -1.1181850000    -7.9660810000     1.4187390000
    6      C       0.7112850000    -6.0727140000    -0.7681560000
    7      C       1.0537250000    -4.7870490000    -1.2150160000
    8      C      -0.8042580000    -5.1628010000     0.9999170000
    9      C      -0.4649080000    -3.8748170000     0.5500330000
   10      C       0.4564570000    -3.6839520000    -0.5410240000
   11      O      -1.6307520000    -5.4997720000     2.0288110000
   12      O       1.8830640000    -4.4590550000    -2.2493570000
   13      C       2.9567540000    -5.3290630000    -2.5865790000
   14      H       3.6190690000    -4.7556940000    -3.2628020000
   15      H       2.6094230000    -6.2380950000    -3.1247110000
   16      H       3.5316670000    -5.6372620000    -1.6866390000
   17      C      -2.5990730000    -4.5722610000     2.5032510000
   18      H      -3.2600970000    -5.1397430000     3.1853560000
   19      H      -3.2070340000    -4.1531310000     1.6729370000
   20      H      -2.1352140000    -3.7395310000     3.0752130000
   21      C       0.6944100000    -2.3066540000    -0.8281070000
   22      S      -0.9832560000    -2.3065010000     1.1887940000
   23      C       0.0000000000    -1.4351850000     0.0000000000
   24      H       1.3648510000    -1.9781380000    -1.6321850000
   25      H       0.2349800000    -9.6140330000    -0.2212880000
   26      C       0.0000000000     0.0000000000     0.0000000000
   27      S       0.1575770000     0.8909370000     1.5075410000
   28      C       0.4298890000     2.4397200000     0.7188730000
   29      C       0.1577970000     0.8905760000    -1.0678720000
   30      C       0.3969150000     2.2600040000    -0.6864100000
   31      S       0.1183070000     0.6502070000    -2.8055160000
   32      C       0.4170360000     2.3762290000    -3.0545300000
   33      C       0.5376160000     3.0742020000    -1.8625510000
   34      F       0.7649920000     4.3913780000    -1.8190880000
   35      C       0.4966960000     2.8171180000    -4.4560840000
   36      O       0.3708740000     2.0575820000    -5.4065100000
   37      O       0.7238610000     4.1484180000    -4.5692250000
   38      C       0.8149760000     4.6350750000    -5.9162070000
   39      H       0.9992860000     5.7205910000    -5.8330640000
   40      H      -0.1259090000     4.4422260000    -6.4701680000
   41      H       1.6455040000     4.1404650000    -6.4592930000
   42      H       0.5889930000     3.3501820000     1.3064860000
 ----------------------------------------------------------------

   10   -2754.3151772955      7.27e-07  Convergence criterion met
 Total energy in the final basis set =    -2754.3151772955
        RIMP2         total energy =     -2759.3664656268 a.u.

                    Orbital Energies (a.u.)
 --------------------------------------------------------------

 Alpha MOs
 -- Occupied --
-92.0154 -91.9977 -91.9905 -91.9865 -26.3429 -20.6145 -20.5928 -20.5912
-20.5610 -11.4091 -11.3818 -11.3198 -11.3179 -11.3095 -11.3004 -11.2991
-11.2972 -11.2956 -11.2886 -11.2875 -11.2867 -11.2858 -11.2849 -11.2843
-11.2798 -11.2617 -11.2591 -11.2567 -11.2501  -9.0140  -8.9977  -8.9910
 -8.9864  -6.6947  -6.6941  -6.6936  -6.6787  -6.6780  -6.6768  -6.6719
 -6.6713  -6.6703  -6.6674  -6.6668  -6.6659  -1.6600  -1.4670  -1.4169
 -1.4140  -1.3697  -1.2212  -1.1949  -1.1660  -1.1360  -1.0852  -1.0523
 -1.0414  -1.0228  -1.0019  -0.9882  -0.9632  -0.9599  -0.9505  -0.9391
 -0.8963  -0.8674  -0.8519  -0.8078  -0.7982  -0.7874  -0.7869  -0.7646
 -0.7551  -0.7343  -0.7249  -0.7094  -0.7019  -0.6850  -0.6834  -0.6804
 -0.6736  -0.6594  -0.6579  -0.6526  -0.6306  -0.6200  -0.6172  -0.6037
 -0.5976  -0.5835  -0.5786  -0.5708  -0.5656  -0.5619  -0.5538  -0.5500
 -0.5343  -0.5304  -0.5247  -0.5166  -0.5163  -0.5077  -0.5068  -0.4961
 -0.4883  -0.4804  -0.4759  -0.4735  -0.4686  -0.4676  -0.4606  -0.4195
 -0.3959  -0.3857  -0.3590  -0.3499  -0.3242  -0.2908  -0.2535

          Ground-State Mulliken Net Atomic Charges

     Atom                 Charge (a.u.)
  ----------------------------------------
      1 C                    -0.188772
      2 C                    -0.253737
      3 S                    -0.021383
      4 C                    -0.016145
      5 H                     0.196315
      6 C                    -0.028680
      7 C                     0.242234
      8 C                     0.241845
      9 C                    -0.045843
     10 C                    -0.025228
     11 O                    -0.333241
     12 O                    -0.339169
     13 C                    -0.085973
     14 H                     0.123130
     15 H                     0.091186
     16 H                     0.093713
     17 C                    -0.087233
     18 H                     0.125431
     19 H                     0.095307
     20 H                     0.089269
     21 C                    -0.227845
     22 S                    -0.019963
     23 C                    -0.005279
     24 H                     0.201047
     25 H                     0.206436
     26 C                    -0.016969
     27 S                     0.101304
     28 C                    -0.194296
     29 C                    -0.016962
     30 C                    -0.102573
     31 S                     0.012694
     32 C                    -0.155165
     33 C                     0.397925
     34 F                    -0.207272
     35 C                     0.443952
     36 O                    -0.460812
     37 O                    -0.300606
     38 C                    -0.058599
     39 H                     0.121322
     40 H                     0.095198
     41 H                     0.095020
     42 H                     0.218421
  ----------------------------------------
  Sum of atomic charges =     0.000000

                    Cartesian Multipole Moments
 -----------------------------------------------------------------
    Charge (ESU x 10^10)
                 0.0000
    Dipole Moment (Debye)
         X       0.6273      Y       0.9423      Z       3.1999
       Tot       3.3942
    Quadrupole Moments (Debye-Ang)
        XX    -185.3709     XY       1.4526     YY    -159.7234
        XZ     -13.3814     YZ      -7.9670     ZZ    -197.5538

 Total job time:  282.70s(wall), 9205.34s(cpu)
        *  Thank you very much for using Q-Chem.  Have a nice day.  *
