 Q-Chem 5.4, Q-Chem, Inc., Pleasanton, CA (2021)
 Q-Chem 5.4.0 for Intel X86 EM64T Linux

User input:
--------------------------------------------------------------
$molecule
0 1
C	-0.172904	-8.517702	-0.270358
C	0.524688	-7.641575	0.548363
S	-1.180599	-7.638634	-1.445750
C	0.282727	-6.264785	0.259951
H	1.203014	-7.966081	1.347559
C	-0.632972	-6.072714	-0.833868
C	-1.013580	-4.787049	-1.248701
C	0.845068	-5.162801	0.965673
C	0.460946	-3.874817	0.553357
C	-0.453541	-3.683952	-0.543470
O	1.714812	-5.499772	1.958276
O	-1.888193	-4.459055	-2.245053
C	-2.033848	-5.329063	-3.360989
H	-2.584788	-4.755694	-4.130667
H	-2.624118	-6.238095	-3.112380
H	-1.047748	-5.637262	-3.770895
C	2.013896	-4.572261	2.994272
H	2.570853	-5.139743	3.763700
H	1.090625	-4.153131	3.448815
H	2.657717	-3.739531	2.636780
C	-0.694943	-2.306654	-0.827659
S	0.999993	-2.306501	1.174750
C	-0.000000	-1.435185	-0.000000
H	-1.370385	-1.978138	-1.627541
H	-0.177122	-9.614033	-0.269836
C	0.000000	0.000000	0.000000
S	0.309893	0.850039	1.507541
C	0.847011	2.328006	0.718873
C	0.310046	0.849645	-1.067872
C	0.783331	2.156746	-0.686410
S	0.229416	0.619785	-2.805516
C	0.823328	2.267711	-3.054530
C	1.063278	2.934142	-1.862551
F	1.515925	4.191824	-1.819088
C	0.978337	2.688069	-4.456084
O	0.722535	1.961921	-5.406510
O	1.433229	3.959697	-4.569225
C	1.607467	4.423139	-5.916207
H	1.977475	5.460158	-5.833064
H	0.647388	4.396602	-6.470168
H	2.339490	3.791823	-6.459293
H	1.161798	3.197007	1.306486
$end

$rem
JOBTYPE		SP
EXCHANGE	HF
CORRELATION	pRIMP2
BASIS		cc-pvtz
METHOD		rimp2
AUX_BASIS	rimp2-cc-pvtz
SOLVENT_METHOD	PCM
PURECART	11111
SYMMETRY	false
MEM_TOTAL	110000
SCF_CONVERGENCE = 6
THRESH=10
GUI = 2
$end

$solvent
dielectric 4.90
$end
--------------------------------------------------------------

             Standard Nuclear Orientation (Angstroms)
    I     Atom           X                Y                Z
 ----------------------------------------------------------------
    1      C      -0.1729040000    -8.5177020000    -0.2703580000
    2      C       0.5246880000    -7.6415750000     0.5483630000
    3      S      -1.1805990000    -7.6386340000    -1.4457500000
    4      C       0.2827270000    -6.2647850000     0.2599510000
    5      H       1.2030140000    -7.9660810000     1.3475590000
    6      C      -0.6329720000    -6.0727140000    -0.8338680000
    7      C      -1.0135800000    -4.7870490000    -1.2487010000
    8      C       0.8450680000    -5.1628010000     0.9656730000
    9      C       0.4609460000    -3.8748170000     0.5533570000
   10      C      -0.4535410000    -3.6839520000    -0.5434700000
   11      O       1.7148120000    -5.4997720000     1.9582760000
   12      O      -1.8881930000    -4.4590550000    -2.2450530000
   13      C      -2.0338480000    -5.3290630000    -3.3609890000
   14      H      -2.5847880000    -4.7556940000    -4.1306670000
   15      H      -2.6241180000    -6.2380950000    -3.1123800000
   16      H      -1.0477480000    -5.6372620000    -3.7708950000
   17      C       2.0138960000    -4.5722610000     2.9942720000
   18      H       2.5708530000    -5.1397430000     3.7637000000
   19      H       1.0906250000    -4.1531310000     3.4488150000
   20      H       2.6577170000    -3.7395310000     2.6367800000
   21      C      -0.6949430000    -2.3066540000    -0.8276590000
   22      S       0.9999930000    -2.3065010000     1.1747500000
   23      C       0.0000000000    -1.4351850000     0.0000000000
   24      H      -1.3703850000    -1.9781380000    -1.6275410000
   25      H      -0.1771220000    -9.6140330000    -0.2698360000
   26      C       0.0000000000     0.0000000000     0.0000000000
   27      S       0.3098930000     0.8500390000     1.5075410000
   28      C       0.8470110000     2.3280060000     0.7188730000
   29      C       0.3100460000     0.8496450000    -1.0678720000
   30      C       0.7833310000     2.1567460000    -0.6864100000
   31      S       0.2294160000     0.6197850000    -2.8055160000
   32      C       0.8233280000     2.2677110000    -3.0545300000
   33      C       1.0632780000     2.9341420000    -1.8625510000
   34      F       1.5159250000     4.1918240000    -1.8190880000
   35      C       0.9783370000     2.6880690000    -4.4560840000
   36      O       0.7225350000     1.9619210000    -5.4065100000
   37      O       1.4332290000     3.9596970000    -4.5692250000
   38      C       1.6074670000     4.4231390000    -5.9162070000
   39      H       1.9774750000     5.4601580000    -5.8330640000
   40      H       0.6473880000     4.3966020000    -6.4701680000
   41      H       2.3394900000     3.7918230000    -6.4592930000
   42      H       1.1617980000     3.1970070000     1.3064860000
 ----------------------------------------------------------------

   10   -2754.3094927082      7.06e-07  Convergence criterion met
 Total energy in the final basis set =    -2754.3094927082
        RIMP2         total energy =     -2759.3623029988 a.u.

                    Orbital Energies (a.u.)
 --------------------------------------------------------------

 Alpha MOs
 -- Occupied --
-92.0155 -91.9992 -91.9911 -91.9858 -26.3434 -20.6147 -20.5927 -20.5904
-20.5612 -11.4094 -11.3826 -11.3195 -11.3164 -11.3121 -11.3028 -11.2976
-11.2975 -11.2954 -11.2888 -11.2876 -11.2856 -11.2852 -11.2852 -11.2837
-11.2789 -11.2609 -11.2579 -11.2533 -11.2496  -9.0142  -8.9991  -8.9915
 -8.9858  -6.6949  -6.6943  -6.6938  -6.6801  -6.6794  -6.6783  -6.6725
 -6.6718  -6.6708  -6.6667  -6.6661  -6.6653  -1.6605  -1.4672  -1.4167
 -1.4132  -1.3699  -1.2226  -1.1941  -1.1656  -1.1367  -1.0848  -1.0515
 -1.0419  -1.0235  -1.0014  -0.9879  -0.9634  -0.9599  -0.9502  -0.9389
 -0.8960  -0.8681  -0.8512  -0.8086  -0.7974  -0.7872  -0.7864  -0.7641
 -0.7553  -0.7335  -0.7253  -0.7100  -0.7015  -0.6852  -0.6827  -0.6807
 -0.6738  -0.6590  -0.6580  -0.6521  -0.6302  -0.6195  -0.6169  -0.6036
 -0.5984  -0.5871  -0.5776  -0.5702  -0.5655  -0.5604  -0.5554  -0.5463
 -0.5352  -0.5307  -0.5220  -0.5171  -0.5161  -0.5109  -0.5047  -0.4947
 -0.4878  -0.4810  -0.4753  -0.4741  -0.4685  -0.4678  -0.4614  -0.4191
 -0.3962  -0.3847  -0.3582  -0.3501  -0.3231  -0.2921  -0.2527

          Ground-State Mulliken Net Atomic Charges

     Atom                 Charge (a.u.)
  ----------------------------------------
      1 C                    -0.190281
      2 C                    -0.254414
      3 S                    -0.022514
      4 C                    -0.016178
      5 H                     0.196056
      6 C                    -0.025928
      7 C                     0.238687
      8 C                     0.240832
      9 C                    -0.046539
     10 C                    -0.020549
     11 O                    -0.332903
     12 O                    -0.340364
     13 C                    -0.085947
     14 H                     0.122930
     15 H                     0.090963
     16 H                     0.093929
     17 C                    -0.087644
     18 H                     0.125340
     19 H                     0.094484
     20 H                     0.089687
     21 C                    -0.250455
     22 S                    -0.015034
     23 C                    -0.034075
     24 H                     0.199352
     25 H                     0.206096
     26 C                    -0.006314
     27 S                     0.085124
     28 C                    -0.174405
     29 C                     0.026011
     30 C                    -0.108073
     31 S                     0.012057
     32 C                    -0.152024
     33 C                     0.392135
     34 F                    -0.206276
     35 C                     0.445776
     36 O                    -0.460736
     37 O                    -0.300873
     38 C                    -0.058391
     39 H                     0.121331
     40 H                     0.095088
     41 H                     0.095127
     42 H                     0.218911
  ----------------------------------------
  Sum of atomic charges =     0.000000

                    Cartesian Multipole Moments
 -----------------------------------------------------------------
    Charge (ESU x 10^10)
                 0.0000
    Dipole Moment (Debye)
         X       1.3191      Y       1.2574      Z       2.9234
       Tot       3.4448
    Quadrupole Moments (Debye-Ang)
        XX    -195.2747     XY       4.1330     YY    -162.7082
        XZ       7.5896     YZ      -6.1331     ZZ    -186.0649

 Total job time:  302.43s(wall), 9186.04s(cpu)
        *  Thank you very much for using Q-Chem.  Have a nice day.  *
