 Q-Chem 5.4, Q-Chem, Inc., Pleasanton, CA (2021)
 Q-Chem 5.4.0 for Intel X86 EM64T Linux

User input:
--------------------------------------------------------------
$molecule
0 1
C	-0.147685	-8.517702	0.284919
C	0.212552	-7.641575	-0.728574
S	-0.661757	-7.638634	1.745304
C	0.083761	-6.264785	-0.374824
H	0.565513	-7.966081	-1.715621
C	-0.405665	-6.072714	0.965104
C	-0.574617	-4.787049	1.502136
C	0.413763	-5.162801	-1.214687
C	0.248748	-3.874817	-0.675870
C	-0.243888	-3.683952	0.664513
O	0.838511	-5.499772	-2.464209
O	-1.000176	-4.459055	2.757750
C	-1.893778	-5.329063	3.441858
H	-2.284868	-4.755694	4.303826
H	-1.383341	-6.238095	3.828743
H	-2.741817	-5.637262	2.792824
C	1.586168	-4.572261	-3.241222
H	1.974033	-5.139743	-4.108274
H	2.441448	-4.153131	-2.668916
H	0.954660	-3.739531	-3.620041
C	-0.369302	-2.306654	1.015668
S	0.517367	-2.306501	-1.453394
C	-0.000000	-1.435185	-0.000000
H	-0.724300	-1.978138	2.000559
H	-0.145124	-9.614033	0.288311
C	0.000000	0.000000	0.000000
S	0.452792	0.783312	1.507541
C	1.238397	2.145556	0.718873
C	0.452875	0.782898	-1.067872
C	1.145945	1.987956	-0.686410
S	0.333556	0.570531	-2.805516
C	1.204604	2.090290	-3.054530
C	1.556633	2.704929	-1.862551
F	2.220797	3.864903	-1.819088
C	1.430252	2.477345	-4.456084
O	1.052242	1.806648	-5.406510
O	2.099050	3.650663	-4.569225
C	2.351116	4.076808	-5.916207
H	2.895579	5.033821	-5.833064
H	1.401015	4.217390	-6.470168
H	2.962391	3.327969	-6.459293
H	1.699302	2.946693	1.306486
$end

$rem
JOBTYPE		SP
EXCHANGE	HF
CORRELATION	pRIMP2
BASIS		cc-pvtz
METHOD		rimp2
AUX_BASIS	rimp2-cc-pvtz
SOLVENT_METHOD	PCM
PURECART	11111
SYMMETRY	false
MEM_TOTAL	110000
SCF_CONVERGENCE = 6
THRESH=10
GUI = 2
$end

$solvent
dielectric 4.90
$end
--------------------------------------------------------------

             Standard Nuclear Orientation (Angstroms)
    I     Atom           X                Y                Z
 ----------------------------------------------------------------
    1      C      -0.1476850000    -8.5177020000     0.2849190000
    2      C       0.2125520000    -7.6415750000    -0.7285740000
    3      S      -0.6617570000    -7.6386340000     1.7453040000
    4      C       0.0837610000    -6.2647850000    -0.3748240000
    5      H       0.5655130000    -7.9660810000    -1.7156210000
    6      C      -0.4056650000    -6.0727140000     0.9651040000
    7      C      -0.5746170000    -4.7870490000     1.5021360000
    8      C       0.4137630000    -5.1628010000    -1.2146870000
    9      C       0.2487480000    -3.8748170000    -0.6758700000
   10      C      -0.2438880000    -3.6839520000     0.6645130000
   11      O       0.8385110000    -5.4997720000    -2.4642090000
   12      O      -1.0001760000    -4.4590550000     2.7577500000
   13      C      -1.8937780000    -5.3290630000     3.4418580000
   14      H      -2.2848680000    -4.7556940000     4.3038260000
   15      H      -1.3833410000    -6.2380950000     3.8287430000
   16      H      -2.7418170000    -5.6372620000     2.7928240000
   17      C       1.5861680000    -4.5722610000    -3.2412220000
   18      H       1.9740330000    -5.1397430000    -4.1082740000
   19      H       2.4414480000    -4.1531310000    -2.6689160000
   20      H       0.9546600000    -3.7395310000    -3.6200410000
   21      C      -0.3693020000    -2.3066540000     1.0156680000
   22      S       0.5173670000    -2.3065010000    -1.4533940000
   23      C       0.0000000000    -1.4351850000     0.0000000000
   24      H      -0.7243000000    -1.9781380000     2.0005590000
   25      H      -0.1451240000    -9.6140330000     0.2883110000
   26      C       0.0000000000     0.0000000000     0.0000000000
   27      S       0.4527920000     0.7833120000     1.5075410000
   28      C       1.2383970000     2.1455560000     0.7188730000
   29      C       0.4528750000     0.7828980000    -1.0678720000
   30      C       1.1459450000     1.9879560000    -0.6864100000
   31      S       0.3335560000     0.5705310000    -2.8055160000
   32      C       1.2046040000     2.0902900000    -3.0545300000
   33      C       1.5566330000     2.7049290000    -1.8625510000
   34      F       2.2207970000     3.8649030000    -1.8190880000
   35      C       1.4302520000     2.4773450000    -4.4560840000
   36      O       1.0522420000     1.8066480000    -5.4065100000
   37      O       2.0990500000     3.6506630000    -4.5692250000
   38      C       2.3511160000     4.0768080000    -5.9162070000
   39      H       2.8955790000     5.0338210000    -5.8330640000
   40      H       1.4010150000     4.2173900000    -6.4701680000
   41      H       2.9623910000     3.3279690000    -6.4592930000
   42      H       1.6993020000     2.9466930000     1.3064860000
 ----------------------------------------------------------------

   10   -2754.2981473371      7.33e-07  Convergence criterion met
 Total energy in the final basis set =    -2754.2981473371
        RIMP2         total energy =     -2759.3557589890 a.u.

                    Orbital Energies (a.u.)
 --------------------------------------------------------------

 Alpha MOs
 -- Occupied --
-92.0150 -92.0014 -91.9882 -91.9850 -26.3443 -20.6152 -20.5916 -20.5897
-20.5617 -11.4100 -11.3839 -11.3187 -11.3174 -11.3143 -11.3060 -11.2978
-11.2967 -11.2944 -11.2891 -11.2867 -11.2861 -11.2853 -11.2830 -11.2829
-11.2774 -11.2603 -11.2559 -11.2490 -11.2489  -9.0138  -9.0015  -8.9889
 -8.9850  -6.6945  -6.6939  -6.6934  -6.6825  -6.6817  -6.6806  -6.6698
 -6.6691  -6.6681  -6.6660  -6.6653  -6.6645  -1.6613  -1.4677  -1.4156
 -1.4125  -1.3704  -1.2254  -1.1928  -1.1648  -1.1376  -1.0855  -1.0506
 -1.0425  -1.0253  -1.0005  -0.9873  -0.9647  -0.9576  -0.9491  -0.9412
 -0.8946  -0.8693  -0.8493  -0.8160  -0.7927  -0.7868  -0.7840  -0.7643
 -0.7556  -0.7325  -0.7261  -0.7109  -0.6984  -0.6861  -0.6829  -0.6816
 -0.6743  -0.6590  -0.6579  -0.6516  -0.6301  -0.6188  -0.6160  -0.6046
 -0.5987  -0.5824  -0.5794  -0.5688  -0.5665  -0.5587  -0.5573  -0.5519
 -0.5326  -0.5294  -0.5238  -0.5183  -0.5164  -0.5111  -0.5060  -0.4951
 -0.4865  -0.4805  -0.4765  -0.4747  -0.4702  -0.4622  -0.4581  -0.4239
 -0.3935  -0.3838  -0.3583  -0.3524  -0.3252  -0.2898  -0.2479

          Ground-State Mulliken Net Atomic Charges

     Atom                 Charge (a.u.)
  ----------------------------------------
      1 C                    -0.193764
      2 C                    -0.253400
      3 S                    -0.024928
      4 C                    -0.021212
      5 H                     0.195942
      6 C                    -0.026054
      7 C                     0.232503
      8 C                     0.244773
      9 C                    -0.045288
     10 C                    -0.007632
     11 O                    -0.332972
     12 O                    -0.341160
     13 C                    -0.085567
     14 H                     0.121694
     15 H                     0.090631
     16 H                     0.093625
     17 C                    -0.089579
     18 H                     0.125802
     19 H                     0.094502
     20 H                     0.091185
     21 C                    -0.278701
     22 S                    -0.030459
     23 C                     0.020194
     24 H                     0.188058
     25 H                     0.205616
     26 C                     0.010041
     27 S                     0.111090
     28 C                    -0.180977
     29 C                    -0.041835
     30 C                    -0.095103
     31 S                     0.029203
     32 C                    -0.164132
     33 C                     0.408884
     34 F                    -0.206180
     35 C                     0.444642
     36 O                    -0.461081
     37 O                    -0.300893
     38 C                    -0.058397
     39 H                     0.121547
     40 H                     0.095252
     41 H                     0.095074
     42 H                     0.219058
  ----------------------------------------
  Sum of atomic charges =     0.000000

                    Cartesian Multipole Moments
 -----------------------------------------------------------------
    Charge (ESU x 10^10)
                 0.0000
    Dipole Moment (Debye)
         X       1.5573      Y       1.7775      Z       2.4365
       Tot       3.3943
    Quadrupole Moments (Debye-Ang)
        XX    -190.3774     XY       8.2643     YY    -167.7778
        XZ     -15.1826     YZ      -5.2196     ZZ    -188.2800

 Total job time:  290.88s(wall), 9002.77s(cpu)
        *  Thank you very much for using Q-Chem.  Have a nice day.  *
