 Q-Chem 5.4, Q-Chem, Inc., Pleasanton, CA (2021)
 Q-Chem 5.4.0 for Intel X86 EM64T Linux

User input:
--------------------------------------------------------------
$molecule
0 1
C	-0.014560	-8.517702	-0.320589
C	0.180211	-7.641575	0.737240
S	-0.299553	-7.638634	-1.842356
C	0.114873	-6.264785	0.366488
H	0.368061	-7.966081	1.768528
C	-0.131236	-6.072714	-1.038637
C	-0.253435	-4.787049	-1.588197
C	0.249014	-5.162801	1.258831
C	0.122513	-3.874817	0.709695
C	-0.121043	-3.683952	-0.697430
O	0.505933	-5.499772	2.553323
O	-0.512697	-4.459055	-2.888369
C	-0.080869	-5.329063	-3.927625
H	-0.173159	-4.755694	-4.869656
H	-0.716363	-6.238095	-4.007459
H	0.978072	-5.637262	-3.789565
C	0.246949	-4.572261	3.600064
H	0.344574	-5.139743	4.544887
H	-0.779898	-4.153131	3.532074
H	0.983261	-3.739531	3.612378
C	-0.188009	-2.306654	-1.064246
S	0.278644	-2.306501	1.517360
C	-0.000000	-1.435185	-0.000000
H	-0.373017	-1.978138	-2.094685
H	-0.018474	-9.614033	-0.322246
C	0.000000	0.000000	0.000000
S	0.157577	0.890937	1.507541
C	0.429889	2.439720	0.718873
C	0.157797	0.890576	-1.067872
C	0.396915	2.260004	-0.686410
S	0.118307	0.650207	-2.805516
C	0.417036	2.376229	-3.054530
C	0.537616	3.074202	-1.862551
F	0.764992	4.391378	-1.819088
C	0.496696	2.817118	-4.456084
O	0.370874	2.057582	-5.406510
O	0.723861	4.148418	-4.569225
C	0.814976	4.635075	-5.916207
H	0.999286	5.720591	-5.833064
H	-0.125909	4.442226	-6.470168
H	1.645504	4.140465	-6.459293
H	0.588993	3.350182	1.306486
$end

$rem
JOBTYPE		SP
EXCHANGE	HF
CORRELATION	pRIMP2
BASIS		cc-pvtz
METHOD		rimp2
AUX_BASIS	rimp2-cc-pvtz
SOLVENT_METHOD	PCM
PURECART	11111
SYMMETRY	false
MEM_TOTAL	110000
SCF_CONVERGENCE = 6
THRESH=10
GUI = 2
$end

$solvent
dielectric 4.90
$end
--------------------------------------------------------------

             Standard Nuclear Orientation (Angstroms)
    I     Atom           X                Y                Z
 ----------------------------------------------------------------
    1      C      -0.0145600000    -8.5177020000    -0.3205890000
    2      C       0.1802110000    -7.6415750000     0.7372400000
    3      S      -0.2995530000    -7.6386340000    -1.8423560000
    4      C       0.1148730000    -6.2647850000     0.3664880000
    5      H       0.3680610000    -7.9660810000     1.7685280000
    6      C      -0.1312360000    -6.0727140000    -1.0386370000
    7      C      -0.2534350000    -4.7870490000    -1.5881970000
    8      C       0.2490140000    -5.1628010000     1.2588310000
    9      C       0.1225130000    -3.8748170000     0.7096950000
   10      C      -0.1210430000    -3.6839520000    -0.6974300000
   11      O       0.5059330000    -5.4997720000     2.5533230000
   12      O      -0.5126970000    -4.4590550000    -2.8883690000
   13      C      -0.0808690000    -5.3290630000    -3.9276250000
   14      H      -0.1731590000    -4.7556940000    -4.8696560000
   15      H      -0.7163630000    -6.2380950000    -4.0074590000
   16      H       0.9780720000    -5.6372620000    -3.7895650000
   17      C       0.2469490000    -4.5722610000     3.6000640000
   18      H       0.3445740000    -5.1397430000     4.5448870000
   19      H      -0.7798980000    -4.1531310000     3.5320740000
   20      H       0.9832610000    -3.7395310000     3.6123780000
   21      C      -0.1880090000    -2.3066540000    -1.0642460000
   22      S       0.2786440000    -2.3065010000     1.5173600000
   23      C       0.0000000000    -1.4351850000     0.0000000000
   24      H      -0.3730170000    -1.9781380000    -2.0946850000
   25      H      -0.0184740000    -9.6140330000    -0.3222460000
   26      C       0.0000000000     0.0000000000     0.0000000000
   27      S       0.1575770000     0.8909370000     1.5075410000
   28      C       0.4298890000     2.4397200000     0.7188730000
   29      C       0.1577970000     0.8905760000    -1.0678720000
   30      C       0.3969150000     2.2600040000    -0.6864100000
   31      S       0.1183070000     0.6502070000    -2.8055160000
   32      C       0.4170360000     2.3762290000    -3.0545300000
   33      C       0.5376160000     3.0742020000    -1.8625510000
   34      F       0.7649920000     4.3913780000    -1.8190880000
   35      C       0.4966960000     2.8171180000    -4.4560840000
   36      O       0.3708740000     2.0575820000    -5.4065100000
   37      O       0.7238610000     4.1484180000    -4.5692250000
   38      C       0.8149760000     4.6350750000    -5.9162070000
   39      H       0.9992860000     5.7205910000    -5.8330640000
   40      H      -0.1259090000     4.4422260000    -6.4701680000
   41      H       1.6455040000     4.1404650000    -6.4592930000
   42      H       0.5889930000     3.3501820000     1.3064860000
 ----------------------------------------------------------------

   10   -2754.3148028589      7.54e-07  Convergence criterion met
 Total energy in the final basis set =    -2754.3148028589
        RIMP2         total energy =     -2759.3679258485 a.u.

                    Orbital Energies (a.u.)
 --------------------------------------------------------------

 Alpha MOs
 -- Occupied --
-92.0165 -92.0000 -91.9914 -91.9863 -26.3438 -20.6149 -20.5930 -20.5908
-20.5615 -11.4096 -11.3832 -11.3202 -11.3173 -11.3109 -11.3018 -11.3001
-11.2980 -11.2977 -11.2889 -11.2878 -11.2869 -11.2862 -11.2853 -11.2843
-11.2794 -11.2623 -11.2586 -11.2557 -11.2500  -9.0152  -9.0000  -8.9920
 -8.9862  -6.6959  -6.6954  -6.6948  -6.6810  -6.6803  -6.6792  -6.6731
 -6.6724  -6.6714  -6.6672  -6.6666  -6.6657  -1.6608  -1.4674  -1.4171
 -1.4136  -1.3701  -1.2226  -1.1951  -1.1665  -1.1372  -1.0859  -1.0524
 -1.0423  -1.0241  -1.0021  -0.9888  -0.9644  -0.9600  -0.9506  -0.9396
 -0.8968  -0.8685  -0.8525  -0.8087  -0.7993  -0.7885  -0.7862  -0.7644
 -0.7556  -0.7346  -0.7256  -0.7103  -0.7021  -0.6860  -0.6837  -0.6811
 -0.6740  -0.6594  -0.6589  -0.6524  -0.6310  -0.6199  -0.6170  -0.6021
 -0.5986  -0.5855  -0.5795  -0.5713  -0.5651  -0.5606  -0.5559  -0.5500
 -0.5360  -0.5305  -0.5231  -0.5201  -0.5173  -0.5117  -0.5053  -0.4955
 -0.4874  -0.4813  -0.4776  -0.4743  -0.4698  -0.4654  -0.4605  -0.4272
 -0.3967  -0.3844  -0.3613  -0.3487  -0.3279  -0.2895  -0.2502

          Ground-State Mulliken Net Atomic Charges

     Atom                 Charge (a.u.)
  ----------------------------------------
      1 C                    -0.189642
      2 C                    -0.254458
      3 S                    -0.021653
      4 C                    -0.016248
      5 H                     0.196140
      6 C                    -0.027132
      7 C                     0.246283
      8 C                     0.241564
      9 C                    -0.038971
     10 C                    -0.029328
     11 O                    -0.332865
     12 O                    -0.340913
     13 C                    -0.086466
     14 H                     0.123665
     15 H                     0.091599
     16 H                     0.093900
     17 C                    -0.088684
     18 H                     0.126018
     19 H                     0.095071
     20 H                     0.089588
     21 C                    -0.220802
     22 S                    -0.041089
     23 C                    -0.026119
     24 H                     0.189593
     25 H                     0.206328
     26 C                     0.012791
     27 S                     0.077277
     28 C                    -0.184496
     29 C                     0.037351
     30 C                    -0.126816
     31 S                     0.004594
     32 C                    -0.162030
     33 C                     0.405362
     34 F                    -0.206230
     35 C                     0.444601
     36 O                    -0.461091
     37 O                    -0.300789
     38 C                    -0.058651
     39 H                     0.121498
     40 H                     0.095237
     41 H                     0.095169
     42 H                     0.220844
  ----------------------------------------
  Sum of atomic charges =     0.000000

                    Cartesian Multipole Moments
 -----------------------------------------------------------------
    Charge (ESU x 10^10)
                 0.0000
    Dipole Moment (Debye)
         X       0.7676      Y       1.1864      Z       3.0718
       Tot       3.3812
    Quadrupole Moments (Debye-Ang)
        XX    -201.6990     XY       1.4467     YY    -159.8747
        XZ      -2.7785     YZ      -7.1355     ZZ    -180.9757

 Total job time:  351.33s(wall), 10912.93s(cpu)
        *  Thank you very much for using Q-Chem.  Have a nice day.  *
