 Q-Chem 5.4, Q-Chem, Inc., Pleasanton, CA (2021)
 Q-Chem 5.4.0 for Intel X86 EM64T Linux

User input:
--------------------------------------------------------------
$molecule
0 1
C	0.320589	-8.517702	-0.014560
C	-0.737240	-7.641575	0.180211
S	1.842356	-7.638634	-0.299553
C	-0.366488	-6.264785	0.114873
H	-1.768528	-7.966081	0.368061
C	1.038637	-6.072714	-0.131236
C	1.588197	-4.787049	-0.253435
C	-1.258831	-5.162801	0.249014
C	-0.709695	-3.874817	0.122513
C	0.697430	-3.683952	-0.121043
O	-2.553323	-5.499772	0.505933
O	2.888369	-4.459055	-0.512697
C	3.927625	-5.329063	-0.080869
H	4.869656	-4.755694	-0.173159
H	4.007459	-6.238095	-0.716363
H	3.789565	-5.637262	0.978072
C	-3.600064	-4.572261	0.246949
H	-4.544887	-5.139743	0.344574
H	-3.532074	-4.153131	-0.779898
H	-3.612378	-3.739531	0.983261
C	1.064246	-2.306654	-0.188009
S	-1.517360	-2.306501	0.278644
C	0.000000	-1.435185	0.000000
H	2.094685	-1.978138	-0.373017
H	0.322246	-9.614033	-0.018474
C	0.000000	0.000000	0.000000
S	0.693394	0.581209	1.507541
C	1.897536	1.592607	0.718873
C	0.693330	0.580791	-1.067872
C	1.756758	1.476132	-0.686410
S	0.508573	0.422041	-2.805516
C	1.846879	1.552232	-3.054530
C	2.387897	2.009402	-1.862551
F	3.408741	2.872264	-1.819088
C	2.191300	1.838768	-4.456084
O	1.606694	1.337806	-5.406510
O	3.221062	2.712584	-4.569225
C	3.603677	3.026817	-5.916207
H	4.442623	3.739898	-5.833064
H	2.758956	3.483875	-6.470168
H	3.921969	2.114070	-6.459293
H	2.604650	2.187790	1.306486
$end

$rem
JOBTYPE		SP
EXCHANGE	HF
CORRELATION	pRIMP2
BASIS		cc-pvtz
METHOD		rimp2
AUX_BASIS	rimp2-cc-pvtz
SOLVENT_METHOD	PCM
PURECART	11111
SYMMETRY	false
MEM_TOTAL	110000
SCF_CONVERGENCE = 6
THRESH=10
GUI = 2
$end

$solvent
dielectric 4.90
$end
--------------------------------------------------------------

             Standard Nuclear Orientation (Angstroms)
    I     Atom           X                Y                Z
 ----------------------------------------------------------------
    1      C       0.3205890000    -8.5177020000    -0.0145600000
    2      C      -0.7372400000    -7.6415750000     0.1802110000
    3      S       1.8423560000    -7.6386340000    -0.2995530000
    4      C      -0.3664880000    -6.2647850000     0.1148730000
    5      H      -1.7685280000    -7.9660810000     0.3680610000
    6      C       1.0386370000    -6.0727140000    -0.1312360000
    7      C       1.5881970000    -4.7870490000    -0.2534350000
    8      C      -1.2588310000    -5.1628010000     0.2490140000
    9      C      -0.7096950000    -3.8748170000     0.1225130000
   10      C       0.6974300000    -3.6839520000    -0.1210430000
   11      O      -2.5533230000    -5.4997720000     0.5059330000
   12      O       2.8883690000    -4.4590550000    -0.5126970000
   13      C       3.9276250000    -5.3290630000    -0.0808690000
   14      H       4.8696560000    -4.7556940000    -0.1731590000
   15      H       4.0074590000    -6.2380950000    -0.7163630000
   16      H       3.7895650000    -5.6372620000     0.9780720000
   17      C      -3.6000640000    -4.5722610000     0.2469490000
   18      H      -4.5448870000    -5.1397430000     0.3445740000
   19      H      -3.5320740000    -4.1531310000    -0.7798980000
   20      H      -3.6123780000    -3.7395310000     0.9832610000
   21      C       1.0642460000    -2.3066540000    -0.1880090000
   22      S      -1.5173600000    -2.3065010000     0.2786440000
   23      C       0.0000000000    -1.4351850000     0.0000000000
   24      H       2.0946850000    -1.9781380000    -0.3730170000
   25      H       0.3222460000    -9.6140330000    -0.0184740000
   26      C       0.0000000000     0.0000000000     0.0000000000
   27      S       0.6933940000     0.5812090000     1.5075410000
   28      C       1.8975360000     1.5926070000     0.7188730000
   29      C       0.6933300000     0.5807910000    -1.0678720000
   30      C       1.7567580000     1.4761320000    -0.6864100000
   31      S       0.5085730000     0.4220410000    -2.8055160000
   32      C       1.8468790000     1.5522320000    -3.0545300000
   33      C       2.3878970000     2.0094020000    -1.8625510000
   34      F       3.4087410000     2.8722640000    -1.8190880000
   35      C       2.1913000000     1.8387680000    -4.4560840000
   36      O       1.6066940000     1.3378060000    -5.4065100000
   37      O       3.2210620000     2.7125840000    -4.5692250000
   38      C       3.6036770000     3.0268170000    -5.9162070000
   39      H       4.4426230000     3.7398980000    -5.8330640000
   40      H       2.7589560000     3.4838750000    -6.4701680000
   41      H       3.9219690000     2.1140700000    -6.4592930000
   42      H       2.6046500000     2.1877900000     1.3064860000
 ----------------------------------------------------------------

   11   -2754.2707646575      3.86e-07  Convergence criterion met
 Total energy in the final basis set =    -2754.2707646575
        RIMP2         total energy =     -2759.3298573972 a.u.

                    Orbital Energies (a.u.)
 --------------------------------------------------------------

 Alpha MOs
 -- Occupied --
-92.0130 -92.0044 -91.9843 -91.9816 -26.3450 -20.6149 -20.5907 -20.5893
-20.5612 -11.4096 -11.3851 -11.3276 -11.3166 -11.3148 -11.3139 -11.2972
-11.2906 -11.2890 -11.2859 -11.2855 -11.2852 -11.2817 -11.2807 -11.2773
-11.2740 -11.2578 -11.2553 -11.2484 -11.2481  -9.0121  -9.0041  -8.9843
 -8.9823  -6.6927  -6.6919  -6.6916  -6.6851  -6.6843  -6.6833  -6.6653
 -6.6646  -6.6638  -6.6633  -6.6625  -6.6617  -1.6621  -1.4674  -1.4146
 -1.4122  -1.3701  -1.2280  -1.1909  -1.1637  -1.1380  -1.0835  -1.0489
 -1.0439  -1.0244  -0.9979  -0.9865  -0.9629  -0.9584  -0.9487  -0.9394
 -0.8928  -0.8695  -0.8444  -0.8115  -0.7950  -0.7877  -0.7838  -0.7629
 -0.7554  -0.7313  -0.7268  -0.7115  -0.6999  -0.6855  -0.6819  -0.6801
 -0.6741  -0.6586  -0.6572  -0.6511  -0.6283  -0.6184  -0.6156  -0.6076
 -0.5994  -0.5870  -0.5729  -0.5694  -0.5657  -0.5622  -0.5533  -0.5486
 -0.5311  -0.5239  -0.5202  -0.5158  -0.5125  -0.5089  -0.5031  -0.4933
 -0.4873  -0.4828  -0.4746  -0.4733  -0.4675  -0.4625  -0.4587  -0.4023
 -0.3941  -0.3849  -0.3605  -0.3436  -0.3144  -0.3021  -0.2539

          Ground-State Mulliken Net Atomic Charges

     Atom                 Charge (a.u.)
  ----------------------------------------
      1 C                    -0.193162
      2 C                    -0.254244
      3 S                    -0.026522
      4 C                    -0.018521
      5 H                     0.195701
      6 C                    -0.026853
      7 C                     0.234127
      8 C                     0.243027
      9 C                    -0.047592
     10 C                    -0.018147
     11 O                    -0.333793
     12 O                    -0.341385
     13 C                    -0.085734
     14 H                     0.121482
     15 H                     0.091000
     16 H                     0.093110
     17 C                    -0.086484
     18 H                     0.124307
     19 H                     0.094269
     20 H                     0.089555
     21 C                    -0.237807
     22 S                    -0.018560
     23 C                    -0.015394
     24 H                     0.195769
     25 H                     0.205417
     26 C                    -0.114447
     27 S                     0.121760
     28 C                    -0.142525
     29 C                     0.000204
     30 C                    -0.090152
     31 S                     0.048701
     32 C                    -0.153425
     33 C                     0.393786
     34 F                    -0.205248
     35 C                     0.448019
     36 O                    -0.462166
     37 O                    -0.301323
     38 C                    -0.058270
     39 H                     0.121272
     40 H                     0.095173
     41 H                     0.095226
     42 H                     0.219849
  ----------------------------------------
  Sum of atomic charges =     0.000000

                    Cartesian Multipole Moments
 -----------------------------------------------------------------
    Charge (ESU x 10^10)
                -0.0000
    Dipole Moment (Debye)
         X       2.8768      Y       1.5877      Z       2.9946
       Tot       4.4457
    Quadrupole Moments (Debye-Ang)
        XX    -167.6034     XY       8.5004     YY    -174.6778
        XZ      -3.7278     YZ      -5.9614     ZZ    -205.1759

 Total job time:  527.16s(wall), 20818.42s(cpu)
        *  Thank you very much for using Q-Chem.  Have a nice day.  *
