 Q-Chem 5.4, Q-Chem, Inc., Pleasanton, CA (2021)
 Q-Chem 5.4.0 for Intel X86 EM64T Linux

User input:
--------------------------------------------------------------
$molecule
0 1
C	0.270358	-8.517702	-0.172904
C	-0.548363	-7.641575	0.524688
S	1.445750	-7.638634	-1.180599
C	-0.259951	-6.264785	0.282727
H	-1.347559	-7.966081	1.203014
C	0.833868	-6.072714	-0.632972
C	1.248701	-4.787049	-1.013580
C	-0.965673	-5.162801	0.845068
C	-0.553357	-3.874817	0.460946
C	0.543470	-3.683952	-0.453541
O	-1.958276	-5.499772	1.714812
O	2.245053	-4.459055	-1.888193
C	3.360989	-5.329063	-2.033848
H	4.130667	-4.755694	-2.584788
H	3.112380	-6.238095	-2.624118
H	3.770895	-5.637262	-1.047748
C	-2.994272	-4.572261	2.013896
H	-3.763700	-5.139743	2.570853
H	-3.448815	-4.153131	1.090625
H	-2.636780	-3.739531	2.657717
C	0.827659	-2.306654	-0.694943
S	-1.174750	-2.306501	0.999993
C	-0.000000	-1.435185	-0.000000
H	1.627541	-1.978138	-1.370385
H	0.269836	-9.614033	-0.177122
C	0.000000	0.000000	0.000000
S	0.783786	0.451972	1.507541
C	2.145261	1.238908	0.718873
C	0.783650	0.451572	-1.067872
C	1.986396	1.148648	-0.686410
S	0.574133	0.327317	-2.805516
C	2.088363	1.207943	-3.054530
C	2.700548	1.564221	-1.862551
F	3.855718	2.236706	-1.819088
C	2.477307	1.430318	-4.456084
O	1.814592	1.038482	-5.406510
O	3.643162	2.112042	-4.569225
C	4.074530	2.355061	-5.916207
H	5.024556	2.911627	-5.833064
H	3.322010	2.951860	-6.470168
H	4.229490	1.400910	-6.459293
H	2.944986	1.702260	1.306486
$end

$rem
JOBTYPE		SP
EXCHANGE	HF
CORRELATION	pRIMP2
BASIS		cc-pvtz
METHOD		rimp2
AUX_BASIS	rimp2-cc-pvtz
SOLVENT_METHOD	PCM
PURECART	11111
SYMMETRY	false
MEM_TOTAL	110000
SCF_CONVERGENCE = 6
THRESH=10
GUI = 2
$end

$solvent
dielectric 4.90
$end
--------------------------------------------------------------

             Standard Nuclear Orientation (Angstroms)
    I     Atom           X                Y                Z
 ----------------------------------------------------------------
    1      C       0.2703580000    -8.5177020000    -0.1729040000
    2      C      -0.5483630000    -7.6415750000     0.5246880000
    3      S       1.4457500000    -7.6386340000    -1.1805990000
    4      C      -0.2599510000    -6.2647850000     0.2827270000
    5      H      -1.3475590000    -7.9660810000     1.2030140000
    6      C       0.8338680000    -6.0727140000    -0.6329720000
    7      C       1.2487010000    -4.7870490000    -1.0135800000
    8      C      -0.9656730000    -5.1628010000     0.8450680000
    9      C      -0.5533570000    -3.8748170000     0.4609460000
   10      C       0.5434700000    -3.6839520000    -0.4535410000
   11      O      -1.9582760000    -5.4997720000     1.7148120000
   12      O       2.2450530000    -4.4590550000    -1.8881930000
   13      C       3.3609890000    -5.3290630000    -2.0338480000
   14      H       4.1306670000    -4.7556940000    -2.5847880000
   15      H       3.1123800000    -6.2380950000    -2.6241180000
   16      H       3.7708950000    -5.6372620000    -1.0477480000
   17      C      -2.9942720000    -4.5722610000     2.0138960000
   18      H      -3.7637000000    -5.1397430000     2.5708530000
   19      H      -3.4488150000    -4.1531310000     1.0906250000
   20      H      -2.6367800000    -3.7395310000     2.6577170000
   21      C       0.8276590000    -2.3066540000    -0.6949430000
   22      S      -1.1747500000    -2.3065010000     0.9999930000
   23      C       0.0000000000    -1.4351850000     0.0000000000
   24      H       1.6275410000    -1.9781380000    -1.3703850000
   25      H       0.2698360000    -9.6140330000    -0.1771220000
   26      C       0.0000000000     0.0000000000     0.0000000000
   27      S       0.7837860000     0.4519720000     1.5075410000
   28      C       2.1452610000     1.2389080000     0.7188730000
   29      C       0.7836500000     0.4515720000    -1.0678720000
   30      C       1.9863960000     1.1486480000    -0.6864100000
   31      S       0.5741330000     0.3273170000    -2.8055160000
   32      C       2.0883630000     1.2079430000    -3.0545300000
   33      C       2.7005480000     1.5642210000    -1.8625510000
   34      F       3.8557180000     2.2367060000    -1.8190880000
   35      C       2.4773070000     1.4303180000    -4.4560840000
   36      O       1.8145920000     1.0384820000    -5.4065100000
   37      O       3.6431620000     2.1120420000    -4.5692250000
   38      C       4.0745300000     2.3550610000    -5.9162070000
   39      H       5.0245560000     2.9116270000    -5.8330640000
   40      H       3.3220100000     2.9518600000    -6.4701680000
   41      H       4.2294900000     1.4009100000    -6.4592930000
   42      H       2.9449860000     1.7022600000     1.3064860000
 ----------------------------------------------------------------

   11   -2754.2530373455      4.07e-07  Convergence criterion met
 Total energy in the final basis set =    -2754.2530373455
        RIMP2         total energy =     -2759.3162690270 a.u.

                    Orbital Energies (a.u.)
 --------------------------------------------------------------

 Alpha MOs
 -- Occupied --
-92.0152 -92.0082 -91.9833 -91.9804 -26.3465 -20.6159 -20.5903 -20.5876
-20.5624 -11.4110 -11.3870 -11.3369 -11.3209 -11.3161 -11.3110 -11.2994
-11.2945 -11.2896 -11.2896 -11.2855 -11.2842 -11.2809 -11.2789 -11.2754
-11.2691 -11.2566 -11.2530 -11.2476 -11.2406  -9.0145  -9.0079  -8.9833
 -8.9814  -6.6951  -6.6942  -6.6940  -6.6887  -6.6880  -6.6870  -6.6643
 -6.6637  -6.6628  -6.6624  -6.6617  -6.6608  -1.6635  -1.4685  -1.4142
 -1.4105  -1.3712  -1.2346  -1.1898  -1.1646  -1.1402  -1.0852  -1.0481
 -1.0455  -1.0273  -0.9966  -0.9872  -0.9652  -0.9575  -0.9483  -0.9397
 -0.8924  -0.8720  -0.8432  -0.8116  -0.7984  -0.7876  -0.7826  -0.7621
 -0.7561  -0.7308  -0.7282  -0.7137  -0.7001  -0.6866  -0.6828  -0.6795
 -0.6750  -0.6604  -0.6567  -0.6501  -0.6289  -0.6178  -0.6165  -0.6087
 -0.6012  -0.5852  -0.5734  -0.5697  -0.5652  -0.5609  -0.5545  -0.5441
 -0.5318  -0.5245  -0.5203  -0.5169  -0.5121  -0.5079  -0.5056  -0.4943
 -0.4868  -0.4835  -0.4763  -0.4738  -0.4666  -0.4621  -0.4572  -0.4112
 -0.3897  -0.3831  -0.3562  -0.3522  -0.3246  -0.2934  -0.2500

          Ground-State Mulliken Net Atomic Charges

     Atom                 Charge (a.u.)
  ----------------------------------------
      1 C                    -0.197033
      2 C                    -0.253976
      3 S                    -0.028267
      4 C                    -0.021329
      5 H                     0.195237
      6 C                    -0.023668
      7 C                     0.232669
      8 C                     0.245834
      9 C                    -0.045151
     10 C                    -0.026036
     11 O                    -0.333907
     12 O                    -0.342194
     13 C                    -0.085838
     14 H                     0.121139
     15 H                     0.090911
     16 H                     0.092352
     17 C                    -0.087047
     18 H                     0.124762
     19 H                     0.094394
     20 H                     0.089233
     21 C                    -0.267394
     22 S                    -0.047218
     23 C                     0.040249
     24 H                     0.193218
     25 H                     0.204730
     26 C                    -0.200834
     27 S                     0.131942
     28 C                    -0.120375
     29 C                     0.053514
     30 C                    -0.105262
     31 S                     0.071765
     32 C                    -0.152383
     33 C                     0.399596
     34 F                    -0.204864
     35 C                     0.447941
     36 O                    -0.461544
     37 O                    -0.301200
     38 C                    -0.058096
     39 H                     0.121545
     40 H                     0.095452
     41 H                     0.095383
     42 H                     0.221748
  ----------------------------------------
  Sum of atomic charges =     0.000000

                    Cartesian Multipole Moments
 -----------------------------------------------------------------
    Charge (ESU x 10^10)
                 0.0000
    Dipole Moment (Debye)
         X       3.7432      Y       1.9662      Z       2.8809
       Tot       5.1164
    Quadrupole Moments (Debye-Ang)
        XX    -168.8917     XY       7.8688     YY    -180.7871
        XZ     -15.6522     YZ      -4.9389     ZZ    -199.4906

 Total job time:  331.55s(wall), 11048.53s(cpu)
        *  Thank you very much for using Q-Chem.  Have a nice day.  *
