 Q-Chem 5.4, Q-Chem, Inc., Pleasanton, CA (2021)
 Q-Chem 5.4.0 for Intel X86 EM64T Linux

User input:
--------------------------------------------------------------
$molecule
0 1
C	0.296276	-8.517702	-0.123330
C	-0.631143	-7.641575	0.421494
S	1.628795	-7.638634	-0.911611
C	-0.305097	-6.264785	0.233291
H	-1.535988	-7.966081	0.950737
C	0.931114	-6.072714	-0.478557
C	1.405737	-4.787049	-0.781346
C	-1.097747	-5.162801	0.664542
C	-0.624993	-3.874817	0.357854
C	0.613970	-3.683952	-0.352278
O	-2.226300	-5.499772	1.348709
O	2.538827	-4.459055	-1.469658
C	3.663102	-5.329063	-1.419319
H	4.516756	-4.755694	-1.828237
H	3.520769	-6.238095	-2.043793
H	3.895546	-5.637262	-0.377021
C	-3.298492	-4.572261	1.463351
H	-4.152945	-5.139743	1.878237
H	-3.585804	-4.153131	0.475176
H	-3.058230	-3.739531	2.159469
C	0.935761	-2.306654	-0.540664
S	-1.330550	-2.306501	0.780808
C	-0.000000	-1.435185	-0.000000
H	1.840780	-1.978138	-1.066946
H	0.296494	-9.614033	-0.127575
C	0.000000	0.000000	0.000000
S	0.783786	0.451972	1.507541
C	2.145261	1.238908	0.718873
C	0.783650	0.451572	-1.067872
C	1.986396	1.148648	-0.686410
S	0.574133	0.327317	-2.805516
C	2.088363	1.207943	-3.054530
C	2.700548	1.564221	-1.862551
F	3.855718	2.236706	-1.819088
C	2.477307	1.430318	-4.456084
O	1.814592	1.038482	-5.406510
O	3.643162	2.112042	-4.569225
C	4.074530	2.355061	-5.916207
H	5.024556	2.911627	-5.833064
H	3.322010	2.951860	-6.470168
H	4.229490	1.400910	-6.459293
H	2.944986	1.702260	1.306486
$end

$rem
JOBTYPE		SP
EXCHANGE	HF
CORRELATION	pRIMP2
BASIS		cc-pvtz
METHOD		rimp2
AUX_BASIS	rimp2-cc-pvtz
SOLVENT_METHOD	PCM
PURECART	11111
SYMMETRY	false
MEM_TOTAL	110000
SCF_CONVERGENCE = 6
THRESH=10
GUI = 2
$end

$solvent
dielectric 4.90
$end
--------------------------------------------------------------

             Standard Nuclear Orientation (Angstroms)
    I     Atom           X                Y                Z
 ----------------------------------------------------------------
    1      C       0.2962760000    -8.5177020000    -0.1233300000
    2      C      -0.6311430000    -7.6415750000     0.4214940000
    3      S       1.6287950000    -7.6386340000    -0.9116110000
    4      C      -0.3050970000    -6.2647850000     0.2332910000
    5      H      -1.5359880000    -7.9660810000     0.9507370000
    6      C       0.9311140000    -6.0727140000    -0.4785570000
    7      C       1.4057370000    -4.7870490000    -0.7813460000
    8      C      -1.0977470000    -5.1628010000     0.6645420000
    9      C      -0.6249930000    -3.8748170000     0.3578540000
   10      C       0.6139700000    -3.6839520000    -0.3522780000
   11      O      -2.2263000000    -5.4997720000     1.3487090000
   12      O       2.5388270000    -4.4590550000    -1.4696580000
   13      C       3.6631020000    -5.3290630000    -1.4193190000
   14      H       4.5167560000    -4.7556940000    -1.8282370000
   15      H       3.5207690000    -6.2380950000    -2.0437930000
   16      H       3.8955460000    -5.6372620000    -0.3770210000
   17      C      -3.2984920000    -4.5722610000     1.4633510000
   18      H      -4.1529450000    -5.1397430000     1.8782370000
   19      H      -3.5858040000    -4.1531310000     0.4751760000
   20      H      -3.0582300000    -3.7395310000     2.1594690000
   21      C       0.9357610000    -2.3066540000    -0.5406640000
   22      S      -1.3305500000    -2.3065010000     0.7808080000
   23      C       0.0000000000    -1.4351850000     0.0000000000
   24      H       1.8407800000    -1.9781380000    -1.0669460000
   25      H       0.2964940000    -9.6140330000    -0.1275750000
   26      C       0.0000000000     0.0000000000     0.0000000000
   27      S       0.7837860000     0.4519720000     1.5075410000
   28      C       2.1452610000     1.2389080000     0.7188730000
   29      C       0.7836500000     0.4515720000    -1.0678720000
   30      C       1.9863960000     1.1486480000    -0.6864100000
   31      S       0.5741330000     0.3273170000    -2.8055160000
   32      C       2.0883630000     1.2079430000    -3.0545300000
   33      C       2.7005480000     1.5642210000    -1.8625510000
   34      F       3.8557180000     2.2367060000    -1.8190880000
   35      C       2.4773070000     1.4303180000    -4.4560840000
   36      O       1.8145920000     1.0384820000    -5.4065100000
   37      O       3.6431620000     2.1120420000    -4.5692250000
   38      C       4.0745300000     2.3550610000    -5.9162070000
   39      H       5.0245560000     2.9116270000    -5.8330640000
   40      H       3.3220100000     2.9518600000    -6.4701680000
   41      H       4.2294900000     1.4009100000    -6.4592930000
   42      H       2.9449860000     1.7022600000     1.3064860000
 ----------------------------------------------------------------

   11   -2754.2531955971      4.11e-07  Convergence criterion met
 Total energy in the final basis set =    -2754.2531955971
        RIMP2         total energy =     -2759.3159097292 a.u.

                    Orbital Energies (a.u.)
 --------------------------------------------------------------

 Alpha MOs
 -- Occupied --
-92.0142 -92.0078 -91.9835 -91.9801 -26.3463 -20.6157 -20.5903 -20.5881
-20.5621 -11.4107 -11.3869 -11.3363 -11.3207 -11.3160 -11.3117 -11.2989
-11.2931 -11.2895 -11.2887 -11.2853 -11.2846 -11.2810 -11.2789 -11.2758
-11.2675 -11.2567 -11.2534 -11.2478 -11.2423  -9.0136  -9.0075  -8.9835
 -8.9810  -6.6942  -6.6933  -6.6930  -6.6884  -6.6876  -6.6866  -6.6645
 -6.6639  -6.6630  -6.6620  -6.6613  -6.6604  -1.6634  -1.4682  -1.4142
 -1.4110  -1.3710  -1.2339  -1.1899  -1.1644  -1.1398  -1.0848  -1.0481
 -1.0454  -1.0267  -0.9968  -0.9870  -0.9646  -0.9577  -0.9483  -0.9397
 -0.8923  -0.8716  -0.8428  -0.8118  -0.7977  -0.7877  -0.7828  -0.7623
 -0.7560  -0.7308  -0.7281  -0.7134  -0.7001  -0.6863  -0.6826  -0.6796
 -0.6748  -0.6601  -0.6568  -0.6504  -0.6286  -0.6180  -0.6163  -0.6090
 -0.6008  -0.5861  -0.5730  -0.5696  -0.5653  -0.5613  -0.5537  -0.5448
 -0.5317  -0.5237  -0.5199  -0.5172  -0.5119  -0.5083  -0.5045  -0.4939
 -0.4867  -0.4839  -0.4759  -0.4736  -0.4664  -0.4620  -0.4576  -0.4075
 -0.3903  -0.3835  -0.3583  -0.3485  -0.3227  -0.2958  -0.2511

          Ground-State Mulliken Net Atomic Charges

     Atom                 Charge (a.u.)
  ----------------------------------------
      1 C                    -0.196047
      2 C                    -0.254069
      3 S                    -0.028214
      4 C                    -0.020591
      5 H                     0.195309
      6 C                    -0.024529
      7 C                     0.232343
      8 C                     0.244712
      9 C                    -0.046415
     10 C                    -0.023219
     11 O                    -0.333914
     12 O                    -0.342200
     13 C                    -0.085720
     14 H                     0.121133
     15 H                     0.090815
     16 H                     0.092589
     17 C                    -0.087082
     18 H                     0.124628
     19 H                     0.094287
     20 H                     0.089426
     21 C                    -0.266515
     22 S                    -0.039575
     23 C                     0.034795
     24 H                     0.192396
     25 H                     0.204887
     26 C                    -0.190937
     27 S                     0.129570
     28 C                    -0.117814
     29 C                     0.044023
     30 C                    -0.111128
     31 S                     0.071544
     32 C                    -0.151603
     33 C                     0.401010
     34 F                    -0.204778
     35 C                     0.448032
     36 O                    -0.461658
     37 O                    -0.301247
     38 C                    -0.058124
     39 H                     0.121474
     40 H                     0.095392
     41 H                     0.095380
     42 H                     0.221633
  ----------------------------------------
  Sum of atomic charges =     0.000000

                    Cartesian Multipole Moments
 -----------------------------------------------------------------
    Charge (ESU x 10^10)
                 0.0000
    Dipole Moment (Debye)
         X       3.6906      Y       1.8123      Z       2.8654
       Tot       5.0115
    Quadrupole Moments (Debye-Ang)
        XX    -166.1175     XY       7.9273     YY    -180.1956
        XZ     -12.5145     YZ      -4.9732     ZZ    -202.4611

 Total job time:  336.97s(wall), 10369.43s(cpu)
        *  Thank you very much for using Q-Chem.  Have a nice day.  *
