 Q-Chem 5.4, Q-Chem, Inc., Pleasanton, CA (2021)
 Q-Chem 5.4.0 for Intel X86 EM64T Linux

User input:
--------------------------------------------------------------
$molecule
0 1
C	-0.014560	-8.517702	-0.320589
C	0.180211	-7.641575	0.737240
S	-0.299553	-7.638634	-1.842356
C	0.114873	-6.264785	0.366488
H	0.368061	-7.966081	1.768528
C	-0.131236	-6.072714	-1.038637
C	-0.253435	-4.787049	-1.588197
C	0.249014	-5.162801	1.258831
C	0.122513	-3.874817	0.709695
C	-0.121043	-3.683952	-0.697430
O	0.505933	-5.499772	2.553323
O	-0.512697	-4.459055	-2.888369
C	-0.080869	-5.329063	-3.927625
H	-0.173159	-4.755694	-4.869656
H	-0.716363	-6.238095	-4.007459
H	0.978072	-5.637262	-3.789565
C	0.246949	-4.572261	3.600064
H	0.344574	-5.139743	4.544887
H	-0.779898	-4.153131	3.532074
H	0.983261	-3.739531	3.612378
C	-0.188009	-2.306654	-1.064246
S	0.278644	-2.306501	1.517360
C	-0.000000	-1.435185	-0.000000
H	-0.373017	-1.978138	-2.094685
H	-0.018474	-9.614033	-0.322246
C	0.000000	0.000000	0.000000
S	0.783786	0.451972	1.507541
C	2.145261	1.238908	0.718873
C	0.783650	0.451572	-1.067872
C	1.986396	1.148648	-0.686410
S	0.574133	0.327317	-2.805516
C	2.088363	1.207943	-3.054530
C	2.700548	1.564221	-1.862551
F	3.855718	2.236706	-1.819088
C	2.477307	1.430318	-4.456084
O	1.814592	1.038482	-5.406510
O	3.643162	2.112042	-4.569225
C	4.074530	2.355061	-5.916207
H	5.024556	2.911627	-5.833064
H	3.322010	2.951860	-6.470168
H	4.229490	1.400910	-6.459293
H	2.944986	1.702260	1.306486
$end

$rem
JOBTYPE		SP
EXCHANGE	HF
CORRELATION	pRIMP2
BASIS		cc-pvtz
METHOD		rimp2
AUX_BASIS	rimp2-cc-pvtz
SOLVENT_METHOD	PCM
PURECART	11111
SYMMETRY	false
MEM_TOTAL	110000
SCF_CONVERGENCE = 6
THRESH=10
GUI = 2
$end

$solvent
dielectric 4.90
$end
--------------------------------------------------------------

             Standard Nuclear Orientation (Angstroms)
    I     Atom           X                Y                Z
 ----------------------------------------------------------------
    1      C      -0.0145600000    -8.5177020000    -0.3205890000
    2      C       0.1802110000    -7.6415750000     0.7372400000
    3      S      -0.2995530000    -7.6386340000    -1.8423560000
    4      C       0.1148730000    -6.2647850000     0.3664880000
    5      H       0.3680610000    -7.9660810000     1.7685280000
    6      C      -0.1312360000    -6.0727140000    -1.0386370000
    7      C      -0.2534350000    -4.7870490000    -1.5881970000
    8      C       0.2490140000    -5.1628010000     1.2588310000
    9      C       0.1225130000    -3.8748170000     0.7096950000
   10      C      -0.1210430000    -3.6839520000    -0.6974300000
   11      O       0.5059330000    -5.4997720000     2.5533230000
   12      O      -0.5126970000    -4.4590550000    -2.8883690000
   13      C      -0.0808690000    -5.3290630000    -3.9276250000
   14      H      -0.1731590000    -4.7556940000    -4.8696560000
   15      H      -0.7163630000    -6.2380950000    -4.0074590000
   16      H       0.9780720000    -5.6372620000    -3.7895650000
   17      C       0.2469490000    -4.5722610000     3.6000640000
   18      H       0.3445740000    -5.1397430000     4.5448870000
   19      H      -0.7798980000    -4.1531310000     3.5320740000
   20      H       0.9832610000    -3.7395310000     3.6123780000
   21      C      -0.1880090000    -2.3066540000    -1.0642460000
   22      S       0.2786440000    -2.3065010000     1.5173600000
   23      C       0.0000000000    -1.4351850000     0.0000000000
   24      H      -0.3730170000    -1.9781380000    -2.0946850000
   25      H      -0.0184740000    -9.6140330000    -0.3222460000
   26      C       0.0000000000     0.0000000000     0.0000000000
   27      S       0.7837860000     0.4519720000     1.5075410000
   28      C       2.1452610000     1.2389080000     0.7188730000
   29      C       0.7836500000     0.4515720000    -1.0678720000
   30      C       1.9863960000     1.1486480000    -0.6864100000
   31      S       0.5741330000     0.3273170000    -2.8055160000
   32      C       2.0883630000     1.2079430000    -3.0545300000
   33      C       2.7005480000     1.5642210000    -1.8625510000
   34      F       3.8557180000     2.2367060000    -1.8190880000
   35      C       2.4773070000     1.4303180000    -4.4560840000
   36      O       1.8145920000     1.0384820000    -5.4065100000
   37      O       3.6431620000     2.1120420000    -4.5692250000
   38      C       4.0745300000     2.3550610000    -5.9162070000
   39      H       5.0245560000     2.9116270000    -5.8330640000
   40      H       3.3220100000     2.9518600000    -6.4701680000
   41      H       4.2294900000     1.4009100000    -6.4592930000
   42      H       2.9449860000     1.7022600000     1.3064860000
 ----------------------------------------------------------------

   10   -2754.2419673303      8.71e-07  Convergence criterion met
 Total energy in the final basis set =    -2754.2419673303
        RIMP2         total energy =     -2759.3094045407 a.u.

                    Orbital Energies (a.u.)
 --------------------------------------------------------------

 Alpha MOs
 -- Occupied --
-92.0159 -92.0133 -91.9851 -91.9813 -26.3480 -20.6164 -20.5903 -20.5845
-20.5631 -11.4118 -11.3894 -11.3399 -11.3264 -11.3157 -11.3057 -11.3003
-11.2980 -11.2918 -11.2899 -11.2862 -11.2821 -11.2793 -11.2753 -11.2742
-11.2721 -11.2559 -11.2488 -11.2462 -11.2297  -9.0160  -9.0129  -8.9861
 -8.9813  -6.6966  -6.6957  -6.6955  -6.6937  -6.6930  -6.6920  -6.6670
 -6.6662  -6.6652  -6.6623  -6.6617  -6.6608  -1.6649  -1.4691  -1.4141
 -1.4074  -1.3719  -1.2381  -1.1887  -1.1656  -1.1407  -1.0859  -1.0481
 -1.0452  -1.0298  -0.9959  -0.9880  -0.9678  -0.9571  -0.9474  -0.9385
 -0.8928  -0.8738  -0.8445  -0.8132  -0.7993  -0.7862  -0.7810  -0.7608
 -0.7566  -0.7296  -0.7293  -0.7156  -0.6987  -0.6876  -0.6841  -0.6785
 -0.6756  -0.6614  -0.6562  -0.6483  -0.6292  -0.6159  -0.6151  -0.6046
 -0.6033  -0.5860  -0.5807  -0.5701  -0.5625  -0.5617  -0.5543  -0.5405
 -0.5353  -0.5311  -0.5230  -0.5166  -0.5132  -0.5095  -0.5022  -0.4946
 -0.4883  -0.4808  -0.4773  -0.4744  -0.4668  -0.4563  -0.4551  -0.4268
 -0.3922  -0.3781  -0.3630  -0.3418  -0.3299  -0.2909  -0.2430

          Ground-State Mulliken Net Atomic Charges

     Atom                 Charge (a.u.)
  ----------------------------------------
      1 C                    -0.204459
      2 C                    -0.252524
      3 S                    -0.030796
      4 C                    -0.030324
      5 H                     0.194291
      6 C                    -0.021766
      7 C                     0.223615
      8 C                     0.247148
      9 C                    -0.055792
     10 C                    -0.002839
     11 O                    -0.333321
     12 O                    -0.343502
     13 C                    -0.085965
     14 H                     0.121502
     15 H                     0.090006
     16 H                     0.091428
     17 C                    -0.088229
     18 H                     0.125250
     19 H                     0.094344
     20 H                     0.088481
     21 C                    -0.294577
     22 S                    -0.039924
     23 C                     0.011482
     24 H                     0.183585
     25 H                     0.203573
     26 C                    -0.129659
     27 S                     0.106555
     28 C                    -0.112030
     29 C                     0.096564
     30 C                    -0.126895
     31 S                     0.068693
     32 C                    -0.158449
     33 C                     0.401041
     34 F                    -0.202917
     35 C                     0.450250
     36 O                    -0.461491
     37 O                    -0.301259
     38 C                    -0.058059
     39 H                     0.121780
     40 H                     0.095439
     41 H                     0.095510
     42 H                     0.224241
  ----------------------------------------
  Sum of atomic charges =     0.000000

                    Cartesian Multipole Moments
 -----------------------------------------------------------------
    Charge (ESU x 10^10)
                -0.0000
    Dipole Moment (Debye)
         X       4.4134      Y       3.1338      Z       3.0583
       Tot       6.2171
    Quadrupole Moments (Debye-Ang)
        XX    -187.6355     XY       6.6764     YY    -187.3730
        XZ      -7.9318     YZ      -5.6241     ZZ    -179.5670

 Total job time:  1042.10s(wall), 9911.74s(cpu)
        *  Thank you very much for using Q-Chem.  Have a nice day.  *
