 Q-Chem 5.4, Q-Chem, Inc., Pleasanton, CA (2021)
 Q-Chem 5.4.0 for Intel X86 EM64T Linux

User input:
--------------------------------------------------------------
$molecule
0 1
C	-0.123330	-8.517702	-0.296276
C	0.421494	-7.641575	0.631143
S	-0.911611	-7.638634	-1.628795
C	0.233291	-6.264785	0.305097
H	0.950737	-7.966081	1.535988
C	-0.478557	-6.072714	-0.931114
C	-0.781346	-4.787049	-1.405737
C	0.664542	-5.162801	1.097747
C	0.357854	-3.874817	0.624993
C	-0.352278	-3.683952	-0.613970
O	1.348709	-5.499772	2.226300
O	-1.469658	-4.459055	-2.538827
C	-1.419319	-5.329063	-3.663102
H	-1.828237	-4.755694	-4.516756
H	-2.043793	-6.238095	-3.520769
H	-0.377021	-5.637262	-3.895546
C	1.463351	-4.572261	3.298492
H	1.878237	-5.139743	4.152945
H	0.475176	-4.153131	3.585804
H	2.159469	-3.739531	3.058230
C	-0.540664	-2.306654	-0.935761
S	0.780808	-2.306501	1.330550
C	-0.000000	-1.435185	-0.000000
H	-1.066946	-1.978138	-1.840780
H	-0.127575	-9.614033	-0.296494
C	0.000000	0.000000	0.000000
S	0.452792	0.783312	1.507541
C	1.238397	2.145556	0.718873
C	0.452875	0.782898	-1.067872
C	1.145945	1.987956	-0.686410
S	0.333556	0.570531	-2.805516
C	1.204604	2.090290	-3.054530
C	1.556633	2.704929	-1.862551
F	2.220797	3.864903	-1.819088
C	1.430252	2.477345	-4.456084
O	1.052242	1.806648	-5.406510
O	2.099050	3.650663	-4.569225
C	2.351116	4.076808	-5.916207
H	2.895579	5.033821	-5.833064
H	1.401015	4.217390	-6.470168
H	2.962391	3.327969	-6.459293
H	1.699302	2.946693	1.306486
$end

$rem
JOBTYPE		SP
EXCHANGE	HF
CORRELATION	pRIMP2
BASIS		cc-pvtz
METHOD		rimp2
AUX_BASIS	rimp2-cc-pvtz
SOLVENT_METHOD	PCM
PURECART	11111
SYMMETRY	false
MEM_TOTAL	110000
SCF_CONVERGENCE = 6
THRESH=10
GUI = 2
$end

$solvent
dielectric 4.90
$end
--------------------------------------------------------------

             Standard Nuclear Orientation (Angstroms)
    I     Atom           X                Y                Z
 ----------------------------------------------------------------
    1      C      -0.1233300000    -8.5177020000    -0.2962760000
    2      C       0.4214940000    -7.6415750000     0.6311430000
    3      S      -0.9116110000    -7.6386340000    -1.6287950000
    4      C       0.2332910000    -6.2647850000     0.3050970000
    5      H       0.9507370000    -7.9660810000     1.5359880000
    6      C      -0.4785570000    -6.0727140000    -0.9311140000
    7      C      -0.7813460000    -4.7870490000    -1.4057370000
    8      C       0.6645420000    -5.1628010000     1.0977470000
    9      C       0.3578540000    -3.8748170000     0.6249930000
   10      C      -0.3522780000    -3.6839520000    -0.6139700000
   11      O       1.3487090000    -5.4997720000     2.2263000000
   12      O      -1.4696580000    -4.4590550000    -2.5388270000
   13      C      -1.4193190000    -5.3290630000    -3.6631020000
   14      H      -1.8282370000    -4.7556940000    -4.5167560000
   15      H      -2.0437930000    -6.2380950000    -3.5207690000
   16      H      -0.3770210000    -5.6372620000    -3.8955460000
   17      C       1.4633510000    -4.5722610000     3.2984920000
   18      H       1.8782370000    -5.1397430000     4.1529450000
   19      H       0.4751760000    -4.1531310000     3.5858040000
   20      H       2.1594690000    -3.7395310000     3.0582300000
   21      C      -0.5406640000    -2.3066540000    -0.9357610000
   22      S       0.7808080000    -2.3065010000     1.3305500000
   23      C       0.0000000000    -1.4351850000     0.0000000000
   24      H      -1.0669460000    -1.9781380000    -1.8407800000
   25      H      -0.1275750000    -9.6140330000    -0.2964940000
   26      C       0.0000000000     0.0000000000     0.0000000000
   27      S       0.4527920000     0.7833120000     1.5075410000
   28      C       1.2383970000     2.1455560000     0.7188730000
   29      C       0.4528750000     0.7828980000    -1.0678720000
   30      C       1.1459450000     1.9879560000    -0.6864100000
   31      S       0.3335560000     0.5705310000    -2.8055160000
   32      C       1.2046040000     2.0902900000    -3.0545300000
   33      C       1.5566330000     2.7049290000    -1.8625510000
   34      F       2.2207970000     3.8649030000    -1.8190880000
   35      C       1.4302520000     2.4773450000    -4.4560840000
   36      O       1.0522420000     1.8066480000    -5.4065100000
   37      O       2.0990500000     3.6506630000    -4.5692250000
   38      C       2.3511160000     4.0768080000    -5.9162070000
   39      H       2.8955790000     5.0338210000    -5.8330640000
   40      H       1.4010150000     4.2173900000    -6.4701680000
   41      H       2.9623910000     3.3279690000    -6.4592930000
   42      H       1.6993020000     2.9466930000     1.3064860000
 ----------------------------------------------------------------

   10   -2754.3001215053      7.04e-07  Convergence criterion met
 Total energy in the final basis set =    -2754.3001215053
        RIMP2         total energy =     -2759.3559807743 a.u.

                    Orbital Energies (a.u.)
 --------------------------------------------------------------

 Alpha MOs
 -- Occupied --
-92.0157 -92.0020 -91.9905 -91.9850 -26.3444 -20.6151 -20.5923 -20.5892
-20.5617 -11.4099 -11.3841 -11.3190 -11.3169 -11.3143 -11.3065 -11.2982
-11.2965 -11.2946 -11.2890 -11.2874 -11.2870 -11.2846 -11.2833 -11.2830
-11.2776 -11.2602 -11.2562 -11.2490 -11.2489  -9.0146  -9.0019  -8.9910
 -8.9850  -6.6954  -6.6948  -6.6943  -6.6828  -6.6821  -6.6810  -6.6719
 -6.6712  -6.6702  -6.6659  -6.6653  -6.6645  -1.6614  -1.4676  -1.4163
 -1.4121  -1.3704  -1.2251  -1.1932  -1.1654  -1.1379  -1.0848  -1.0506
 -1.0431  -1.0248  -1.0004  -0.9877  -0.9643  -0.9595  -0.9497  -0.9391
 -0.8954  -0.8693  -0.8500  -0.8096  -0.7978  -0.7873  -0.7853  -0.7634
 -0.7557  -0.7327  -0.7262  -0.7111  -0.7010  -0.6857  -0.6822  -0.6812
 -0.6742  -0.6587  -0.6585  -0.6514  -0.6297  -0.6188  -0.6163  -0.6031
 -0.5998  -0.5879  -0.5778  -0.5705  -0.5649  -0.5609  -0.5555  -0.5446
 -0.5348  -0.5309  -0.5215  -0.5174  -0.5163  -0.5115  -0.5045  -0.4946
 -0.4873  -0.4823  -0.4754  -0.4747  -0.4688  -0.4652  -0.4606  -0.4227
 -0.3957  -0.3832  -0.3593  -0.3490  -0.3251  -0.2916  -0.2502

          Ground-State Mulliken Net Atomic Charges

     Atom                 Charge (a.u.)
  ----------------------------------------
      1 C                    -0.193035
      2 C                    -0.253925
      3 S                    -0.023952
      4 C                    -0.019128
      5 H                     0.195674
      6 C                    -0.025510
      7 C                     0.235245
      8 C                     0.241376
      9 C                    -0.048997
     10 C                    -0.016298
     11 O                    -0.332931
     12 O                    -0.341040
     13 C                    -0.085765
     14 H                     0.122747
     15 H                     0.090635
     16 H                     0.093493
     17 C                    -0.088121
     18 H                     0.125519
     19 H                     0.094562
     20 H                     0.089380
     21 C                    -0.261364
     22 S                    -0.021636
     23 C                    -0.017631
     24 H                     0.195232
     25 H                     0.205642
     26 C                    -0.017099
     27 S                     0.082944
     28 C                    -0.163756
     29 C                     0.032511
     30 C                    -0.109353
     31 S                     0.019903
     32 C                    -0.155514
     33 C                     0.397109
     34 F                    -0.205408
     35 C                     0.446663
     36 O                    -0.460800
     37 O                    -0.301052
     38 C                    -0.058372
     39 H                     0.121488
     40 H                     0.095174
     41 H                     0.095233
     42 H                     0.220156
  ----------------------------------------
  Sum of atomic charges =     0.000000

                    Cartesian Multipole Moments
 -----------------------------------------------------------------
    Charge (ESU x 10^10)
                 0.0000
    Dipole Moment (Debye)
         X       2.0033      Y       1.7409      Z       2.9765
       Tot       3.9879
    Quadrupole Moments (Debye-Ang)
        XX    -196.0079     XY       5.8394     YY    -167.2086
        XZ       3.0828     YZ      -6.2323     ZZ    -182.7345

 Total job time:  288.70s(wall), 8825.71s(cpu)
        *  Thank you very much for using Q-Chem.  Have a nice day.  *
