 Q-Chem 5.4, Q-Chem, Inc., Pleasanton, CA (2021)
 Q-Chem 5.4.0 for Intel X86 EM64T Linux

User input:
--------------------------------------------------------------
$molecule
0 1
C	0.172904	-8.517702	0.270358
C	-0.524688	-7.641575	-0.548363
S	1.180599	-7.638634	1.445750
C	-0.282727	-6.264785	-0.259951
H	-1.203014	-7.966081	-1.347559
C	0.632972	-6.072714	0.833868
C	1.013580	-4.787049	1.248701
C	-0.845068	-5.162801	-0.965673
C	-0.460946	-3.874817	-0.553357
C	0.453541	-3.683952	0.543470
O	-1.714812	-5.499772	-1.958276
O	1.888193	-4.459055	2.245053
C	2.033848	-5.329063	3.360989
H	2.584788	-4.755694	4.130667
H	2.624118	-6.238095	3.112380
H	1.047748	-5.637262	3.770895
C	-2.013896	-4.572261	-2.994272
H	-2.570853	-5.139743	-3.763700
H	-1.090625	-4.153131	-3.448815
H	-2.657717	-3.739531	-2.636780
C	0.694943	-2.306654	0.827659
S	-0.999993	-2.306501	-1.174750
C	-0.000000	-1.435185	-0.000000
H	1.370385	-1.978138	1.627541
H	0.177122	-9.614033	0.269836
C	0.000000	0.000000	0.000000
S	0.079327	0.901280	1.507541
C	0.215617	2.467903	0.718873
C	0.079577	0.900940	-1.067872
C	0.198433	2.285998	-0.686410
S	0.061187	0.658044	-2.805516
C	0.208347	2.403534	-3.054530
C	0.267636	3.109360	-1.862551
F	0.379347	4.441341	-1.819088
C	0.249278	2.849688	-4.456084
O	0.190132	2.082076	-5.406510
O	0.359548	4.195721	-4.569225
C	0.407901	4.688467	-5.916207
H	0.496901	5.785916	-5.833064
H	-0.512596	4.414348	-6.470168
H	1.278377	4.268124	-6.459293
H	0.294764	3.388767	1.306486
$end

$rem
JOBTYPE		SP
EXCHANGE	HF
CORRELATION	pRIMP2
BASIS		cc-pvtz
METHOD		rimp2
AUX_BASIS	rimp2-cc-pvtz
SOLVENT_METHOD	PCM
PURECART	11111
SYMMETRY	false
MEM_TOTAL	110000
SCF_CONVERGENCE = 6
THRESH=10
GUI = 2
$end

$solvent
dielectric 4.90
$end
--------------------------------------------------------------

             Standard Nuclear Orientation (Angstroms)
    I     Atom           X                Y                Z
 ----------------------------------------------------------------
    1      C       0.1729040000    -8.5177020000     0.2703580000
    2      C      -0.5246880000    -7.6415750000    -0.5483630000
    3      S       1.1805990000    -7.6386340000     1.4457500000
    4      C      -0.2827270000    -6.2647850000    -0.2599510000
    5      H      -1.2030140000    -7.9660810000    -1.3475590000
    6      C       0.6329720000    -6.0727140000     0.8338680000
    7      C       1.0135800000    -4.7870490000     1.2487010000
    8      C      -0.8450680000    -5.1628010000    -0.9656730000
    9      C      -0.4609460000    -3.8748170000    -0.5533570000
   10      C       0.4535410000    -3.6839520000     0.5434700000
   11      O      -1.7148120000    -5.4997720000    -1.9582760000
   12      O       1.8881930000    -4.4590550000     2.2450530000
   13      C       2.0338480000    -5.3290630000     3.3609890000
   14      H       2.5847880000    -4.7556940000     4.1306670000
   15      H       2.6241180000    -6.2380950000     3.1123800000
   16      H       1.0477480000    -5.6372620000     3.7708950000
   17      C      -2.0138960000    -4.5722610000    -2.9942720000
   18      H      -2.5708530000    -5.1397430000    -3.7637000000
   19      H      -1.0906250000    -4.1531310000    -3.4488150000
   20      H      -2.6577170000    -3.7395310000    -2.6367800000
   21      C       0.6949430000    -2.3066540000     0.8276590000
   22      S      -0.9999930000    -2.3065010000    -1.1747500000
   23      C       0.0000000000    -1.4351850000     0.0000000000
   24      H       1.3703850000    -1.9781380000     1.6275410000
   25      H       0.1771220000    -9.6140330000     0.2698360000
   26      C       0.0000000000     0.0000000000     0.0000000000
   27      S       0.0793270000     0.9012800000     1.5075410000
   28      C       0.2156170000     2.4679030000     0.7188730000
   29      C       0.0795770000     0.9009400000    -1.0678720000
   30      C       0.1984330000     2.2859980000    -0.6864100000
   31      S       0.0611870000     0.6580440000    -2.8055160000
   32      C       0.2083470000     2.4035340000    -3.0545300000
   33      C       0.2676360000     3.1093600000    -1.8625510000
   34      F       0.3793470000     4.4413410000    -1.8190880000
   35      C       0.2492780000     2.8496880000    -4.4560840000
   36      O       0.1901320000     2.0820760000    -5.4065100000
   37      O       0.3595480000     4.1957210000    -4.5692250000
   38      C       0.4079010000     4.6884670000    -5.9162070000
   39      H       0.4969010000     5.7859160000    -5.8330640000
   40      H      -0.5125960000     4.4143480000    -6.4701680000
   41      H       1.2783770000     4.2681240000    -6.4592930000
   42      H       0.2947640000     3.3887670000     1.3064860000
 ----------------------------------------------------------------

   10   -2754.3164392220      7.22e-07  Convergence criterion met
 Total energy in the final basis set =    -2754.3164392220
        RIMP2         total energy =     -2759.3678713822 a.u.

                    Orbital Energies (a.u.)
 --------------------------------------------------------------

 Alpha MOs
 -- Occupied --
-92.0155 -91.9974 -91.9907 -91.9865 -26.3428 -20.6145 -20.5924 -20.5917
-20.5609 -11.4090 -11.3818 -11.3198 -11.3179 -11.3087 -11.3007 -11.2995
-11.2968 -11.2961 -11.2886 -11.2867 -11.2866 -11.2864 -11.2847 -11.2844
-11.2797 -11.2618 -11.2589 -11.2567 -11.2501  -9.0139  -8.9975  -8.9912
 -8.9864  -6.6946  -6.6941  -6.6935  -6.6785  -6.6778  -6.6766  -6.6721
 -6.6715  -6.6705  -6.6674  -6.6668  -6.6659  -1.6599  -1.4669  -1.4165
 -1.4144  -1.3696  -1.2211  -1.1949  -1.1659  -1.1357  -1.0855  -1.0523
 -1.0411  -1.0230  -1.0022  -0.9882  -0.9637  -0.9589  -0.9502  -0.9400
 -0.8960  -0.8673  -0.8519  -0.8134  -0.7917  -0.7874  -0.7873  -0.7653
 -0.7551  -0.7342  -0.7248  -0.7098  -0.6993  -0.6852  -0.6836  -0.6810
 -0.6736  -0.6593  -0.6576  -0.6528  -0.6307  -0.6201  -0.6169  -0.6037
 -0.5973  -0.5858  -0.5773  -0.5695  -0.5675  -0.5623  -0.5559  -0.5528
 -0.5317  -0.5297  -0.5227  -0.5177  -0.5169  -0.5100  -0.5058  -0.4946
 -0.4886  -0.4784  -0.4771  -0.4735  -0.4705  -0.4657  -0.4605  -0.4188
 -0.3960  -0.3860  -0.3591  -0.3497  -0.3236  -0.2911  -0.2534

          Ground-State Mulliken Net Atomic Charges

     Atom                 Charge (a.u.)
  ----------------------------------------
      1 C                    -0.188989
      2 C                    -0.253425
      3 S                    -0.022059
      4 C                    -0.015252
      5 H                     0.196542
      6 C                    -0.027734
      7 C                     0.241055
      8 C                     0.241870
      9 C                    -0.043958
     10 C                    -0.025970
     11 O                    -0.333162
     12 O                    -0.340357
     13 C                    -0.085840
     14 H                     0.122445
     15 H                     0.091380
     16 H                     0.093888
     17 C                    -0.088100
     18 H                     0.125174
     19 H                     0.095942
     20 H                     0.090027
     21 C                    -0.249650
     22 S                    -0.012887
     23 C                    -0.004073
     24 H                     0.196344
     25 H                     0.206390
     26 C                    -0.002739
     27 S                     0.096914
     28 C                    -0.185587
     29 C                     0.004444
     30 C                    -0.116996
     31 S                     0.006184
     32 C                    -0.155612
     33 C                     0.397091
     34 F                    -0.207040
     35 C                     0.444527
     36 O                    -0.460969
     37 O                    -0.300583
     38 C                    -0.058694
     39 H                     0.121320
     40 H                     0.095041
     41 H                     0.095052
     42 H                     0.218044
  ----------------------------------------
  Sum of atomic charges =     0.000000

                    Cartesian Multipole Moments
 -----------------------------------------------------------------
    Charge (ESU x 10^10)
                -0.0000
    Dipole Moment (Debye)
         X      -0.0575      Y       0.9438      Z       3.0556
       Tot       3.1986
    Quadrupole Moments (Debye-Ang)
        XX    -197.0194     XY       2.4468     YY    -159.6363
        XZ       9.6157     YZ      -8.2765     ZZ    -186.2994

 Total job time:  285.70s(wall), 9267.36s(cpu)
        *  Thank you very much for using Q-Chem.  Have a nice day.  *
