 Q-Chem 5.4, Q-Chem, Inc., Pleasanton, CA (2021)
 Q-Chem 5.4.0 for Intel X86 EM64T Linux

User input:
--------------------------------------------------------------
$molecule
0 1
C	-0.236226	-8.517702	0.217225
C	0.448921	-7.641575	-0.611939
S	-1.218777	-7.638634	1.413715
C	0.206907	-6.264785	-0.323572
H	1.118185	-7.966081	-1.418739
C	-0.711285	-6.072714	0.768156
C	-1.053725	-4.787049	1.215016
C	0.804258	-5.162801	-0.999917
C	0.464908	-3.874817	-0.550033
C	-0.456457	-3.683952	0.541024
O	1.630752	-5.499772	-2.028811
O	-1.883064	-4.459055	2.249357
C	-2.956754	-5.329063	2.586579
H	-3.619069	-4.755694	3.262802
H	-2.609423	-6.238095	3.124711
H	-3.531667	-5.637262	1.686639
C	2.599073	-4.572261	-2.503251
H	3.260097	-5.139743	-3.185356
H	3.207034	-4.153131	-1.672937
H	2.135214	-3.739531	-3.075213
C	-0.694410	-2.306654	0.828107
S	0.983256	-2.306501	-1.188794
C	0.000000	-1.435185	0.000000
H	-1.364851	-1.978138	1.632185
H	-0.234980	-9.614033	0.221288
C	0.000000	0.000000	0.000000
S	0.000474	0.904764	1.507541
C	-0.000295	2.477305	0.718873
C	0.000752	0.904447	-1.067872
C	-0.001560	2.294593	-0.686410
S	0.003602	0.660872	-2.805516
C	-0.001928	2.412546	-3.054530
C	-0.004381	3.120854	-1.862551
F	-0.009185	4.457503	-1.819088
C	-0.000038	2.860570	-4.456084
O	0.007944	2.090724	-5.406510
O	-0.007501	4.211092	-4.569225
C	-0.002278	4.706177	-5.916207
H	-0.009265	5.807207	-5.833064
H	-0.895381	4.352875	-6.470168
H	0.901521	4.363301	-6.459293
H	-0.001708	3.401562	1.306486
$end

$rem
JOBTYPE		SP
EXCHANGE	HF
CORRELATION	pRIMP2
BASIS		cc-pvtz
METHOD		rimp2
AUX_BASIS	rimp2-cc-pvtz
SOLVENT_METHOD	PCM
PURECART	11111
SYMMETRY	false
MEM_TOTAL	110000
SCF_CONVERGENCE = 6
THRESH=10
GUI = 2
$end

$solvent
dielectric 4.90
$end
--------------------------------------------------------------

             Standard Nuclear Orientation (Angstroms)
    I     Atom           X                Y                Z
 ----------------------------------------------------------------
    1      C      -0.2362260000    -8.5177020000     0.2172250000
    2      C       0.4489210000    -7.6415750000    -0.6119390000
    3      S      -1.2187770000    -7.6386340000     1.4137150000
    4      C       0.2069070000    -6.2647850000    -0.3235720000
    5      H       1.1181850000    -7.9660810000    -1.4187390000
    6      C      -0.7112850000    -6.0727140000     0.7681560000
    7      C      -1.0537250000    -4.7870490000     1.2150160000
    8      C       0.8042580000    -5.1628010000    -0.9999170000
    9      C       0.4649080000    -3.8748170000    -0.5500330000
   10      C      -0.4564570000    -3.6839520000     0.5410240000
   11      O       1.6307520000    -5.4997720000    -2.0288110000
   12      O      -1.8830640000    -4.4590550000     2.2493570000
   13      C      -2.9567540000    -5.3290630000     2.5865790000
   14      H      -3.6190690000    -4.7556940000     3.2628020000
   15      H      -2.6094230000    -6.2380950000     3.1247110000
   16      H      -3.5316670000    -5.6372620000     1.6866390000
   17      C       2.5990730000    -4.5722610000    -2.5032510000
   18      H       3.2600970000    -5.1397430000    -3.1853560000
   19      H       3.2070340000    -4.1531310000    -1.6729370000
   20      H       2.1352140000    -3.7395310000    -3.0752130000
   21      C      -0.6944100000    -2.3066540000     0.8281070000
   22      S       0.9832560000    -2.3065010000    -1.1887940000
   23      C       0.0000000000    -1.4351850000     0.0000000000
   24      H      -1.3648510000    -1.9781380000     1.6321850000
   25      H      -0.2349800000    -9.6140330000     0.2212880000
   26      C       0.0000000000     0.0000000000     0.0000000000
   27      S       0.0004740000     0.9047640000     1.5075410000
   28      C      -0.0002950000     2.4773050000     0.7188730000
   29      C       0.0007520000     0.9044470000    -1.0678720000
   30      C      -0.0015600000     2.2945930000    -0.6864100000
   31      S       0.0036020000     0.6608720000    -2.8055160000
   32      C      -0.0019280000     2.4125460000    -3.0545300000
   33      C      -0.0043810000     3.1208540000    -1.8625510000
   34      F      -0.0091850000     4.4575030000    -1.8190880000
   35      C      -0.0000380000     2.8605700000    -4.4560840000
   36      O       0.0079440000     2.0907240000    -5.4065100000
   37      O      -0.0075010000     4.2110920000    -4.5692250000
   38      C      -0.0022780000     4.7061770000    -5.9162070000
   39      H      -0.0092650000     5.8072070000    -5.8330640000
   40      H      -0.8953810000     4.3528750000    -6.4701680000
   41      H       0.9015210000     4.3633010000    -6.4592930000
   42      H      -0.0017080000     3.4015620000     1.3064860000
 ----------------------------------------------------------------

   10   -2754.3167342703      7.28e-07  Convergence criterion met
 Total energy in the final basis set =    -2754.3167342703
        RIMP2         total energy =     -2759.3681361812 a.u.

                    Orbital Energies (a.u.)
 --------------------------------------------------------------

 Alpha MOs
 -- Occupied --
-92.0155 -91.9973 -91.9908 -91.9866 -26.3428 -20.6145 -20.5925 -20.5918
-20.5609 -11.4090 -11.3817 -11.3198 -11.3180 -11.3084 -11.3007 -11.2993
-11.2968 -11.2959 -11.2886 -11.2868 -11.2866 -11.2864 -11.2847 -11.2844
-11.2798 -11.2618 -11.2590 -11.2569 -11.2501  -9.0138  -8.9974  -8.9912
 -8.9865  -6.6946  -6.6940  -6.6935  -6.6784  -6.6776  -6.6765  -6.6721
 -6.6715  -6.6705  -6.6675  -6.6669  -6.6660  -1.6599  -1.4669  -1.4166
 -1.4145  -1.3696  -1.2211  -1.1949  -1.1660  -1.1356  -1.0855  -1.0524
 -1.0410  -1.0229  -1.0023  -0.9882  -0.9637  -0.9589  -0.9502  -0.9400
 -0.8961  -0.8672  -0.8520  -0.8133  -0.7917  -0.7874  -0.7872  -0.7653
 -0.7551  -0.7342  -0.7247  -0.7097  -0.6993  -0.6852  -0.6836  -0.6810
 -0.6735  -0.6593  -0.6577  -0.6528  -0.6308  -0.6202  -0.6170  -0.6038
 -0.5971  -0.5853  -0.5778  -0.5702  -0.5672  -0.5591  -0.5572  -0.5535
 -0.5318  -0.5296  -0.5248  -0.5173  -0.5161  -0.5088  -0.5071  -0.4962
 -0.4885  -0.4787  -0.4763  -0.4735  -0.4697  -0.4655  -0.4599  -0.4199
 -0.3962  -0.3857  -0.3589  -0.3498  -0.3239  -0.2905  -0.2536

          Ground-State Mulliken Net Atomic Charges

     Atom                 Charge (a.u.)
  ----------------------------------------
      1 C                    -0.188804
      2 C                    -0.253345
      3 S                    -0.022251
      4 C                    -0.016339
      5 H                     0.196587
      6 C                    -0.027748
      7 C                     0.243497
      8 C                     0.241323
      9 C                    -0.041844
     10 C                    -0.023500
     11 O                    -0.333008
     12 O                    -0.340145
     13 C                    -0.085782
     14 H                     0.122510
     15 H                     0.091082
     16 H                     0.094298
     17 C                    -0.087638
     18 H                     0.125430
     19 H                     0.094791
     20 H                     0.090874
     21 C                    -0.254610
     22 S                    -0.017117
     23 C                    -0.001502
     24 H                     0.195769
     25 H                     0.206454
     26 C                     0.009202
     27 S                     0.099691
     28 C                    -0.188489
     29 C                    -0.010168
     30 C                    -0.113508
     31 S                     0.007154
     32 C                    -0.156452
     33 C                     0.397604
     34 F                    -0.207214
     35 C                     0.444022
     36 O                    -0.460915
     37 O                    -0.300582
     38 C                    -0.058696
     39 H                     0.121317
     40 H                     0.095143
     41 H                     0.094975
     42 H                     0.217935
  ----------------------------------------
  Sum of atomic charges =     0.000000

                    Cartesian Multipole Moments
 -----------------------------------------------------------------
    Charge (ESU x 10^10)
                -0.0000
    Dipole Moment (Debye)
         X      -0.0885      Y       0.9181      Z       2.7502
       Tot       2.9007
    Quadrupole Moments (Debye-Ang)
        XX    -185.8574     XY       1.1029     YY    -159.4040
        XZ     -12.1355     YZ      -6.4993     ZZ    -197.5475

 Total job time:  304.79s(wall), 9321.35s(cpu)
        *  Thank you very much for using Q-Chem.  Have a nice day.  *
