 Q-Chem 5.4, Q-Chem, Inc., Pleasanton, CA (2021)
 Q-Chem 5.4.0 for Intel X86 EM64T Linux

User input:
--------------------------------------------------------------
$molecule
0 1
C	0.041330	-8.517702	-0.318247
C	0.049453	-7.641575	0.757333
S	0.024919	-7.638634	-1.866383
C	0.049488	-6.264785	0.380867
H	0.055368	-7.966081	1.805573
C	0.051115	-6.072714	-1.045647
C	0.026203	-4.787049	-1.608077
C	0.026637	-5.162801	1.282948
C	-0.002586	-3.874817	0.720187
C	0.001903	-3.683952	-0.707853
O	0.054867	-5.499772	2.602386
O	-0.003348	-4.459055	-2.933517
C	0.602384	-5.329063	-3.881999
H	0.675079	-4.755694	-4.825744
H	-0.009592	-6.238095	-4.070972
H	1.621263	-5.637262	-3.562152
C	-0.381947	-4.572261	3.588253
H	-0.449872	-5.139743	4.535674
H	-1.381388	-4.153131	3.342986
H	0.341040	-3.739531	3.728239
C	-0.000348	-2.306654	-1.080725
S	0.010924	-2.306501	1.542694
C	0.000000	-1.435185	0.000000
H	-0.003612	-1.978138	-2.127635
H	0.037764	-9.614033	-0.320559
C	0.000000	0.000000	0.000000
S	0.000474	0.904764	1.507541
C	-0.000295	2.477305	0.718873
C	0.000752	0.904447	-1.067872
C	-0.001560	2.294593	-0.686410
S	0.003602	0.660872	-2.805516
C	-0.001928	2.412546	-3.054530
C	-0.004381	3.120854	-1.862551
F	-0.009185	4.457503	-1.819088
C	-0.000038	2.860570	-4.456084
O	0.007944	2.090724	-5.406510
O	-0.007501	4.211092	-4.569225
C	-0.002278	4.706177	-5.916207
H	-0.009265	5.807207	-5.833064
H	-0.895381	4.352875	-6.470168
H	0.901521	4.363301	-6.459293
H	-0.001708	3.401562	1.306486
$end

$rem
JOBTYPE		SP
EXCHANGE	HF
CORRELATION	pRIMP2
BASIS		cc-pvtz
METHOD		rimp2
AUX_BASIS	rimp2-cc-pvtz
SOLVENT_METHOD	PCM
PURECART	11111
SYMMETRY	false
MEM_TOTAL	110000
SCF_CONVERGENCE = 6
THRESH=10
GUI = 2
$end

$solvent
dielectric 4.90
$end
--------------------------------------------------------------

             Standard Nuclear Orientation (Angstroms)
    I     Atom           X                Y                Z
 ----------------------------------------------------------------
    1      C       0.0413300000    -8.5177020000    -0.3182470000
    2      C       0.0494530000    -7.6415750000     0.7573330000
    3      S       0.0249190000    -7.6386340000    -1.8663830000
    4      C       0.0494880000    -6.2647850000     0.3808670000
    5      H       0.0553680000    -7.9660810000     1.8055730000
    6      C       0.0511150000    -6.0727140000    -1.0456470000
    7      C       0.0262030000    -4.7870490000    -1.6080770000
    8      C       0.0266370000    -5.1628010000     1.2829480000
    9      C      -0.0025860000    -3.8748170000     0.7201870000
   10      C       0.0019030000    -3.6839520000    -0.7078530000
   11      O       0.0548670000    -5.4997720000     2.6023860000
   12      O      -0.0033480000    -4.4590550000    -2.9335170000
   13      C       0.6023840000    -5.3290630000    -3.8819990000
   14      H       0.6750790000    -4.7556940000    -4.8257440000
   15      H      -0.0095920000    -6.2380950000    -4.0709720000
   16      H       1.6212630000    -5.6372620000    -3.5621520000
   17      C      -0.3819470000    -4.5722610000     3.5882530000
   18      H      -0.4498720000    -5.1397430000     4.5356740000
   19      H      -1.3813880000    -4.1531310000     3.3429860000
   20      H       0.3410400000    -3.7395310000     3.7282390000
   21      C      -0.0003480000    -2.3066540000    -1.0807250000
   22      S       0.0109240000    -2.3065010000     1.5426940000
   23      C       0.0000000000    -1.4351850000     0.0000000000
   24      H      -0.0036120000    -1.9781380000    -2.1276350000
   25      H       0.0377640000    -9.6140330000    -0.3205590000
   26      C       0.0000000000     0.0000000000     0.0000000000
   27      S       0.0004740000     0.9047640000     1.5075410000
   28      C      -0.0002950000     2.4773050000     0.7188730000
   29      C       0.0007520000     0.9044470000    -1.0678720000
   30      C      -0.0015600000     2.2945930000    -0.6864100000
   31      S       0.0036020000     0.6608720000    -2.8055160000
   32      C      -0.0019280000     2.4125460000    -3.0545300000
   33      C      -0.0043810000     3.1208540000    -1.8625510000
   34      F      -0.0091850000     4.4575030000    -1.8190880000
   35      C      -0.0000380000     2.8605700000    -4.4560840000
   36      O       0.0079440000     2.0907240000    -5.4065100000
   37      O      -0.0075010000     4.2110920000    -4.5692250000
   38      C      -0.0022780000     4.7061770000    -5.9162070000
   39      H      -0.0092650000     5.8072070000    -5.8330640000
   40      H      -0.8953810000     4.3528750000    -6.4701680000
   41      H       0.9015210000     4.3633010000    -6.4592930000
   42      H      -0.0017080000     3.4015620000     1.3064860000
 ----------------------------------------------------------------

   10   -2754.3165085715      7.67e-07  Convergence criterion met
 Total energy in the final basis set =    -2754.3165085715
        RIMP2         total energy =     -2759.3692391578 a.u.

                    Orbital Energies (a.u.)
 --------------------------------------------------------------

 Alpha MOs
 -- Occupied --
-92.0165 -91.9998 -91.9915 -91.9865 -26.3437 -20.6149 -20.5932 -20.5911
-20.5614 -11.4096 -11.3831 -11.3203 -11.3177 -11.3102 -11.3025 -11.2994
-11.2980 -11.2979 -11.2888 -11.2879 -11.2874 -11.2861 -11.2854 -11.2845
-11.2796 -11.2626 -11.2590 -11.2566 -11.2501  -9.0152  -8.9998  -8.9922
 -8.9864  -6.6960  -6.6954  -6.6949  -6.6808  -6.6801  -6.6790  -6.6732
 -6.6725  -6.6715  -6.6674  -6.6668  -6.6659  -1.6607  -1.4674  -1.4172
 -1.4138  -1.3701  -1.2223  -1.1954  -1.1667  -1.1371  -1.0861  -1.0526
 -1.0422  -1.0240  -1.0023  -0.9890  -0.9645  -0.9600  -0.9507  -0.9396
 -0.8970  -0.8684  -0.8528  -0.8086  -0.7995  -0.7886  -0.7863  -0.7645
 -0.7556  -0.7349  -0.7255  -0.7102  -0.7023  -0.6862  -0.6839  -0.6811
 -0.6739  -0.6596  -0.6590  -0.6525  -0.6312  -0.6200  -0.6171  -0.6019
 -0.5984  -0.5851  -0.5800  -0.5713  -0.5650  -0.5612  -0.5548  -0.5515
 -0.5362  -0.5304  -0.5238  -0.5205  -0.5171  -0.5115  -0.5056  -0.4958
 -0.4875  -0.4818  -0.4775  -0.4742  -0.4699  -0.4654  -0.4600  -0.4281
 -0.3969  -0.3845  -0.3616  -0.3487  -0.3283  -0.2892  -0.2503

          Ground-State Mulliken Net Atomic Charges

     Atom                 Charge (a.u.)
  ----------------------------------------
      1 C                    -0.189056
      2 C                    -0.254663
      3 S                    -0.021417
      4 C                    -0.016781
      5 H                     0.196304
      6 C                    -0.027443
      7 C                     0.248636
      8 C                     0.242423
      9 C                    -0.036989
     10 C                    -0.036145
     11 O                    -0.332829
     12 O                    -0.340741
     13 C                    -0.086698
     14 H                     0.123734
     15 H                     0.091815
     16 H                     0.093922
     17 C                    -0.088894
     18 H                     0.126277
     19 H                     0.095123
     20 H                     0.089528
     21 C                    -0.203621
     22 S                    -0.045074
     23 C                    -0.017913
     24 H                     0.188286
     25 H                     0.206416
     26 C                    -0.000587
     27 S                     0.074599
     28 C                    -0.187115
     29 C                     0.048296
     30 C                    -0.136507
     31 S                     0.002602
     32 C                    -0.164085
     33 C                     0.409995
     34 F                    -0.206766
     35 C                     0.442943
     36 O                    -0.461403
     37 O                    -0.300646
     38 C                    -0.058769
     39 H                     0.121556
     40 H                     0.095292
     41 H                     0.095160
     42 H                     0.221235
  ----------------------------------------
  Sum of atomic charges =     0.000000

                    Cartesian Multipole Moments
 -----------------------------------------------------------------
    Charge (ESU x 10^10)
                 0.0000
    Dipole Moment (Debye)
         X       0.2325      Y       1.1071      Z       3.1134
       Tot       3.3125
    Quadrupole Moments (Debye-Ang)
        XX    -200.9307     XY      -1.3958     YY    -158.8677
        XZ      -5.6681     YZ      -7.4297     ZZ    -182.2669

 Total job time:  298.48s(wall), 9370.16s(cpu)
        *  Thank you very much for using Q-Chem.  Have a nice day.  *
