 Q-Chem 5.4, Q-Chem, Inc., Pleasanton, CA (2021)
 Q-Chem 5.4.0 for Intel X86 EM64T Linux

User input:
--------------------------------------------------------------
$molecule
0 1
C	-0.217225	-8.517702	-0.236226
C	0.611939	-7.641575	0.448921
S	-1.413715	-7.638634	-1.218777
C	0.323572	-6.264785	0.206907
H	1.418739	-7.966081	1.118185
C	-0.768156	-6.072714	-0.711285
C	-1.215016	-4.787049	-1.053725
C	0.999917	-5.162801	0.804258
C	0.550033	-3.874817	0.464908
C	-0.541024	-3.683952	-0.456457
O	2.028811	-5.499772	1.630752
O	-2.249357	-4.459055	-1.883064
C	-2.586579	-5.329063	-2.956754
H	-3.262802	-4.755694	-3.619069
H	-3.124711	-6.238095	-2.609423
H	-1.686639	-5.637262	-3.531667
C	2.503251	-4.572261	2.599073
H	3.185356	-5.139743	3.260097
H	1.672937	-4.153131	3.207034
H	3.075213	-3.739531	2.135214
C	-0.828107	-2.306654	-0.694410
S	1.188794	-2.306501	0.983256
C	-0.000000	-1.435185	-0.000000
H	-1.632185	-1.978138	-1.364851
H	-0.221288	-9.614033	-0.234980
C	0.000000	0.000000	0.000000
S	0.079327	0.901280	1.507541
C	0.215617	2.467903	0.718873
C	0.079577	0.900940	-1.067872
C	0.198433	2.285998	-0.686410
S	0.061187	0.658044	-2.805516
C	0.208347	2.403534	-3.054530
C	0.267636	3.109360	-1.862551
F	0.379347	4.441341	-1.819088
C	0.249278	2.849688	-4.456084
O	0.190132	2.082076	-5.406510
O	0.359548	4.195721	-4.569225
C	0.407901	4.688467	-5.916207
H	0.496901	5.785916	-5.833064
H	-0.512596	4.414348	-6.470168
H	1.278377	4.268124	-6.459293
H	0.294764	3.388767	1.306486
$end

$rem
JOBTYPE		SP
EXCHANGE	HF
CORRELATION	pRIMP2
BASIS		cc-pvtz
METHOD		rimp2
AUX_BASIS	rimp2-cc-pvtz
SOLVENT_METHOD	PCM
PURECART	11111
SYMMETRY	false
MEM_TOTAL	110000
SCF_CONVERGENCE = 6
THRESH=10
GUI = 2
$end

$solvent
dielectric 4.90
$end
--------------------------------------------------------------

             Standard Nuclear Orientation (Angstroms)
    I     Atom           X                Y                Z
 ----------------------------------------------------------------
    1      C      -0.2172250000    -8.5177020000    -0.2362260000
    2      C       0.6119390000    -7.6415750000     0.4489210000
    3      S      -1.4137150000    -7.6386340000    -1.2187770000
    4      C       0.3235720000    -6.2647850000     0.2069070000
    5      H       1.4187390000    -7.9660810000     1.1181850000
    6      C      -0.7681560000    -6.0727140000    -0.7112850000
    7      C      -1.2150160000    -4.7870490000    -1.0537250000
    8      C       0.9999170000    -5.1628010000     0.8042580000
    9      C       0.5500330000    -3.8748170000     0.4649080000
   10      C      -0.5410240000    -3.6839520000    -0.4564570000
   11      O       2.0288110000    -5.4997720000     1.6307520000
   12      O      -2.2493570000    -4.4590550000    -1.8830640000
   13      C      -2.5865790000    -5.3290630000    -2.9567540000
   14      H      -3.2628020000    -4.7556940000    -3.6190690000
   15      H      -3.1247110000    -6.2380950000    -2.6094230000
   16      H      -1.6866390000    -5.6372620000    -3.5316670000
   17      C       2.5032510000    -4.5722610000     2.5990730000
   18      H       3.1853560000    -5.1397430000     3.2600970000
   19      H       1.6729370000    -4.1531310000     3.2070340000
   20      H       3.0752130000    -3.7395310000     2.1352140000
   21      C      -0.8281070000    -2.3066540000    -0.6944100000
   22      S       1.1887940000    -2.3065010000     0.9832560000
   23      C       0.0000000000    -1.4351850000     0.0000000000
   24      H      -1.6321850000    -1.9781380000    -1.3648510000
   25      H      -0.2212880000    -9.6140330000    -0.2349800000
   26      C       0.0000000000     0.0000000000     0.0000000000
   27      S       0.0793270000     0.9012800000     1.5075410000
   28      C       0.2156170000     2.4679030000     0.7188730000
   29      C       0.0795770000     0.9009400000    -1.0678720000
   30      C       0.1984330000     2.2859980000    -0.6864100000
   31      S       0.0611870000     0.6580440000    -2.8055160000
   32      C       0.2083470000     2.4035340000    -3.0545300000
   33      C       0.2676360000     3.1093600000    -1.8625510000
   34      F       0.3793470000     4.4413410000    -1.8190880000
   35      C       0.2492780000     2.8496880000    -4.4560840000
   36      O       0.1901320000     2.0820760000    -5.4065100000
   37      O       0.3595480000     4.1957210000    -4.5692250000
   38      C       0.4079010000     4.6884670000    -5.9162070000
   39      H       0.4969010000     5.7859160000    -5.8330640000
   40      H      -0.5125960000     4.4143480000    -6.4701680000
   41      H       1.2783770000     4.2681240000    -6.4592930000
   42      H       0.2947640000     3.3887670000     1.3064860000
 ----------------------------------------------------------------

   10   -2754.3158313068      7.06e-07  Convergence criterion met
 Total energy in the final basis set =    -2754.3158313068
        RIMP2         total energy =     -2759.3661357447 a.u.

                    Orbital Energies (a.u.)
 --------------------------------------------------------------

 Alpha MOs
 -- Occupied --
-92.0151 -91.9971 -91.9909 -91.9865 -26.3427 -20.6144 -20.5928 -20.5913
-20.5608 -11.4089 -11.3816 -11.3198 -11.3181 -11.3088 -11.3003 -11.2990
-11.2968 -11.2945 -11.2886 -11.2876 -11.2866 -11.2858 -11.2843 -11.2842
-11.2800 -11.2613 -11.2592 -11.2570 -11.2501  -9.0136  -8.9970  -8.9913
 -8.9864  -6.6944  -6.6938  -6.6933  -6.6781  -6.6773  -6.6762  -6.6722
 -6.6715  -6.6706  -6.6674  -6.6668  -6.6659  -1.6598  -1.4669  -1.4169
 -1.4141  -1.3696  -1.2206  -1.1948  -1.1659  -1.1356  -1.0849  -1.0523
 -1.0410  -1.0224  -1.0020  -0.9881  -0.9627  -0.9602  -0.9505  -0.9388
 -0.8963  -0.8671  -0.8520  -0.8079  -0.7972  -0.7873  -0.7871  -0.7647
 -0.7550  -0.7342  -0.7247  -0.7091  -0.7018  -0.6848  -0.6833  -0.6802
 -0.6735  -0.6594  -0.6576  -0.6526  -0.6306  -0.6201  -0.6173  -0.6042
 -0.5973  -0.5856  -0.5778  -0.5699  -0.5663  -0.5596  -0.5550  -0.5494
 -0.5348  -0.5305  -0.5228  -0.5168  -0.5163  -0.5100  -0.5046  -0.4948
 -0.4885  -0.4793  -0.4757  -0.4735  -0.4697  -0.4680  -0.4617  -0.4150
 -0.3962  -0.3863  -0.3580  -0.3501  -0.3215  -0.2928  -0.2551

          Ground-State Mulliken Net Atomic Charges

     Atom                 Charge (a.u.)
  ----------------------------------------
      1 C                    -0.188211
      2 C                    -0.254279
      3 S                    -0.021632
      4 C                    -0.014476
      5 H                     0.196363
      6 C                    -0.026678
      7 C                     0.243133
      8 C                     0.239458
      9 C                    -0.045276
     10 C                    -0.025999
     11 O                    -0.333000
     12 O                    -0.339942
     13 C                    -0.085964
     14 H                     0.123151
     15 H                     0.090931
     16 H                     0.094335
     17 C                    -0.087232
     18 H                     0.125145
     19 H                     0.094456
     20 H                     0.090021
     21 C                    -0.236495
     22 S                    -0.010706
     23 C                    -0.039035
     24 H                     0.201447
     25 H                     0.206478
     26 C                    -0.008511
     27 S                     0.096174
     28 C                    -0.185904
     29 C                     0.019643
     30 C                    -0.110903
     31 S                     0.006876
     32 C                    -0.151700
     33 C                     0.391424
     34 F                    -0.207111
     35 C                     0.444635
     36 O                    -0.460959
     37 O                    -0.300566
     38 C                    -0.058653
     39 H                     0.121293
     40 H                     0.095036
     41 H                     0.095045
     42 H                     0.218189
  ----------------------------------------
  Sum of atomic charges =     0.000000

                    Cartesian Multipole Moments
 -----------------------------------------------------------------
    Charge (ESU x 10^10)
                 0.0000
    Dipole Moment (Debye)
         X       0.4444      Y       0.8841      Z       2.8845
       Tot       3.0495
    Quadrupole Moments (Debye-Ang)
        XX    -193.0608     XY       0.7175     YY    -159.3087
        XZ      11.5780     YZ      -6.0487     ZZ    -190.3449

 Total job time:  283.67s(wall), 9255.05s(cpu)
        *  Thank you very much for using Q-Chem.  Have a nice day.  *
