 Q-Chem 5.4, Q-Chem, Inc., Pleasanton, CA (2021)
 Q-Chem 5.4.0 for Intel X86 EM64T Linux

User input:
--------------------------------------------------------------
$molecule
0 1
C	-0.318247	-8.517702	-0.041330
C	0.757333	-7.641575	-0.049453
S	-1.866383	-7.638634	-0.024919
C	0.380867	-6.264785	-0.049488
H	1.805573	-7.966081	-0.055368
C	-1.045647	-6.072714	-0.051115
C	-1.608077	-4.787049	-0.026203
C	1.282948	-5.162801	-0.026637
C	0.720187	-3.874817	0.002586
C	-0.707853	-3.683952	-0.001903
O	2.602386	-5.499772	-0.054867
O	-2.933517	-4.459055	0.003348
C	-3.881999	-5.329063	-0.602384
H	-4.825744	-4.755694	-0.675079
H	-4.070972	-6.238095	0.009592
H	-3.562152	-5.637262	-1.621263
C	3.588253	-4.572261	0.381947
H	4.535674	-5.139743	0.449872
H	3.342986	-4.153131	1.381388
H	3.728239	-3.739531	-0.341040
C	-1.080725	-2.306654	0.000348
S	1.542694	-2.306501	-0.010924
C	-0.000000	-1.435185	-0.000000
H	-2.127635	-1.978138	0.003612
H	-0.320559	-9.614033	-0.037764
C	0.000000	0.000000	0.000000
S	0.783786	0.451972	1.507541
C	2.145261	1.238908	0.718873
C	0.783650	0.451572	-1.067872
C	1.986396	1.148648	-0.686410
S	0.574133	0.327317	-2.805516
C	2.088363	1.207943	-3.054530
C	2.700548	1.564221	-1.862551
F	3.855718	2.236706	-1.819088
C	2.477307	1.430318	-4.456084
O	1.814592	1.038482	-5.406510
O	3.643162	2.112042	-4.569225
C	4.074530	2.355061	-5.916207
H	5.024556	2.911627	-5.833064
H	3.322010	2.951860	-6.470168
H	4.229490	1.400910	-6.459293
H	2.944986	1.702260	1.306486
$end

$rem
JOBTYPE		SP
EXCHANGE	HF
CORRELATION	pRIMP2
BASIS		cc-pvtz
METHOD		rimp2
AUX_BASIS	rimp2-cc-pvtz
SOLVENT_METHOD	PCM
PURECART	11111
SYMMETRY	false
MEM_TOTAL	110000
SCF_CONVERGENCE = 6
THRESH=10
GUI = 2
$end

$solvent
dielectric 4.90
$end
--------------------------------------------------------------

             Standard Nuclear Orientation (Angstroms)
    I     Atom           X                Y                Z
 ----------------------------------------------------------------
    1      C      -0.3182470000    -8.5177020000    -0.0413300000
    2      C       0.7573330000    -7.6415750000    -0.0494530000
    3      S      -1.8663830000    -7.6386340000    -0.0249190000
    4      C       0.3808670000    -6.2647850000    -0.0494880000
    5      H       1.8055730000    -7.9660810000    -0.0553680000
    6      C      -1.0456470000    -6.0727140000    -0.0511150000
    7      C      -1.6080770000    -4.7870490000    -0.0262030000
    8      C       1.2829480000    -5.1628010000    -0.0266370000
    9      C       0.7201870000    -3.8748170000     0.0025860000
   10      C      -0.7078530000    -3.6839520000    -0.0019030000
   11      O       2.6023860000    -5.4997720000    -0.0548670000
   12      O      -2.9335170000    -4.4590550000     0.0033480000
   13      C      -3.8819990000    -5.3290630000    -0.6023840000
   14      H      -4.8257440000    -4.7556940000    -0.6750790000
   15      H      -4.0709720000    -6.2380950000     0.0095920000
   16      H      -3.5621520000    -5.6372620000    -1.6212630000
   17      C       3.5882530000    -4.5722610000     0.3819470000
   18      H       4.5356740000    -5.1397430000     0.4498720000
   19      H       3.3429860000    -4.1531310000     1.3813880000
   20      H       3.7282390000    -3.7395310000    -0.3410400000
   21      C      -1.0807250000    -2.3066540000     0.0003480000
   22      S       1.5426940000    -2.3065010000    -0.0109240000
   23      C       0.0000000000    -1.4351850000     0.0000000000
   24      H      -2.1276350000    -1.9781380000     0.0036120000
   25      H      -0.3205590000    -9.6140330000    -0.0377640000
   26      C       0.0000000000     0.0000000000     0.0000000000
   27      S       0.7837860000     0.4519720000     1.5075410000
   28      C       2.1452610000     1.2389080000     0.7188730000
   29      C       0.7836500000     0.4515720000    -1.0678720000
   30      C       1.9863960000     1.1486480000    -0.6864100000
   31      S       0.5741330000     0.3273170000    -2.8055160000
   32      C       2.0883630000     1.2079430000    -3.0545300000
   33      C       2.7005480000     1.5642210000    -1.8625510000
   34      F       3.8557180000     2.2367060000    -1.8190880000
   35      C       2.4773070000     1.4303180000    -4.4560840000
   36      O       1.8145920000     1.0384820000    -5.4065100000
   37      O       3.6431620000     2.1120420000    -4.5692250000
   38      C       4.0745300000     2.3550610000    -5.9162070000
   39      H       5.0245560000     2.9116270000    -5.8330640000
   40      H       3.3220100000     2.9518600000    -6.4701680000
   41      H       4.2294900000     1.4009100000    -6.4592930000
   42      H       2.9449860000     1.7022600000     1.3064860000
 ----------------------------------------------------------------

   10   -2754.2496054639      9.32e-07  Convergence criterion met
 Total energy in the final basis set =    -2754.2496054639
        RIMP2         total energy =     -2759.3134397234 a.u.

                    Orbital Energies (a.u.)
 --------------------------------------------------------------

 Alpha MOs
 -- Occupied --
-92.0125 -92.0092 -91.9842 -91.9793 -26.3463 -20.6155 -20.5906 -20.5886
-20.5619 -11.4106 -11.3871 -11.3350 -11.3205 -11.3161 -11.3133 -11.2987
-11.2893 -11.2882 -11.2878 -11.2861 -11.2844 -11.2813 -11.2811 -11.2771
-11.2651 -11.2553 -11.2553 -11.2482 -11.2437  -9.0120  -9.0087  -8.9842
 -8.9807  -6.6926  -6.6917  -6.6915  -6.6896  -6.6889  -6.6879  -6.6651
 -6.6645  -6.6637  -6.6617  -6.6609  -6.6600  -1.6634  -1.4681  -1.4146
 -1.4114  -1.3708  -1.2341  -1.1902  -1.1647  -1.1398  -1.0840  -1.0485
 -1.0452  -1.0263  -0.9977  -0.9868  -0.9645  -0.9586  -0.9490  -0.9386
 -0.8931  -0.8716  -0.8435  -0.8140  -0.7950  -0.7854  -0.7824  -0.7635
 -0.7561  -0.7309  -0.7281  -0.7129  -0.6993  -0.6864  -0.6831  -0.6791
 -0.6747  -0.6609  -0.6573  -0.6507  -0.6290  -0.6178  -0.6161  -0.6096
 -0.5988  -0.5891  -0.5748  -0.5705  -0.5639  -0.5634  -0.5532  -0.5322
 -0.5317  -0.5308  -0.5202  -0.5164  -0.5129  -0.5099  -0.5034  -0.4931
 -0.4883  -0.4841  -0.4755  -0.4741  -0.4694  -0.4619  -0.4575  -0.4027
 -0.3930  -0.3836  -0.3535  -0.3527  -0.3120  -0.3016  -0.2560

          Ground-State Mulliken Net Atomic Charges

     Atom                 Charge (a.u.)
  ----------------------------------------
      1 C                    -0.193488
      2 C                    -0.254117
      3 S                    -0.025728
      4 C                    -0.019581
      5 H                     0.195580
      6 C                    -0.028473
      7 C                     0.241693
      8 C                     0.241738
      9 C                    -0.043612
     10 C                    -0.015982
     11 O                    -0.333804
     12 O                    -0.339893
     13 C                    -0.085714
     14 H                     0.121846
     15 H                     0.090217
     16 H                     0.093397
     17 C                    -0.086363
     18 H                     0.124689
     19 H                     0.093190
     20 H                     0.089169
     21 C                    -0.243979
     22 S                    -0.037306
     23 C                    -0.053653
     24 H                     0.194067
     25 H                     0.205362
     26 C                    -0.150541
     27 S                     0.131075
     28 C                    -0.114452
     29 C                     0.061284
     30 C                    -0.121259
     31 S                     0.064288
     32 C                    -0.151628
     33 C                     0.395680
     34 F                    -0.204160
     35 C                     0.449077
     36 O                    -0.461921
     37 O                    -0.301291
     38 C                    -0.058110
     39 H                     0.121445
     40 H                     0.095335
     41 H                     0.095362
     42 H                     0.220564
  ----------------------------------------
  Sum of atomic charges =     0.000000

                    Cartesian Multipole Moments
 -----------------------------------------------------------------
    Charge (ESU x 10^10)
                -0.0000
    Dipole Moment (Debye)
         X       3.9130      Y       1.4361      Z       2.3253
       Tot       4.7729
    Quadrupole Moments (Debye-Ang)
        XX    -165.5034     XY       8.1318     YY    -177.5973
        XZ      -0.4865     YZ      -2.3610     ZZ    -202.6614

 Total job time:  310.20s(wall), 9628.14s(cpu)
        *  Thank you very much for using Q-Chem.  Have a nice day.  *
