 Q-Chem 5.4, Q-Chem, Inc., Pleasanton, CA (2021)
 Q-Chem 5.4.0 for Intel X86 EM64T Linux

User input:
--------------------------------------------------------------
$molecule
0 1
C	0.194917	-8.517702	-0.254945
C	-0.335839	-7.641575	0.680596
S	0.954772	-7.638634	-1.603876
C	-0.147576	-6.264785	0.354585
H	-0.854836	-7.966081	1.591356
C	0.567090	-6.072714	-0.879999
C	0.826731	-4.787049	-1.379534
C	-0.618405	-5.162801	1.124384
C	-0.362333	-3.874817	0.622407
C	0.355575	-3.683952	-0.612067
O	-1.253677	-5.499772	2.281166
O	1.463859	-4.459055	-2.542174
C	2.462679	-5.329063	-3.060718
H	2.997507	-4.755694	-3.841678
H	2.027179	-6.238095	-3.530361
H	3.185132	-5.637262	-2.274283
C	-2.124902	-4.572261	2.916545
H	-2.657438	-5.139743	3.703073
H	-2.867810	-4.153131	2.204417
H	-1.568770	-3.739531	3.399269
C	0.540061	-2.306654	-0.936109
S	-0.761887	-2.306501	1.341474
C	-0.000000	-1.435185	-0.000000
H	1.060690	-1.978138	-1.844392
H	0.192984	-9.614033	-0.258730
C	0.000000	0.000000	0.000000
S	0.309893	0.850039	1.507541
C	0.847011	2.328006	0.718873
C	0.310046	0.849645	-1.067872
C	0.783331	2.156746	-0.686410
S	0.229416	0.619785	-2.805516
C	0.823328	2.267711	-3.054530
C	1.063278	2.934142	-1.862551
F	1.515925	4.191824	-1.819088
C	0.978337	2.688069	-4.456084
O	0.722535	1.961921	-5.406510
O	1.433229	3.959697	-4.569225
C	1.607467	4.423139	-5.916207
H	1.977475	5.460158	-5.833064
H	0.647388	4.396602	-6.470168
H	2.339490	3.791823	-6.459293
H	1.161798	3.197007	1.306486
$end

$rem
JOBTYPE		SP
EXCHANGE	HF
CORRELATION	pRIMP2
BASIS		cc-pvtz
METHOD		rimp2
AUX_BASIS	rimp2-cc-pvtz
SOLVENT_METHOD	PCM
PURECART	11111
SYMMETRY	false
MEM_TOTAL	110000
SCF_CONVERGENCE = 6
THRESH=10
GUI = 2
$end

$solvent
dielectric 4.90
$end
--------------------------------------------------------------

             Standard Nuclear Orientation (Angstroms)
    I     Atom           X                Y                Z
 ----------------------------------------------------------------
    1      C       0.1949170000    -8.5177020000    -0.2549450000
    2      C      -0.3358390000    -7.6415750000     0.6805960000
    3      S       0.9547720000    -7.6386340000    -1.6038760000
    4      C      -0.1475760000    -6.2647850000     0.3545850000
    5      H      -0.8548360000    -7.9660810000     1.5913560000
    6      C       0.5670900000    -6.0727140000    -0.8799990000
    7      C       0.8267310000    -4.7870490000    -1.3795340000
    8      C      -0.6184050000    -5.1628010000     1.1243840000
    9      C      -0.3623330000    -3.8748170000     0.6224070000
   10      C       0.3555750000    -3.6839520000    -0.6120670000
   11      O      -1.2536770000    -5.4997720000     2.2811660000
   12      O       1.4638590000    -4.4590550000    -2.5421740000
   13      C       2.4626790000    -5.3290630000    -3.0607180000
   14      H       2.9975070000    -4.7556940000    -3.8416780000
   15      H       2.0271790000    -6.2380950000    -3.5303610000
   16      H       3.1851320000    -5.6372620000    -2.2742830000
   17      C      -2.1249020000    -4.5722610000     2.9165450000
   18      H      -2.6574380000    -5.1397430000     3.7030730000
   19      H      -2.8678100000    -4.1531310000     2.2044170000
   20      H      -1.5687700000    -3.7395310000     3.3992690000
   21      C       0.5400610000    -2.3066540000    -0.9361090000
   22      S      -0.7618870000    -2.3065010000     1.3414740000
   23      C       0.0000000000    -1.4351850000     0.0000000000
   24      H       1.0606900000    -1.9781380000    -1.8443920000
   25      H       0.1929840000    -9.6140330000    -0.2587300000
   26      C       0.0000000000     0.0000000000     0.0000000000
   27      S       0.3098930000     0.8500390000     1.5075410000
   28      C       0.8470110000     2.3280060000     0.7188730000
   29      C       0.3100460000     0.8496450000    -1.0678720000
   30      C       0.7833310000     2.1567460000    -0.6864100000
   31      S       0.2294160000     0.6197850000    -2.8055160000
   32      C       0.8233280000     2.2677110000    -3.0545300000
   33      C       1.0632780000     2.9341420000    -1.8625510000
   34      F       1.5159250000     4.1918240000    -1.8190880000
   35      C       0.9783370000     2.6880690000    -4.4560840000
   36      O       0.7225350000     1.9619210000    -5.4065100000
   37      O       1.4332290000     3.9596970000    -4.5692250000
   38      C       1.6074670000     4.4231390000    -5.9162070000
   39      H       1.9774750000     5.4601580000    -5.8330640000
   40      H       0.6473880000     4.3966020000    -6.4701680000
   41      H       2.3394900000     3.7918230000    -6.4592930000
   42      H       1.1617980000     3.1970070000     1.3064860000
 ----------------------------------------------------------------

   10   -2754.3098680064      7.38e-07  Convergence criterion met
 Total energy in the final basis set =    -2754.3098680064
        RIMP2         total energy =     -2759.3632832897 a.u.

                    Orbital Energies (a.u.)
 --------------------------------------------------------------

 Alpha MOs
 -- Occupied --
-92.0157 -91.9995 -91.9896 -91.9861 -26.3435 -20.6148 -20.5926 -20.5906
-20.5613 -11.4094 -11.3826 -11.3196 -11.3170 -11.3123 -11.3019 -11.2980
-11.2976 -11.2963 -11.2888 -11.2874 -11.2861 -11.2858 -11.2854 -11.2839
-11.2792 -11.2614 -11.2582 -11.2544 -11.2498  -9.0144  -8.9994  -8.9903
 -8.9860  -6.6951  -6.6945  -6.6940  -6.6804  -6.6797  -6.6786  -6.6713
 -6.6706  -6.6696  -6.6670  -6.6663  -6.6655  -1.6605  -1.4673  -1.4167
 -1.4134  -1.3700  -1.2227  -1.1944  -1.1658  -1.1368  -1.0853  -1.0518
 -1.0422  -1.0236  -1.0013  -0.9882  -0.9637  -0.9597  -0.9503  -0.9394
 -0.8960  -0.8682  -0.8512  -0.8083  -0.7986  -0.7877  -0.7862  -0.7641
 -0.7553  -0.7339  -0.7254  -0.7101  -0.7018  -0.6854  -0.6831  -0.6808
 -0.6739  -0.6591  -0.6584  -0.6522  -0.6304  -0.6196  -0.6169  -0.6037
 -0.5984  -0.5824  -0.5790  -0.5710  -0.5650  -0.5617  -0.5552  -0.5492
 -0.5342  -0.5304  -0.5243  -0.5171  -0.5160  -0.5085  -0.5066  -0.4960
 -0.4876  -0.4811  -0.4765  -0.4738  -0.4690  -0.4664  -0.4599  -0.4223
 -0.3954  -0.3849  -0.3598  -0.3498  -0.3259  -0.2899  -0.2514

          Ground-State Mulliken Net Atomic Charges

     Atom                 Charge (a.u.)
  ----------------------------------------
      1 C                    -0.190147
      2 C                    -0.253826
      3 S                    -0.021886
      4 C                    -0.017868
      5 H                     0.196094
      6 C                    -0.027869
      7 C                     0.240411
      8 C                     0.244245
      9 C                    -0.043196
     10 C                    -0.022447
     11 O                    -0.333275
     12 O                    -0.339594
     13 C                    -0.086013
     14 H                     0.123040
     15 H                     0.091208
     16 H                     0.093582
     17 C                    -0.087674
     18 H                     0.125695
     19 H                     0.095245
     20 H                     0.089156
     21 C                    -0.231164
     22 S                    -0.029917
     23 C                     0.001369
     24 H                     0.197555
     25 H                     0.206204
     26 C                    -0.003225
     27 S                     0.106287
     28 C                    -0.197735
     29 C                    -0.043907
     30 C                    -0.092571
     31 S                     0.020731
     32 C                    -0.159905
     33 C                     0.404464
     34 F                    -0.206811
     35 C                     0.443302
     36 O                    -0.460775
     37 O                    -0.300801
     38 C                    -0.058395
     39 H                     0.121402
     40 H                     0.095247
     41 H                     0.095073
     42 H                     0.218690
  ----------------------------------------
  Sum of atomic charges =     0.000000

                    Cartesian Multipole Moments
 -----------------------------------------------------------------
    Charge (ESU x 10^10)
                -0.0000
    Dipole Moment (Debye)
         X       1.1720      Y       1.1853      Z       3.1453
       Tot       3.5597
    Quadrupole Moments (Debye-Ang)
        XX    -188.3690     XY       3.9343     YY    -162.0728
        XZ     -15.1011     YZ      -7.5500     ZZ    -192.9429

 Total job time:  333.71s(wall), 11209.56s(cpu)
        *  Thank you very much for using Q-Chem.  Have a nice day.  *
