 Q-Chem 5.4, Q-Chem, Inc., Pleasanton, CA (2021)
 Q-Chem 5.4.0 for Intel X86 EM64T Linux

User input:
--------------------------------------------------------------
$molecule
0 1
C	0.318247	-8.517702	0.041330
C	-0.757333	-7.641575	0.049453
S	1.866383	-7.638634	0.024919
C	-0.380867	-6.264785	0.049488
H	-1.805573	-7.966081	0.055368
C	1.045647	-6.072714	0.051115
C	1.608077	-4.787049	0.026203
C	-1.282948	-5.162801	0.026637
C	-0.720187	-3.874817	-0.002586
C	0.707853	-3.683952	0.001903
O	-2.602386	-5.499772	0.054867
O	2.933517	-4.459055	-0.003348
C	3.881999	-5.329063	0.602384
H	4.825744	-4.755694	0.675079
H	4.070972	-6.238095	-0.009592
H	3.562152	-5.637262	1.621263
C	-3.588253	-4.572261	-0.381947
H	-4.535674	-5.139743	-0.449872
H	-3.342986	-4.153131	-1.381388
H	-3.728239	-3.739531	0.341040
C	1.080725	-2.306654	-0.000348
S	-1.542694	-2.306501	0.010924
C	0.000000	-1.435185	0.000000
H	2.127635	-1.978138	-0.003612
H	0.320559	-9.614033	0.037764
C	0.000000	0.000000	0.000000
S	0.000474	0.904764	1.507541
C	-0.000295	2.477305	0.718873
C	0.000752	0.904447	-1.067872
C	-0.001560	2.294593	-0.686410
S	0.003602	0.660872	-2.805516
C	-0.001928	2.412546	-3.054530
C	-0.004381	3.120854	-1.862551
F	-0.009185	4.457503	-1.819088
C	-0.000038	2.860570	-4.456084
O	0.007944	2.090724	-5.406510
O	-0.007501	4.211092	-4.569225
C	-0.002278	4.706177	-5.916207
H	-0.009265	5.807207	-5.833064
H	-0.895381	4.352875	-6.470168
H	0.901521	4.363301	-6.459293
H	-0.001708	3.401562	1.306486
$end

$rem
JOBTYPE		SP
EXCHANGE	HF
CORRELATION	pRIMP2
BASIS		cc-pvtz
METHOD		rimp2
AUX_BASIS	rimp2-cc-pvtz
SOLVENT_METHOD	PCM
PURECART	11111
SYMMETRY	false
MEM_TOTAL	110000
SCF_CONVERGENCE = 6
THRESH=10
GUI = 2
$end

$solvent
dielectric 4.90
$end
--------------------------------------------------------------

             Standard Nuclear Orientation (Angstroms)
    I     Atom           X                Y                Z
 ----------------------------------------------------------------
    1      C       0.3182470000    -8.5177020000     0.0413300000
    2      C      -0.7573330000    -7.6415750000     0.0494530000
    3      S       1.8663830000    -7.6386340000     0.0249190000
    4      C      -0.3808670000    -6.2647850000     0.0494880000
    5      H      -1.8055730000    -7.9660810000     0.0553680000
    6      C       1.0456470000    -6.0727140000     0.0511150000
    7      C       1.6080770000    -4.7870490000     0.0262030000
    8      C      -1.2829480000    -5.1628010000     0.0266370000
    9      C      -0.7201870000    -3.8748170000    -0.0025860000
   10      C       0.7078530000    -3.6839520000     0.0019030000
   11      O      -2.6023860000    -5.4997720000     0.0548670000
   12      O       2.9335170000    -4.4590550000    -0.0033480000
   13      C       3.8819990000    -5.3290630000     0.6023840000
   14      H       4.8257440000    -4.7556940000     0.6750790000
   15      H       4.0709720000    -6.2380950000    -0.0095920000
   16      H       3.5621520000    -5.6372620000     1.6212630000
   17      C      -3.5882530000    -4.5722610000    -0.3819470000
   18      H      -4.5356740000    -5.1397430000    -0.4498720000
   19      H      -3.3429860000    -4.1531310000    -1.3813880000
   20      H      -3.7282390000    -3.7395310000     0.3410400000
   21      C       1.0807250000    -2.3066540000    -0.0003480000
   22      S      -1.5426940000    -2.3065010000     0.0109240000
   23      C       0.0000000000    -1.4351850000     0.0000000000
   24      H       2.1276350000    -1.9781380000    -0.0036120000
   25      H       0.3205590000    -9.6140330000     0.0377640000
   26      C       0.0000000000     0.0000000000     0.0000000000
   27      S       0.0004740000     0.9047640000     1.5075410000
   28      C      -0.0002950000     2.4773050000     0.7188730000
   29      C       0.0007520000     0.9044470000    -1.0678720000
   30      C      -0.0015600000     2.2945930000    -0.6864100000
   31      S       0.0036020000     0.6608720000    -2.8055160000
   32      C      -0.0019280000     2.4125460000    -3.0545300000
   33      C      -0.0043810000     3.1208540000    -1.8625510000
   34      F      -0.0091850000     4.4575030000    -1.8190880000
   35      C      -0.0000380000     2.8605700000    -4.4560840000
   36      O       0.0079440000     2.0907240000    -5.4065100000
   37      O      -0.0075010000     4.2110920000    -4.5692250000
   38      C      -0.0022780000     4.7061770000    -5.9162070000
   39      H      -0.0092650000     5.8072070000    -5.8330640000
   40      H      -0.8953810000     4.3528750000    -6.4701680000
   41      H       0.9015210000     4.3633010000    -6.4592930000
   42      H      -0.0017080000     3.4015620000     1.3064860000
 ----------------------------------------------------------------

   10   -2754.3140331541      6.93e-07  Convergence criterion met
 Total energy in the final basis set =    -2754.3140331541
        RIMP2         total energy =     -2759.3631319850 a.u.

                    Orbital Energies (a.u.)
 --------------------------------------------------------------

 Alpha MOs
 -- Occupied --
-92.0144 -91.9963 -91.9889 -91.9866 -26.3424 -20.6141 -20.5924 -20.5919
-20.5604 -11.4085 -11.3812 -11.3192 -11.3188 -11.3084 -11.2998 -11.2965
-11.2961 -11.2913 -11.2884 -11.2869 -11.2864 -11.2864 -11.2841 -11.2831
-11.2804 -11.2606 -11.2597 -11.2588 -11.2502  -9.0128  -8.9963  -8.9892
 -8.9866  -6.6935  -6.6929  -6.6924  -6.6773  -6.6766  -6.6755  -6.6701
 -6.6694  -6.6685  -6.6675  -6.6669  -6.6661  -1.6595  -1.4665  -1.4165
 -1.4147  -1.3692  -1.2195  -1.1945  -1.1653  -1.1346  -1.0843  -1.0521
 -1.0403  -1.0214  -1.0017  -0.9877  -0.9614  -0.9604  -0.9504  -0.9384
 -0.8958  -0.8664  -0.8514  -0.8092  -0.7932  -0.7887  -0.7864  -0.7650
 -0.7547  -0.7340  -0.7244  -0.7089  -0.7006  -0.6844  -0.6834  -0.6799
 -0.6732  -0.6593  -0.6568  -0.6528  -0.6305  -0.6203  -0.6173  -0.6046
 -0.5967  -0.5848  -0.5773  -0.5698  -0.5669  -0.5615  -0.5547  -0.5499
 -0.5319  -0.5304  -0.5239  -0.5166  -0.5148  -0.5084  -0.5038  -0.4945
 -0.4897  -0.4784  -0.4753  -0.4727  -0.4699  -0.4665  -0.4611  -0.4049
 -0.3974  -0.3874  -0.3574  -0.3481  -0.3142  -0.2985  -0.2596

          Ground-State Mulliken Net Atomic Charges

     Atom                 Charge (a.u.)
  ----------------------------------------
      1 C                    -0.187098
      2 C                    -0.254446
      3 S                    -0.021760
      4 C                    -0.012930
      5 H                     0.196624
      6 C                    -0.028319
      7 C                     0.245776
      8 C                     0.238752
      9 C                    -0.047508
     10 C                    -0.033073
     11 O                    -0.333301
     12 O                    -0.339531
     13 C                    -0.085832
     14 H                     0.122818
     15 H                     0.091290
     16 H                     0.093892
     17 C                    -0.086600
     18 H                     0.124588
     19 H                     0.095286
     20 H                     0.089719
     21 C                    -0.209591
     22 S                     0.002171
     23 C                    -0.054283
     24 H                     0.197568
     25 H                     0.206604
     26 C                    -0.030917
     27 S                     0.108972
     28 C                    -0.186916
     29 C                     0.017139
     30 C                    -0.109348
     31 S                     0.006292
     32 C                    -0.154877
     33 C                     0.392950
     34 F                    -0.207249
     35 C                     0.445344
     36 O                    -0.461354
     37 O                    -0.300614
     38 C                    -0.058648
     39 H                     0.121176
     40 H                     0.094990
     41 H                     0.094978
     42 H                     0.217266
  ----------------------------------------
  Sum of atomic charges =     0.000000

                    Cartesian Multipole Moments
 -----------------------------------------------------------------
    Charge (ESU x 10^10)
                -0.0000
    Dipole Moment (Debye)
         X      -0.0247      Y       0.7747      Z       3.3083
       Tot       3.3979
    Quadrupole Moments (Debye-Ang)
        XX    -178.1692     XY      -0.5540     YY    -158.9400
        XZ       5.8115     YZ      -8.6913     ZZ    -205.5344

 Total job time:  318.44s(wall), 9492.13s(cpu)
        *  Thank you very much for using Q-Chem.  Have a nice day.  *
