 Q-Chem 5.4, Q-Chem, Inc., Pleasanton, CA (2021)
 Q-Chem 5.4.0 for Intel X86 EM64T Linux

User input:
--------------------------------------------------------------
$molecule
0 1
C	0.254945	-8.517702	0.194917
C	-0.680596	-7.641575	-0.335839
S	1.603876	-7.638634	0.954772
C	-0.354585	-6.264785	-0.147576
H	-1.591356	-7.966081	-0.854836
C	0.879999	-6.072714	0.567090
C	1.379534	-4.787049	0.826731
C	-1.124384	-5.162801	-0.618405
C	-0.622407	-3.874817	-0.362333
C	0.612067	-3.683952	0.355575
O	-2.281166	-5.499772	-1.253677
O	2.542174	-4.459055	1.463859
C	3.060718	-5.329063	2.462679
H	3.841678	-4.755694	2.997507
H	3.530361	-6.238095	2.027179
H	2.274283	-5.637262	3.185132
C	-2.916545	-4.572261	-2.124902
H	-3.703073	-5.139743	-2.657438
H	-2.204417	-4.153131	-2.867810
H	-3.399269	-3.739531	-1.568770
C	0.936109	-2.306654	0.540061
S	-1.341474	-2.306501	-0.761887
C	-0.000000	-1.435185	-0.000000
H	1.844392	-1.978138	1.060690
H	0.258730	-9.614033	0.192984
C	0.000000	0.000000	0.000000
S	0.157577	0.890937	1.507541
C	0.429889	2.439720	0.718873
C	0.157797	0.890576	-1.067872
C	0.396915	2.260004	-0.686410
S	0.118307	0.650207	-2.805516
C	0.417036	2.376229	-3.054530
C	0.537616	3.074202	-1.862551
F	0.764992	4.391378	-1.819088
C	0.496696	2.817118	-4.456084
O	0.370874	2.057582	-5.406510
O	0.723861	4.148418	-4.569225
C	0.814976	4.635075	-5.916207
H	0.999286	5.720591	-5.833064
H	-0.125909	4.442226	-6.470168
H	1.645504	4.140465	-6.459293
H	0.588993	3.350182	1.306486
$end

$rem
JOBTYPE		SP
EXCHANGE	HF
CORRELATION	pRIMP2
BASIS		cc-pvtz
METHOD		rimp2
AUX_BASIS	rimp2-cc-pvtz
SOLVENT_METHOD	PCM
PURECART	11111
SYMMETRY	false
MEM_TOTAL	110000
SCF_CONVERGENCE = 6
THRESH=10
GUI = 2
$end

$solvent
dielectric 4.90
$end
--------------------------------------------------------------

             Standard Nuclear Orientation (Angstroms)
    I     Atom           X                Y                Z
 ----------------------------------------------------------------
    1      C       0.2549450000    -8.5177020000     0.1949170000
    2      C      -0.6805960000    -7.6415750000    -0.3358390000
    3      S       1.6038760000    -7.6386340000     0.9547720000
    4      C      -0.3545850000    -6.2647850000    -0.1475760000
    5      H      -1.5913560000    -7.9660810000    -0.8548360000
    6      C       0.8799990000    -6.0727140000     0.5670900000
    7      C       1.3795340000    -4.7870490000     0.8267310000
    8      C      -1.1243840000    -5.1628010000    -0.6184050000
    9      C      -0.6224070000    -3.8748170000    -0.3623330000
   10      C       0.6120670000    -3.6839520000     0.3555750000
   11      O      -2.2811660000    -5.4997720000    -1.2536770000
   12      O       2.5421740000    -4.4590550000     1.4638590000
   13      C       3.0607180000    -5.3290630000     2.4626790000
   14      H       3.8416780000    -4.7556940000     2.9975070000
   15      H       3.5303610000    -6.2380950000     2.0271790000
   16      H       2.2742830000    -5.6372620000     3.1851320000
   17      C      -2.9165450000    -4.5722610000    -2.1249020000
   18      H      -3.7030730000    -5.1397430000    -2.6574380000
   19      H      -2.2044170000    -4.1531310000    -2.8678100000
   20      H      -3.3992690000    -3.7395310000    -1.5687700000
   21      C       0.9361090000    -2.3066540000     0.5400610000
   22      S      -1.3414740000    -2.3065010000    -0.7618870000
   23      C       0.0000000000    -1.4351850000     0.0000000000
   24      H       1.8443920000    -1.9781380000     1.0606900000
   25      H       0.2587300000    -9.6140330000     0.1929840000
   26      C       0.0000000000     0.0000000000     0.0000000000
   27      S       0.1575770000     0.8909370000     1.5075410000
   28      C       0.4298890000     2.4397200000     0.7188730000
   29      C       0.1577970000     0.8905760000    -1.0678720000
   30      C       0.3969150000     2.2600040000    -0.6864100000
   31      S       0.1183070000     0.6502070000    -2.8055160000
   32      C       0.4170360000     2.3762290000    -3.0545300000
   33      C       0.5376160000     3.0742020000    -1.8625510000
   34      F       0.7649920000     4.3913780000    -1.8190880000
   35      C       0.4966960000     2.8171180000    -4.4560840000
   36      O       0.3708740000     2.0575820000    -5.4065100000
   37      O       0.7238610000     4.1484180000    -4.5692250000
   38      C       0.8149760000     4.6350750000    -5.9162070000
   39      H       0.9992860000     5.7205910000    -5.8330640000
   40      H      -0.1259090000     4.4422260000    -6.4701680000
   41      H       1.6455040000     4.1404650000    -6.4592930000
   42      H       0.5889930000     3.3501820000     1.3064860000
 ----------------------------------------------------------------

   10   -2754.3138217009      6.94e-07  Convergence criterion met
 Total energy in the final basis set =    -2754.3138217009
        RIMP2         total energy =     -2759.3643597815 a.u.

                    Orbital Energies (a.u.)
 --------------------------------------------------------------

 Alpha MOs
 -- Occupied --
-92.0154 -91.9971 -91.9895 -91.9865 -26.3427 -20.6143 -20.5923 -20.5917
-20.5606 -11.4088 -11.3816 -11.3193 -11.3182 -11.3088 -11.3004 -11.2976
-11.2965 -11.2938 -11.2885 -11.2867 -11.2864 -11.2862 -11.2841 -11.2840
-11.2799 -11.2610 -11.2591 -11.2576 -11.2500  -9.0137  -8.9972  -8.9899
 -8.9864  -6.6944  -6.6938  -6.6933  -6.6782  -6.6774  -6.6763  -6.6708
 -6.6701  -6.6692  -6.6674  -6.6667  -6.6659  -1.6598  -1.4667  -1.4164
 -1.4145  -1.3694  -1.2204  -1.1945  -1.1655  -1.1352  -1.0848  -1.0520
 -1.0408  -1.0222  -1.0017  -0.9879  -0.9627  -0.9593  -0.9501  -0.9392
 -0.8957  -0.8669  -0.8513  -0.8117  -0.7916  -0.7885  -0.7867  -0.7650
 -0.7550  -0.7339  -0.7247  -0.7094  -0.6997  -0.6848  -0.6834  -0.6805
 -0.6734  -0.6592  -0.6572  -0.6527  -0.6305  -0.6201  -0.6169  -0.6043
 -0.5971  -0.5859  -0.5767  -0.5697  -0.5671  -0.5621  -0.5550  -0.5525
 -0.5309  -0.5295  -0.5230  -0.5167  -0.5153  -0.5093  -0.5047  -0.4943
 -0.4893  -0.4785  -0.4762  -0.4730  -0.4706  -0.4656  -0.4609  -0.4109
 -0.3972  -0.3863  -0.3586  -0.3479  -0.3197  -0.2941  -0.2569

          Ground-State Mulliken Net Atomic Charges

     Atom                 Charge (a.u.)
  ----------------------------------------
      1 C                    -0.188343
      2 C                    -0.253820
      3 S                    -0.022027
      4 C                    -0.015063
      5 H                     0.196466
      6 C                    -0.027727
      7 C                     0.241111
      8 C                     0.242341
      9 C                    -0.047485
     10 C                    -0.028150
     11 O                    -0.333439
     12 O                    -0.340163
     13 C                    -0.085775
     14 H                     0.122501
     15 H                     0.091289
     16 H                     0.093921
     17 C                    -0.087067
     18 H                     0.124719
     19 H                     0.095693
     20 H                     0.089813
     21 C                    -0.226044
     22 S                    -0.000324
     23 C                    -0.033066
     24 H                     0.199701
     25 H                     0.206439
     26 C                    -0.030220
     27 S                     0.105235
     28 C                    -0.186958
     29 C                     0.011705
     30 C                    -0.109844
     31 S                     0.008008
     32 C                    -0.151866
     33 C                     0.392391
     34 F                    -0.206936
     35 C                     0.444854
     36 O                    -0.461149
     37 O                    -0.300672
     38 C                    -0.058610
     39 H                     0.121216
     40 H                     0.094989
     41 H                     0.095041
     42 H                     0.217313
  ----------------------------------------
  Sum of atomic charges =     0.000000

                    Cartesian Multipole Moments
 -----------------------------------------------------------------
    Charge (ESU x 10^10)
                -0.0000
    Dipole Moment (Debye)
         X       0.2642      Y       0.9013      Z       3.1958
       Tot       3.3310
    Quadrupole Moments (Debye-Ang)
        XX    -188.3528     XY       3.1785     YY    -160.0516
        XZ      11.4463     YZ      -8.5669     ZZ    -194.7358

 Total job time:  305.11s(wall), 9473.38s(cpu)
        *  Thank you very much for using Q-Chem.  Have a nice day.  *
