 Q-Chem 5.4, Q-Chem, Inc., Pleasanton, CA (2021)
 Q-Chem 5.4.0 for Intel X86 EM64T Linux

User input:
--------------------------------------------------------------
$molecule
0 1
C	-0.306235	-8.517702	-0.095966
C	0.754415	-7.641575	0.082807
S	-1.833702	-7.638634	-0.348635
C	0.383675	-6.264785	0.017401
H	1.787757	-7.966081	0.259008
C	-1.020885	-6.072714	-0.231913
C	-1.579097	-4.787049	-0.305044
C	1.268082	-5.162801	0.196549
C	0.708796	-3.874817	0.127606
C	-0.696769	-3.683952	-0.124792
O	2.572378	-5.499772	0.397867
O	-2.889532	-4.459055	-0.506103
C	-3.718420	-5.329063	-1.267335
H	-4.635204	-4.755694	-1.502804
H	-4.010790	-6.238095	-0.697471
H	-3.226506	-5.637262	-2.215194
C	3.467415	-4.572261	0.999238
H	4.388648	-5.139743	1.230649
H	3.052323	-4.153131	1.940905
H	3.730819	-3.739531	0.311543
C	-1.064366	-2.306654	-0.187323
S	1.521154	-2.306501	0.257128
C	-0.000000	-1.435185	-0.000000
H	-2.095939	-1.978138	-0.365903
H	-0.309131	-9.614033	-0.092855
C	0.000000	0.000000	0.000000
S	0.783786	0.451972	1.507541
C	2.145261	1.238908	0.718873
C	0.783650	0.451572	-1.067872
C	1.986396	1.148648	-0.686410
S	0.574133	0.327317	-2.805516
C	2.088363	1.207943	-3.054530
C	2.700548	1.564221	-1.862551
F	3.855718	2.236706	-1.819088
C	2.477307	1.430318	-4.456084
O	1.814592	1.038482	-5.406510
O	3.643162	2.112042	-4.569225
C	4.074530	2.355061	-5.916207
H	5.024556	2.911627	-5.833064
H	3.322010	2.951860	-6.470168
H	4.229490	1.400910	-6.459293
H	2.944986	1.702260	1.306486
$end

$rem
JOBTYPE		SP
EXCHANGE	HF
CORRELATION	pRIMP2
BASIS		cc-pvtz
METHOD		rimp2
AUX_BASIS	rimp2-cc-pvtz
SOLVENT_METHOD	PCM
PURECART	11111
SYMMETRY	false
MEM_TOTAL	110000
SCF_CONVERGENCE = 6
THRESH=10
GUI = 2
$end

$solvent
dielectric 4.90
$end
--------------------------------------------------------------

             Standard Nuclear Orientation (Angstroms)
    I     Atom           X                Y                Z
 ----------------------------------------------------------------
    1      C      -0.3062350000    -8.5177020000    -0.0959660000
    2      C       0.7544150000    -7.6415750000     0.0828070000
    3      S      -1.8337020000    -7.6386340000    -0.3486350000
    4      C       0.3836750000    -6.2647850000     0.0174010000
    5      H       1.7877570000    -7.9660810000     0.2590080000
    6      C      -1.0208850000    -6.0727140000    -0.2319130000
    7      C      -1.5790970000    -4.7870490000    -0.3050440000
    8      C       1.2680820000    -5.1628010000     0.1965490000
    9      C       0.7087960000    -3.8748170000     0.1276060000
   10      C      -0.6967690000    -3.6839520000    -0.1247920000
   11      O       2.5723780000    -5.4997720000     0.3978670000
   12      O      -2.8895320000    -4.4590550000    -0.5061030000
   13      C      -3.7184200000    -5.3290630000    -1.2673350000
   14      H      -4.6352040000    -4.7556940000    -1.5028040000
   15      H      -4.0107900000    -6.2380950000    -0.6974710000
   16      H      -3.2265060000    -5.6372620000    -2.2151940000
   17      C       3.4674150000    -4.5722610000     0.9992380000
   18      H       4.3886480000    -5.1397430000     1.2306490000
   19      H       3.0523230000    -4.1531310000     1.9409050000
   20      H       3.7308190000    -3.7395310000     0.3115430000
   21      C      -1.0643660000    -2.3066540000    -0.1873230000
   22      S       1.5211540000    -2.3065010000     0.2571280000
   23      C       0.0000000000    -1.4351850000     0.0000000000
   24      H      -2.0959390000    -1.9781380000    -0.3659030000
   25      H      -0.3091310000    -9.6140330000    -0.0928550000
   26      C       0.0000000000     0.0000000000     0.0000000000
   27      S       0.7837860000     0.4519720000     1.5075410000
   28      C       2.1452610000     1.2389080000     0.7188730000
   29      C       0.7836500000     0.4515720000    -1.0678720000
   30      C       1.9863960000     1.1486480000    -0.6864100000
   31      S       0.5741330000     0.3273170000    -2.8055160000
   32      C       2.0883630000     1.2079430000    -3.0545300000
   33      C       2.7005480000     1.5642210000    -1.8625510000
   34      F       3.8557180000     2.2367060000    -1.8190880000
   35      C       2.4773070000     1.4303180000    -4.4560840000
   36      O       1.8145920000     1.0384820000    -5.4065100000
   37      O       3.6431620000     2.1120420000    -4.5692250000
   38      C       4.0745300000     2.3550610000    -5.9162070000
   39      H       5.0245560000     2.9116270000    -5.8330640000
   40      H       3.3220100000     2.9518600000    -6.4701680000
   41      H       4.2294900000     1.4009100000    -6.4592930000
   42      H       2.9449860000     1.7022600000     1.3064860000
 ----------------------------------------------------------------

   10   -2754.2484030512      9.29e-07  Convergence criterion met
 Total energy in the final basis set =    -2754.2484030512
        RIMP2         total energy =     -2759.3123232829 a.u.

                    Orbital Energies (a.u.)
 --------------------------------------------------------------

 Alpha MOs
 -- Occupied --
-92.0124 -92.0093 -91.9840 -91.9795 -26.3463 -20.6154 -20.5906 -20.5883
-20.5618 -11.4105 -11.3871 -11.3353 -11.3213 -11.3160 -11.3129 -11.2984
-11.2893 -11.2883 -11.2880 -11.2862 -11.2842 -11.2809 -11.2809 -11.2768
-11.2656 -11.2552 -11.2549 -11.2481 -11.2430  -9.0120  -9.0088  -8.9839
 -8.9809  -6.6926  -6.6917  -6.6915  -6.6897  -6.6890  -6.6880  -6.6649
 -6.6643  -6.6635  -6.6619  -6.6611  -6.6602  -1.6633  -1.4680  -1.4146
 -1.4112  -1.3707  -1.2342  -1.1901  -1.1648  -1.1397  -1.0839  -1.0483
 -1.0454  -1.0264  -0.9975  -0.9867  -0.9645  -0.9588  -0.9489  -0.9384
 -0.8930  -0.8717  -0.8436  -0.8134  -0.7952  -0.7853  -0.7827  -0.7632
 -0.7560  -0.7308  -0.7280  -0.7131  -0.6994  -0.6863  -0.6830  -0.6790
 -0.6746  -0.6608  -0.6572  -0.6505  -0.6290  -0.6176  -0.6160  -0.6094
 -0.5988  -0.5898  -0.5750  -0.5707  -0.5638  -0.5634  -0.5531  -0.5322
 -0.5318  -0.5307  -0.5201  -0.5153  -0.5129  -0.5105  -0.5031  -0.4922
 -0.4880  -0.4845  -0.4753  -0.4746  -0.4710  -0.4607  -0.4566  -0.4045
 -0.3937  -0.3831  -0.3534  -0.3522  -0.3115  -0.3013  -0.2555

          Ground-State Mulliken Net Atomic Charges

     Atom                 Charge (a.u.)
  ----------------------------------------
      1 C                    -0.194117
      2 C                    -0.253929
      3 S                    -0.025987
      4 C                    -0.020272
      5 H                     0.195373
      6 C                    -0.027797
      7 C                     0.240185
      8 C                     0.241354
      9 C                    -0.045355
     10 C                    -0.016116
     11 O                    -0.333955
     12 O                    -0.340157
     13 C                    -0.085711
     14 H                     0.121785
     15 H                     0.090233
     16 H                     0.093323
     17 C                    -0.086304
     18 H                     0.124696
     19 H                     0.093302
     20 H                     0.088923
     21 C                    -0.244814
     22 S                    -0.034875
     23 C                    -0.055617
     24 H                     0.193785
     25 H                     0.205266
     26 C                    -0.150703
     27 S                     0.128211
     28 C                    -0.118318
     29 C                     0.080520
     30 C                    -0.120213
     31 S                     0.059839
     32 C                    -0.152902
     33 C                     0.394402
     34 F                    -0.204142
     35 C                     0.449183
     36 O                    -0.462209
     37 O                    -0.301341
     38 C                    -0.058119
     39 H                     0.121423
     40 H                     0.095282
     41 H                     0.095356
     42 H                     0.220512
  ----------------------------------------
  Sum of atomic charges =     0.000000

                    Cartesian Multipole Moments
 -----------------------------------------------------------------
    Charge (ESU x 10^10)
                 0.0000
    Dipole Moment (Debye)
         X       3.9888      Y       1.5283      Z       2.3889
       Tot       4.8942
    Quadrupole Moments (Debye-Ang)
        XX    -168.1276     XY       7.7720     YY    -178.2609
        XZ       2.9354     YZ      -2.3801     ZZ    -200.1068

 Total job time:  302.79s(wall), 9770.17s(cpu)
        *  Thank you very much for using Q-Chem.  Have a nice day.  *
