 Q-Chem 5.4, Q-Chem, Inc., Pleasanton, CA (2021)
 Q-Chem 5.4.0 for Intel X86 EM64T Linux

User input:
--------------------------------------------------------------
$molecule
0 1
C	-0.306235	-8.517702	-0.095966
C	0.754415	-7.641575	0.082807
S	-1.833702	-7.638634	-0.348635
C	0.383675	-6.264785	0.017401
H	1.787757	-7.966081	0.259008
C	-1.020885	-6.072714	-0.231913
C	-1.579097	-4.787049	-0.305044
C	1.268082	-5.162801	0.196549
C	0.708796	-3.874817	0.127606
C	-0.696769	-3.683952	-0.124792
O	2.572378	-5.499772	0.397867
O	-2.889532	-4.459055	-0.506103
C	-3.718420	-5.329063	-1.267335
H	-4.635204	-4.755694	-1.502804
H	-4.010790	-6.238095	-0.697471
H	-3.226506	-5.637262	-2.215194
C	3.467415	-4.572261	0.999238
H	4.388648	-5.139743	1.230649
H	3.052323	-4.153131	1.940905
H	3.730819	-3.739531	0.311543
C	-1.064366	-2.306654	-0.187323
S	1.521154	-2.306501	0.257128
C	-0.000000	-1.435185	-0.000000
H	-2.095939	-1.978138	-0.365903
H	-0.309131	-9.614033	-0.092855
C	0.000000	0.000000	0.000000
S	0.452792	0.783312	1.507541
C	1.238397	2.145556	0.718873
C	0.452875	0.782898	-1.067872
C	1.145945	1.987956	-0.686410
S	0.333556	0.570531	-2.805516
C	1.204604	2.090290	-3.054530
C	1.556633	2.704929	-1.862551
F	2.220797	3.864903	-1.819088
C	1.430252	2.477345	-4.456084
O	1.052242	1.806648	-5.406510
O	2.099050	3.650663	-4.569225
C	2.351116	4.076808	-5.916207
H	2.895579	5.033821	-5.833064
H	1.401015	4.217390	-6.470168
H	2.962391	3.327969	-6.459293
H	1.699302	2.946693	1.306486
$end

$rem
JOBTYPE		SP
EXCHANGE	HF
CORRELATION	pRIMP2
BASIS		cc-pvtz
METHOD		rimp2
AUX_BASIS	rimp2-cc-pvtz
SOLVENT_METHOD	PCM
PURECART	11111
SYMMETRY	false
MEM_TOTAL	110000
SCF_CONVERGENCE = 6
THRESH=10
GUI = 2
$end

$solvent
dielectric 4.90
$end
--------------------------------------------------------------

             Standard Nuclear Orientation (Angstroms)
    I     Atom           X                Y                Z
 ----------------------------------------------------------------
    1      C      -0.3062350000    -8.5177020000    -0.0959660000
    2      C       0.7544150000    -7.6415750000     0.0828070000
    3      S      -1.8337020000    -7.6386340000    -0.3486350000
    4      C       0.3836750000    -6.2647850000     0.0174010000
    5      H       1.7877570000    -7.9660810000     0.2590080000
    6      C      -1.0208850000    -6.0727140000    -0.2319130000
    7      C      -1.5790970000    -4.7870490000    -0.3050440000
    8      C       1.2680820000    -5.1628010000     0.1965490000
    9      C       0.7087960000    -3.8748170000     0.1276060000
   10      C      -0.6967690000    -3.6839520000    -0.1247920000
   11      O       2.5723780000    -5.4997720000     0.3978670000
   12      O      -2.8895320000    -4.4590550000    -0.5061030000
   13      C      -3.7184200000    -5.3290630000    -1.2673350000
   14      H      -4.6352040000    -4.7556940000    -1.5028040000
   15      H      -4.0107900000    -6.2380950000    -0.6974710000
   16      H      -3.2265060000    -5.6372620000    -2.2151940000
   17      C       3.4674150000    -4.5722610000     0.9992380000
   18      H       4.3886480000    -5.1397430000     1.2306490000
   19      H       3.0523230000    -4.1531310000     1.9409050000
   20      H       3.7308190000    -3.7395310000     0.3115430000
   21      C      -1.0643660000    -2.3066540000    -0.1873230000
   22      S       1.5211540000    -2.3065010000     0.2571280000
   23      C       0.0000000000    -1.4351850000     0.0000000000
   24      H      -2.0959390000    -1.9781380000    -0.3659030000
   25      H      -0.3091310000    -9.6140330000    -0.0928550000
   26      C       0.0000000000     0.0000000000     0.0000000000
   27      S       0.4527920000     0.7833120000     1.5075410000
   28      C       1.2383970000     2.1455560000     0.7188730000
   29      C       0.4528750000     0.7828980000    -1.0678720000
   30      C       1.1459450000     1.9879560000    -0.6864100000
   31      S       0.3335560000     0.5705310000    -2.8055160000
   32      C       1.2046040000     2.0902900000    -3.0545300000
   33      C       1.5566330000     2.7049290000    -1.8625510000
   34      F       2.2207970000     3.8649030000    -1.8190880000
   35      C       1.4302520000     2.4773450000    -4.4560840000
   36      O       1.0522420000     1.8066480000    -5.4065100000
   37      O       2.0990500000     3.6506630000    -4.5692250000
   38      C       2.3511160000     4.0768080000    -5.9162070000
   39      H       2.8955790000     5.0338210000    -5.8330640000
   40      H       1.4010150000     4.2173900000    -6.4701680000
   41      H       2.9623910000     3.3279690000    -6.4592930000
   42      H       1.6993020000     2.9466930000     1.3064860000
 ----------------------------------------------------------------

   10   -2754.2991635559      7.76e-07  Convergence criterion met
 Total energy in the final basis set =    -2754.2991635559
        RIMP2         total energy =     -2759.3520998467 a.u.

                    Orbital Energies (a.u.)
 --------------------------------------------------------------

 Alpha MOs
 -- Occupied --
-92.0136 -91.9995 -91.9873 -91.9859 -26.3433 -20.6144 -20.5920 -20.5909
-20.5607 -11.4089 -11.3826 -11.3184 -11.3171 -11.3152 -11.3049 -11.2966
-11.2901 -11.2887 -11.2886 -11.2869 -11.2856 -11.2850 -11.2843 -11.2832
-11.2794 -11.2588 -11.2584 -11.2539 -11.2496  -9.0123  -8.9994  -8.9878
 -8.9858  -6.6930  -6.6923  -6.6919  -6.6803  -6.6796  -6.6785  -6.6687
 -6.6680  -6.6671  -6.6668  -6.6662  -6.6653  -1.6604  -1.4669  -1.4161
 -1.4137  -1.3695  -1.2225  -1.1932  -1.1646  -1.1361  -1.0837  -1.0511
 -1.0416  -1.0226  -1.0006  -0.9870  -0.9616  -0.9604  -0.9500  -0.9383
 -0.8952  -0.8676  -0.8492  -0.8099  -0.7935  -0.7876  -0.7856  -0.7643
 -0.7550  -0.7330  -0.7253  -0.7097  -0.7005  -0.6848  -0.6824  -0.6804
 -0.6736  -0.6587  -0.6575  -0.6522  -0.6297  -0.6195  -0.6170  -0.6055
 -0.5980  -0.5868  -0.5765  -0.5688  -0.5654  -0.5614  -0.5550  -0.5430
 -0.5339  -0.5307  -0.5224  -0.5152  -0.5147  -0.5095  -0.5036  -0.4938
 -0.4892  -0.4804  -0.4742  -0.4733  -0.4688  -0.4663  -0.4613  -0.4056
 -0.3960  -0.3862  -0.3557  -0.3505  -0.3115  -0.3009  -0.2584

          Ground-State Mulliken Net Atomic Charges

     Atom                 Charge (a.u.)
  ----------------------------------------
      1 C                    -0.188823
      2 C                    -0.254604
      3 S                    -0.022906
      4 C                    -0.014098
      5 H                     0.196159
      6 C                    -0.028099
      7 C                     0.241476
      8 C                     0.239790
      9 C                    -0.041662
     10 C                    -0.023602
     11 O                    -0.333466
     12 O                    -0.339846
     13 C                    -0.085748
     14 H                     0.122557
     15 H                     0.090779
     16 H                     0.094220
     17 C                    -0.086404
     18 H                     0.124825
     19 H                     0.094034
     20 H                     0.089973
     21 C                    -0.216904
     22 S                    -0.002854
     23 C                    -0.077708
     24 H                     0.197845
     25 H                     0.206266
     26 C                    -0.024200
     27 S                     0.109380
     28 C                    -0.174262
     29 C                    -0.009656
     30 C                    -0.086291
     31 S                     0.018530
     32 C                    -0.152837
     33 C                     0.389494
     34 F                    -0.206172
     35 C                     0.446716
     36 O                    -0.461470
     37 O                    -0.301046
     38 C                    -0.058377
     39 H                     0.121246
     40 H                     0.095039
     41 H                     0.095065
     42 H                     0.217644
  ----------------------------------------
  Sum of atomic charges =     0.000000

                    Cartesian Multipole Moments
 -----------------------------------------------------------------
    Charge (ESU x 10^10)
                -0.0000
    Dipole Moment (Debye)
         X       1.7003      Y       1.0838      Z       2.7084
       Tot       3.3766
    Quadrupole Moments (Debye-Ang)
        XX    -176.9386     XY       7.1866     YY    -164.4827
        XZ       5.6117     YZ      -4.8305     ZZ    -202.2839

 Total job time:  300.66s(wall), 9474.35s(cpu)
        *  Thank you very much for using Q-Chem.  Have a nice day.  *
