 Q-Chem 5.4, Q-Chem, Inc., Pleasanton, CA (2021)
 Q-Chem 5.4.0 for Intel X86 EM64T Linux

User input:
--------------------------------------------------------------
$molecule
0 1
C	-0.217225	-8.517702	-0.236226
C	0.611939	-7.641575	0.448921
S	-1.413715	-7.638634	-1.218777
C	0.323572	-6.264785	0.206907
H	1.418739	-7.966081	1.118185
C	-0.768156	-6.072714	-0.711285
C	-1.215016	-4.787049	-1.053725
C	0.999917	-5.162801	0.804258
C	0.550033	-3.874817	0.464908
C	-0.541024	-3.683952	-0.456457
O	2.028811	-5.499772	1.630752
O	-2.249357	-4.459055	-1.883064
C	-2.586579	-5.329063	-2.956754
H	-3.262802	-4.755694	-3.619069
H	-3.124711	-6.238095	-2.609423
H	-1.686639	-5.637262	-3.531667
C	2.503251	-4.572261	2.599073
H	3.185356	-5.139743	3.260097
H	1.672937	-4.153131	3.207034
H	3.075213	-3.739531	2.135214
C	-0.828107	-2.306654	-0.694410
S	1.188794	-2.306501	0.983256
C	-0.000000	-1.435185	-0.000000
H	-1.632185	-1.978138	-1.364851
H	-0.221288	-9.614033	-0.234980
C	0.000000	0.000000	0.000000
S	0.581934	0.692785	1.507541
C	1.592155	1.897915	0.718873
C	0.581944	0.692363	-1.067872
C	1.473741	1.758764	-0.686410
S	0.427560	0.503942	-2.805516
C	1.549278	1.849357	-3.054530
C	2.002690	2.393529	-1.862551
F	2.858191	3.420549	-1.819088
C	1.838710	2.191348	-4.456084
O	1.349977	1.596481	-5.406510
O	2.701091	3.230705	-4.569225
C	3.023327	3.606605	-5.916207
H	3.725703	4.454534	-5.833064
H	2.112072	3.910035	-6.470168
H	3.495281	2.762996	-6.459293
H	2.185174	2.606846	1.306486
$end

$rem
JOBTYPE		SP
EXCHANGE	HF
CORRELATION	pRIMP2
BASIS		cc-pvtz
METHOD		rimp2
AUX_BASIS	rimp2-cc-pvtz
SOLVENT_METHOD	PCM
PURECART	11111
SYMMETRY	false
MEM_TOTAL	110000
SCF_CONVERGENCE = 6
THRESH=10
GUI = 2
$end

$solvent
dielectric 4.90
$end
--------------------------------------------------------------

             Standard Nuclear Orientation (Angstroms)
    I     Atom           X                Y                Z
 ----------------------------------------------------------------
    1      C      -0.2172250000    -8.5177020000    -0.2362260000
    2      C       0.6119390000    -7.6415750000     0.4489210000
    3      S      -1.4137150000    -7.6386340000    -1.2187770000
    4      C       0.3235720000    -6.2647850000     0.2069070000
    5      H       1.4187390000    -7.9660810000     1.1181850000
    6      C      -0.7681560000    -6.0727140000    -0.7112850000
    7      C      -1.2150160000    -4.7870490000    -1.0537250000
    8      C       0.9999170000    -5.1628010000     0.8042580000
    9      C       0.5500330000    -3.8748170000     0.4649080000
   10      C      -0.5410240000    -3.6839520000    -0.4564570000
   11      O       2.0288110000    -5.4997720000     1.6307520000
   12      O      -2.2493570000    -4.4590550000    -1.8830640000
   13      C      -2.5865790000    -5.3290630000    -2.9567540000
   14      H      -3.2628020000    -4.7556940000    -3.6190690000
   15      H      -3.1247110000    -6.2380950000    -2.6094230000
   16      H      -1.6866390000    -5.6372620000    -3.5316670000
   17      C       2.5032510000    -4.5722610000     2.5990730000
   18      H       3.1853560000    -5.1397430000     3.2600970000
   19      H       1.6729370000    -4.1531310000     3.2070340000
   20      H       3.0752130000    -3.7395310000     2.1352140000
   21      C      -0.8281070000    -2.3066540000    -0.6944100000
   22      S       1.1887940000    -2.3065010000     0.9832560000
   23      C       0.0000000000    -1.4351850000     0.0000000000
   24      H      -1.6321850000    -1.9781380000    -1.3648510000
   25      H      -0.2212880000    -9.6140330000    -0.2349800000
   26      C       0.0000000000     0.0000000000     0.0000000000
   27      S       0.5819340000     0.6927850000     1.5075410000
   28      C       1.5921550000     1.8979150000     0.7188730000
   29      C       0.5819440000     0.6923630000    -1.0678720000
   30      C       1.4737410000     1.7587640000    -0.6864100000
   31      S       0.4275600000     0.5039420000    -2.8055160000
   32      C       1.5492780000     1.8493570000    -3.0545300000
   33      C       2.0026900000     2.3935290000    -1.8625510000
   34      F       2.8581910000     3.4205490000    -1.8190880000
   35      C       1.8387100000     2.1913480000    -4.4560840000
   36      O       1.3499770000     1.5964810000    -5.4065100000
   37      O       2.7010910000     3.2307050000    -4.5692250000
   38      C       3.0233270000     3.6066050000    -5.9162070000
   39      H       3.7257030000     4.4545340000    -5.8330640000
   40      H       2.1120720000     3.9100350000    -6.4701680000
   41      H       3.4952810000     2.7629960000    -6.4592930000
   42      H       2.1851740000     2.6068460000     1.3064860000
 ----------------------------------------------------------------

   10   -2754.2866410828      7.52e-07  Convergence criterion met
 Total energy in the final basis set =    -2754.2866410828
        RIMP2         total energy =     -2759.3441400991 a.u.

                    Orbital Energies (a.u.)
 --------------------------------------------------------------

 Alpha MOs
 -- Occupied --
-92.0145 -92.0033 -91.9884 -91.9844 -26.3446 -20.6151 -20.5917 -20.5886
-20.5615 -11.4099 -11.3845 -11.3216 -11.3179 -11.3132 -11.3111 -11.2978
-11.2935 -11.2890 -11.2870 -11.2868 -11.2868 -11.2844 -11.2821 -11.2815
-11.2770 -11.2583 -11.2553 -11.2486 -11.2457  -9.0136  -9.0030  -8.9889
 -8.9844  -6.6943  -6.6936  -6.6932  -6.6840  -6.6832  -6.6822  -6.6698
 -6.6691  -6.6681  -6.6654  -6.6647  -6.6639  -1.6617  -1.4676  -1.4157
 -1.4115  -1.3703  -1.2268  -1.1919  -1.1646  -1.1381  -1.0838  -1.0495
 -1.0434  -1.0249  -0.9993  -0.9869  -0.9638  -0.9593  -0.9493  -0.9386
 -0.8944  -0.8696  -0.8479  -0.8104  -0.7962  -0.7861  -0.7850  -0.7630
 -0.7556  -0.7316  -0.7265  -0.7114  -0.7003  -0.6856  -0.6819  -0.6802
 -0.6742  -0.6585  -0.6580  -0.6510  -0.6290  -0.6183  -0.6160  -0.6050
 -0.5996  -0.5891  -0.5763  -0.5701  -0.5645  -0.5619  -0.5542  -0.5398
 -0.5339  -0.5310  -0.5206  -0.5158  -0.5140  -0.5115  -0.5036  -0.4933
 -0.4874  -0.4831  -0.4749  -0.4742  -0.4698  -0.4633  -0.4605  -0.4153
 -0.3958  -0.3829  -0.3558  -0.3508  -0.3194  -0.2953  -0.2523

          Ground-State Mulliken Net Atomic Charges

     Atom                 Charge (a.u.)
  ----------------------------------------
      1 C                    -0.193947
      2 C                    -0.253961
      3 S                    -0.025320
      4 C                    -0.019730
      5 H                     0.195530
      6 C                    -0.025143
      7 C                     0.232472
      8 C                     0.241252
      9 C                    -0.050019
     10 C                    -0.015980
     11 O                    -0.333243
     12 O                    -0.340877
     13 C                    -0.085734
     14 H                     0.122165
     15 H                     0.090329
     16 H                     0.093442
     17 C                    -0.087011
     18 H                     0.125076
     19 H                     0.094162
     20 H                     0.089146
     21 C                    -0.265101
     22 S                    -0.012737
     23 C                    -0.022775
     24 H                     0.197161
     25 H                     0.205376
     26 C                    -0.056462
     27 S                     0.093267
     28 C                    -0.152814
     29 C                     0.040791
     30 C                    -0.100970
     31 S                     0.030539
     32 C                    -0.151249
     33 C                     0.389926
     34 F                    -0.205200
     35 C                     0.447262
     36 O                    -0.461328
     37 O                    -0.301137
     38 C                    -0.058329
     39 H                     0.121380
     40 H                     0.095187
     41 H                     0.095232
     42 H                     0.219374
  ----------------------------------------
  Sum of atomic charges =     0.000000

                    Cartesian Multipole Moments
 -----------------------------------------------------------------
    Charge (ESU x 10^10)
                 0.0000
    Dipole Moment (Debye)
         X       2.6881      Y       1.8443      Z       2.8150
       Tot       4.3071
    Quadrupole Moments (Debye-Ang)
        XX    -186.4420     XY       7.0696     YY    -171.5232
        XZ       7.1757     YZ      -4.9642     ZZ    -189.3503

 Total job time:  322.59s(wall), 10550.23s(cpu)
        *  Thank you very much for using Q-Chem.  Have a nice day.  *
