 Q-Chem 5.4, Q-Chem, Inc., Pleasanton, CA (2021)
 Q-Chem 5.4.0 for Intel X86 EM64T Linux

User input:
--------------------------------------------------------------
$molecule
0 1
C	-0.284919	-8.517702	-0.147685
C	0.728574	-7.641575	0.212552
S	-1.745304	-7.638634	-0.661757
C	0.374824	-6.264785	0.083761
H	1.715621	-7.966081	0.565513
C	-0.965104	-6.072714	-0.405665
C	-1.502136	-4.787049	-0.574617
C	1.214687	-5.162801	0.413763
C	0.675870	-3.874817	0.248748
C	-0.664513	-3.683952	-0.243888
O	2.464209	-5.499772	0.838511
O	-2.757750	-4.459055	-1.000176
C	-3.441858	-5.329063	-1.893778
H	-4.303826	-4.755694	-2.284868
H	-3.828743	-6.238095	-1.383341
H	-2.792824	-5.637262	-2.741817
C	3.241222	-4.572261	1.586168
H	4.108274	-5.139743	1.974033
H	2.668916	-4.153131	2.441448
H	3.620041	-3.739531	0.954660
C	-1.015668	-2.306654	-0.369302
S	1.453394	-2.306501	0.517367
C	-0.000000	-1.435185	-0.000000
H	-2.000559	-1.978138	-0.724300
H	-0.288311	-9.614033	-0.145124
C	0.000000	0.000000	0.000000
S	0.452792	0.783312	1.507541
C	1.238397	2.145556	0.718873
C	0.452875	0.782898	-1.067872
C	1.145945	1.987956	-0.686410
S	0.333556	0.570531	-2.805516
C	1.204604	2.090290	-3.054530
C	1.556633	2.704929	-1.862551
F	2.220797	3.864903	-1.819088
C	1.430252	2.477345	-4.456084
O	1.052242	1.806648	-5.406510
O	2.099050	3.650663	-4.569225
C	2.351116	4.076808	-5.916207
H	2.895579	5.033821	-5.833064
H	1.401015	4.217390	-6.470168
H	2.962391	3.327969	-6.459293
H	1.699302	2.946693	1.306486
$end

$rem
JOBTYPE		SP
EXCHANGE	HF
CORRELATION	pRIMP2
BASIS		cc-pvtz
METHOD		rimp2
AUX_BASIS	rimp2-cc-pvtz
SOLVENT_METHOD	PCM
PURECART	11111
SYMMETRY	false
MEM_TOTAL	110000
SCF_CONVERGENCE = 6
THRESH=10
GUI = 2
$end

$solvent
dielectric 4.90
$end
--------------------------------------------------------------

             Standard Nuclear Orientation (Angstroms)
    I     Atom           X                Y                Z
 ----------------------------------------------------------------
    1      C      -0.2849190000    -8.5177020000    -0.1476850000
    2      C       0.7285740000    -7.6415750000     0.2125520000
    3      S      -1.7453040000    -7.6386340000    -0.6617570000
    4      C       0.3748240000    -6.2647850000     0.0837610000
    5      H       1.7156210000    -7.9660810000     0.5655130000
    6      C      -0.9651040000    -6.0727140000    -0.4056650000
    7      C      -1.5021360000    -4.7870490000    -0.5746170000
    8      C       1.2146870000    -5.1628010000     0.4137630000
    9      C       0.6758700000    -3.8748170000     0.2487480000
   10      C      -0.6645130000    -3.6839520000    -0.2438880000
   11      O       2.4642090000    -5.4997720000     0.8385110000
   12      O      -2.7577500000    -4.4590550000    -1.0001760000
   13      C      -3.4418580000    -5.3290630000    -1.8937780000
   14      H      -4.3038260000    -4.7556940000    -2.2848680000
   15      H      -3.8287430000    -6.2380950000    -1.3833410000
   16      H      -2.7928240000    -5.6372620000    -2.7418170000
   17      C       3.2412220000    -4.5722610000     1.5861680000
   18      H       4.1082740000    -5.1397430000     1.9740330000
   19      H       2.6689160000    -4.1531310000     2.4414480000
   20      H       3.6200410000    -3.7395310000     0.9546600000
   21      C      -1.0156680000    -2.3066540000    -0.3693020000
   22      S       1.4533940000    -2.3065010000     0.5173670000
   23      C       0.0000000000    -1.4351850000     0.0000000000
   24      H      -2.0005590000    -1.9781380000    -0.7243000000
   25      H      -0.2883110000    -9.6140330000    -0.1451240000
   26      C       0.0000000000     0.0000000000     0.0000000000
   27      S       0.4527920000     0.7833120000     1.5075410000
   28      C       1.2383970000     2.1455560000     0.7188730000
   29      C       0.4528750000     0.7828980000    -1.0678720000
   30      C       1.1459450000     1.9879560000    -0.6864100000
   31      S       0.3335560000     0.5705310000    -2.8055160000
   32      C       1.2046040000     2.0902900000    -3.0545300000
   33      C       1.5566330000     2.7049290000    -1.8625510000
   34      F       2.2207970000     3.8649030000    -1.8190880000
   35      C       1.4302520000     2.4773450000    -4.4560840000
   36      O       1.0522420000     1.8066480000    -5.4065100000
   37      O       2.0990500000     3.6506630000    -4.5692250000
   38      C       2.3511160000     4.0768080000    -5.9162070000
   39      H       2.8955790000     5.0338210000    -5.8330640000
   40      H       1.4010150000     4.2173900000    -6.4701680000
   41      H       2.9623910000     3.3279690000    -6.4592930000
   42      H       1.6993020000     2.9466930000     1.3064860000
 ----------------------------------------------------------------

   10   -2754.2992281700      7.54e-07  Convergence criterion met
 Total energy in the final basis set =    -2754.2992281700
        RIMP2         total energy =     -2759.3524852450 a.u.

                    Orbital Energies (a.u.)
 --------------------------------------------------------------

 Alpha MOs
 -- Occupied --
-92.0138 -91.9996 -91.9880 -91.9858 -26.3434 -20.6145 -20.5921 -20.5906
-20.5608 -11.4090 -11.3827 -11.3185 -11.3167 -11.3153 -11.3054 -11.2967
-11.2911 -11.2896 -11.2886 -11.2870 -11.2855 -11.2847 -11.2846 -11.2832
-11.2791 -11.2590 -11.2580 -11.2530 -11.2495  -9.0126  -8.9995  -8.9885
 -8.9857  -6.6933  -6.6926  -6.6922  -6.6805  -6.6798  -6.6787  -6.6694
 -6.6687  -6.6677  -6.6667  -6.6660  -6.6652  -1.6605  -1.4669  -1.4161
 -1.4134  -1.3696  -1.2229  -1.1932  -1.1647  -1.1363  -1.0838  -1.0510
 -1.0418  -1.0228  -1.0006  -0.9870  -0.9619  -0.9604  -0.9500  -0.9384
 -0.8952  -0.8678  -0.8493  -0.8095  -0.7943  -0.7873  -0.7857  -0.7642
 -0.7551  -0.7329  -0.7253  -0.7098  -0.7007  -0.6849  -0.6823  -0.6804
 -0.6736  -0.6587  -0.6575  -0.6521  -0.6297  -0.6194  -0.6169  -0.6053
 -0.5982  -0.5873  -0.5765  -0.5691  -0.5654  -0.5613  -0.5549  -0.5426
 -0.5342  -0.5307  -0.5221  -0.5153  -0.5147  -0.5098  -0.5037  -0.4936
 -0.4889  -0.4806  -0.4742  -0.4736  -0.4694  -0.4660  -0.4614  -0.4081
 -0.3959  -0.3857  -0.3557  -0.3509  -0.3139  -0.2988  -0.2572

          Ground-State Mulliken Net Atomic Charges

     Atom                 Charge (a.u.)
  ----------------------------------------
      1 C                    -0.189474
      2 C                    -0.254672
      3 S                    -0.022990
      4 C                    -0.015057
      5 H                     0.196029
      6 C                    -0.027221
      7 C                     0.239742
      8 C                     0.240365
      9 C                    -0.043220
     10 C                    -0.022751
     11 O                    -0.333397
     12 O                    -0.340060
     13 C                    -0.085795
     14 H                     0.122555
     15 H                     0.090670
     16 H                     0.094173
     17 C                    -0.086552
     18 H                     0.124880
     19 H                     0.094128
     20 H                     0.089847
     21 C                    -0.224524
     22 S                    -0.003743
     23 C                    -0.068446
     24 H                     0.197910
     25 H                     0.206148
     26 C                    -0.030469
     27 S                     0.104554
     28 C                    -0.171520
     29 C                     0.007351
     30 C                    -0.091919
     31 S                     0.017923
     32 C                    -0.151770
     33 C                     0.388524
     34 F                    -0.206120
     35 C                     0.446508
     36 O                    -0.461361
     37 O                    -0.301045
     38 C                    -0.058379
     39 H                     0.121267
     40 H                     0.095036
     41 H                     0.095087
     42 H                     0.217791
  ----------------------------------------
  Sum of atomic charges =     0.000000

                    Cartesian Multipole Moments
 -----------------------------------------------------------------
    Charge (ESU x 10^10)
                -0.0000
    Dipole Moment (Debye)
         X       1.7771      Y       1.1767      Z       2.7403
       Tot       3.4715
    Quadrupole Moments (Debye-Ang)
        XX    -180.6189     XY       6.8024     YY    -165.0009
        XZ       7.9823     YZ      -4.9019     ZZ    -198.5812

 Total job time:  296.33s(wall), 9143.80s(cpu)
        *  Thank you very much for using Q-Chem.  Have a nice day.  *
