 Q-Chem 5.4, Q-Chem, Inc., Pleasanton, CA (2021)
 Q-Chem 5.4.0 for Intel X86 EM64T Linux

User input:
--------------------------------------------------------------
$molecule
0 1
C	-0.070009	-8.517702	-0.313191
C	0.305494	-7.641575	0.694746
S	-0.614924	-7.638634	-1.762350
C	0.176768	-6.264785	0.340973
H	0.669571	-7.966081	1.677747
C	-0.309600	-6.072714	-1.000069
C	-0.525372	-4.787049	-1.520060
C	0.463825	-5.162801	1.196466
C	0.243888	-3.874817	0.677639
C	-0.240312	-3.683952	-0.665815
O	0.941626	-5.499772	2.426678
O	-1.006468	-4.459055	-2.755460
C	-0.761666	-5.329063	-3.853913
H	-1.016135	-4.755694	-4.765607
H	-1.401368	-6.238095	-3.822182
H	0.305161	-5.637262	-3.901833
C	0.868342	-4.572261	3.502489
H	1.128551	-5.139743	4.416005
H	-0.154712	-4.153131	3.613841
H	1.595605	-3.739531	3.386756
C	-0.369957	-2.306654	-1.015430
S	0.537898	-2.306501	1.445922
C	-0.000000	-1.435185	-0.000000
H	-0.731088	-1.978138	-1.998088
H	-0.074151	-9.614033	-0.314143
C	0.000000	0.000000	0.000000
S	0.079327	0.901280	1.507541
C	0.215617	2.467903	0.718873
C	0.079577	0.900940	-1.067872
C	0.198433	2.285998	-0.686410
S	0.061187	0.658044	-2.805516
C	0.208347	2.403534	-3.054530
C	0.267636	3.109360	-1.862551
F	0.379347	4.441341	-1.819088
C	0.249278	2.849688	-4.456084
O	0.190132	2.082076	-5.406510
O	0.359548	4.195721	-4.569225
C	0.407901	4.688467	-5.916207
H	0.496901	5.785916	-5.833064
H	-0.512596	4.414348	-6.470168
H	1.278377	4.268124	-6.459293
H	0.294764	3.388767	1.306486
$end

$rem
JOBTYPE		SP
EXCHANGE	HF
CORRELATION	pRIMP2
BASIS		cc-pvtz
METHOD		rimp2
AUX_BASIS	rimp2-cc-pvtz
SOLVENT_METHOD	PCM
PURECART	11111
SYMMETRY	false
MEM_TOTAL	110000
SCF_CONVERGENCE = 6
THRESH=10
GUI = 2
$end

$solvent
dielectric 4.90
$end
--------------------------------------------------------------

             Standard Nuclear Orientation (Angstroms)
    I     Atom           X                Y                Z
 ----------------------------------------------------------------
    1      C      -0.0700090000    -8.5177020000    -0.3131910000
    2      C       0.3054940000    -7.6415750000     0.6947460000
    3      S      -0.6149240000    -7.6386340000    -1.7623500000
    4      C       0.1767680000    -6.2647850000     0.3409730000
    5      H       0.6695710000    -7.9660810000     1.6777470000
    6      C      -0.3096000000    -6.0727140000    -1.0000690000
    7      C      -0.5253720000    -4.7870490000    -1.5200600000
    8      C       0.4638250000    -5.1628010000     1.1964660000
    9      C       0.2438880000    -3.8748170000     0.6776390000
   10      C      -0.2403120000    -3.6839520000    -0.6658150000
   11      O       0.9416260000    -5.4997720000     2.4266780000
   12      O      -1.0064680000    -4.4590550000    -2.7554600000
   13      C      -0.7616660000    -5.3290630000    -3.8539130000
   14      H      -1.0161350000    -4.7556940000    -4.7656070000
   15      H      -1.4013680000    -6.2380950000    -3.8221820000
   16      H       0.3051610000    -5.6372620000    -3.9018330000
   17      C       0.8683420000    -4.5722610000     3.5024890000
   18      H       1.1285510000    -5.1397430000     4.4160050000
   19      H      -0.1547120000    -4.1531310000     3.6138410000
   20      H       1.5956050000    -3.7395310000     3.3867560000
   21      C      -0.3699570000    -2.3066540000    -1.0154300000
   22      S       0.5378980000    -2.3065010000     1.4459220000
   23      C       0.0000000000    -1.4351850000     0.0000000000
   24      H      -0.7310880000    -1.9781380000    -1.9980880000
   25      H      -0.0741510000    -9.6140330000    -0.3141430000
   26      C       0.0000000000     0.0000000000     0.0000000000
   27      S       0.0793270000     0.9012800000     1.5075410000
   28      C       0.2156170000     2.4679030000     0.7188730000
   29      C       0.0795770000     0.9009400000    -1.0678720000
   30      C       0.1984330000     2.2859980000    -0.6864100000
   31      S       0.0611870000     0.6580440000    -2.8055160000
   32      C       0.2083470000     2.4035340000    -3.0545300000
   33      C       0.2676360000     3.1093600000    -1.8625510000
   34      F       0.3793470000     4.4413410000    -1.8190880000
   35      C       0.2492780000     2.8496880000    -4.4560840000
   36      O       0.1901320000     2.0820760000    -5.4065100000
   37      O       0.3595480000     4.1957210000    -4.5692250000
   38      C       0.4079010000     4.6884670000    -5.9162070000
   39      H       0.4969010000     5.7859160000    -5.8330640000
   40      H      -0.5125960000     4.4143480000    -6.4701680000
   41      H       1.2783770000     4.2681240000    -6.4592930000
   42      H       0.2947640000     3.3887670000     1.3064860000
 ----------------------------------------------------------------

   10   -2754.3165142361      7.51e-07  Convergence criterion met
 Total energy in the final basis set =    -2754.3165142361
        RIMP2         total energy =     -2759.3688125543 a.u.

                    Orbital Energies (a.u.)
 --------------------------------------------------------------

 Alpha MOs
 -- Occupied --
-92.0163 -91.9992 -91.9917 -91.9865 -26.3434 -20.6148 -20.5932 -20.5910
-20.5614 -11.4095 -11.3827 -11.3203 -11.3176 -11.3099 -11.3020 -11.2996
-11.2978 -11.2974 -11.2888 -11.2879 -11.2871 -11.2858 -11.2854 -11.2844
-11.2796 -11.2624 -11.2589 -11.2563 -11.2501  -9.0149  -8.9992  -8.9922
 -8.9864  -6.6957  -6.6951  -6.6946  -6.6802  -6.6794  -6.6783  -6.6732
 -6.6726  -6.6716  -6.6674  -6.6667  -6.6659  -1.6605  -1.4673  -1.4172
 -1.4138  -1.3700  -1.2220  -1.1953  -1.1665  -1.1368  -1.0858  -1.0525
 -1.0420  -1.0237  -1.0023  -0.9888  -0.9642  -0.9600  -0.9507  -0.9394
 -0.8968  -0.8681  -0.8526  -0.8084  -0.7992  -0.7882  -0.7864  -0.7646
 -0.7555  -0.7346  -0.7253  -0.7100  -0.7022  -0.6857  -0.6837  -0.6809
 -0.6739  -0.6596  -0.6587  -0.6525  -0.6310  -0.6200  -0.6172  -0.6026
 -0.5982  -0.5856  -0.5792  -0.5710  -0.5654  -0.5602  -0.5554  -0.5505
 -0.5360  -0.5306  -0.5226  -0.5197  -0.5173  -0.5116  -0.5053  -0.4955
 -0.4876  -0.4809  -0.4773  -0.4742  -0.4697  -0.4664  -0.4610  -0.4252
 -0.3966  -0.3848  -0.3607  -0.3492  -0.3271  -0.2898  -0.2510

          Ground-State Mulliken Net Atomic Charges

     Atom                 Charge (a.u.)
  ----------------------------------------
      1 C                    -0.189098
      2 C                    -0.254434
      3 S                    -0.021298
      4 C                    -0.015585
      5 H                     0.196177
      6 C                    -0.027436
      7 C                     0.245448
      8 C                     0.240377
      9 C                    -0.040740
     10 C                    -0.029863
     11 O                    -0.332862
     12 O                    -0.340330
     13 C                    -0.086255
     14 H                     0.123588
     15 H                     0.091378
     16 H                     0.093973
     17 C                    -0.088120
     18 H                     0.125810
     19 H                     0.094912
     20 H                     0.089653
     21 C                    -0.223835
     22 S                    -0.034611
     23 C                    -0.021879
     24 H                     0.192178
     25 H                     0.206387
     26 C                     0.001361
     27 S                     0.078936
     28 C                    -0.184772
     29 C                     0.038870
     30 C                    -0.125151
     31 S                     0.004611
     32 C                    -0.159052
     33 C                     0.402004
     34 F                    -0.206621
     35 C                     0.444540
     36 O                    -0.460885
     37 O                    -0.300607
     38 C                    -0.058694
     39 H                     0.121465
     40 H                     0.095205
     41 H                     0.095124
     42 H                     0.220132
  ----------------------------------------
  Sum of atomic charges =     0.000000

                    Cartesian Multipole Moments
 -----------------------------------------------------------------
    Charge (ESU x 10^10)
                 0.0000
    Dipole Moment (Debye)
         X       0.5112      Y       1.0810      Z       3.0241
       Tot       3.2520
    Quadrupole Moments (Debye-Ang)
        XX    -201.8234     XY       0.1700     YY    -159.2333
        XZ       2.2923     YZ      -6.8994     ZZ    -181.2983

 Total job time:  306.15s(wall), 9641.32s(cpu)
        *  Thank you very much for using Q-Chem.  Have a nice day.  *
