 Q-Chem 5.4, Q-Chem, Inc., Pleasanton, CA (2021)
 Q-Chem 5.4.0 for Intel X86 EM64T Linux

User input:
--------------------------------------------------------------
$molecule
0 1
C	0.306235	-8.517702	0.095966
C	-0.754415	-7.641575	-0.082807
S	1.833702	-7.638634	0.348635
C	-0.383675	-6.264785	-0.017401
H	-1.787757	-7.966081	-0.259008
C	1.020885	-6.072714	0.231913
C	1.579097	-4.787049	0.305044
C	-1.268082	-5.162801	-0.196549
C	-0.708796	-3.874817	-0.127606
C	0.696769	-3.683952	0.124792
O	-2.572378	-5.499772	-0.397867
O	2.889532	-4.459055	0.506103
C	3.718420	-5.329063	1.267335
H	4.635204	-4.755694	1.502804
H	4.010790	-6.238095	0.697471
H	3.226506	-5.637262	2.215194
C	-3.467415	-4.572261	-0.999238
H	-4.388648	-5.139743	-1.230649
H	-3.052323	-4.153131	-1.940905
H	-3.730819	-3.739531	-0.311543
C	1.064366	-2.306654	0.187323
S	-1.521154	-2.306501	-0.257128
C	-0.000000	-1.435185	-0.000000
H	2.095939	-1.978138	0.365903
H	0.309131	-9.614033	0.092855
C	0.000000	0.000000	0.000000
S	0.309893	0.850039	1.507541
C	0.847011	2.328006	0.718873
C	0.310046	0.849645	-1.067872
C	0.783331	2.156746	-0.686410
S	0.229416	0.619785	-2.805516
C	0.823328	2.267711	-3.054530
C	1.063278	2.934142	-1.862551
F	1.515925	4.191824	-1.819088
C	0.978337	2.688069	-4.456084
O	0.722535	1.961921	-5.406510
O	1.433229	3.959697	-4.569225
C	1.607467	4.423139	-5.916207
H	1.977475	5.460158	-5.833064
H	0.647388	4.396602	-6.470168
H	2.339490	3.791823	-6.459293
H	1.161798	3.197007	1.306486
$end

$rem
JOBTYPE		SP
EXCHANGE	HF
CORRELATION	pRIMP2
BASIS		cc-pvtz
METHOD		rimp2
AUX_BASIS	rimp2-cc-pvtz
SOLVENT_METHOD	PCM
PURECART	11111
SYMMETRY	false
MEM_TOTAL	110000
SCF_CONVERGENCE = 6
THRESH=10
GUI = 2
$end

$solvent
dielectric 4.90
$end
--------------------------------------------------------------

             Standard Nuclear Orientation (Angstroms)
    I     Atom           X                Y                Z
 ----------------------------------------------------------------
    1      C       0.3062350000    -8.5177020000     0.0959660000
    2      C      -0.7544150000    -7.6415750000    -0.0828070000
    3      S       1.8337020000    -7.6386340000     0.3486350000
    4      C      -0.3836750000    -6.2647850000    -0.0174010000
    5      H      -1.7877570000    -7.9660810000    -0.2590080000
    6      C       1.0208850000    -6.0727140000     0.2319130000
    7      C       1.5790970000    -4.7870490000     0.3050440000
    8      C      -1.2680820000    -5.1628010000    -0.1965490000
    9      C      -0.7087960000    -3.8748170000    -0.1276060000
   10      C       0.6967690000    -3.6839520000     0.1247920000
   11      O      -2.5723780000    -5.4997720000    -0.3978670000
   12      O       2.8895320000    -4.4590550000     0.5061030000
   13      C       3.7184200000    -5.3290630000     1.2673350000
   14      H       4.6352040000    -4.7556940000     1.5028040000
   15      H       4.0107900000    -6.2380950000     0.6974710000
   16      H       3.2265060000    -5.6372620000     2.2151940000
   17      C      -3.4674150000    -4.5722610000    -0.9992380000
   18      H      -4.3886480000    -5.1397430000    -1.2306490000
   19      H      -3.0523230000    -4.1531310000    -1.9409050000
   20      H      -3.7308190000    -3.7395310000    -0.3115430000
   21      C       1.0643660000    -2.3066540000     0.1873230000
   22      S      -1.5211540000    -2.3065010000    -0.2571280000
   23      C       0.0000000000    -1.4351850000     0.0000000000
   24      H       2.0959390000    -1.9781380000     0.3659030000
   25      H       0.3091310000    -9.6140330000     0.0928550000
   26      C       0.0000000000     0.0000000000     0.0000000000
   27      S       0.3098930000     0.8500390000     1.5075410000
   28      C       0.8470110000     2.3280060000     0.7188730000
   29      C       0.3100460000     0.8496450000    -1.0678720000
   30      C       0.7833310000     2.1567460000    -0.6864100000
   31      S       0.2294160000     0.6197850000    -2.8055160000
   32      C       0.8233280000     2.2677110000    -3.0545300000
   33      C       1.0632780000     2.9341420000    -1.8625510000
   34      F       1.5159250000     4.1918240000    -1.8190880000
   35      C       0.9783370000     2.6880690000    -4.4560840000
   36      O       0.7225350000     1.9619210000    -5.4065100000
   37      O       1.4332290000     3.9596970000    -4.5692250000
   38      C       1.6074670000     4.4231390000    -5.9162070000
   39      H       1.9774750000     5.4601580000    -5.8330640000
   40      H       0.6473880000     4.3966020000    -6.4701680000
   41      H       2.3394900000     3.7918230000    -6.4592930000
   42      H       1.1617980000     3.1970070000     1.3064860000
 ----------------------------------------------------------------

   10   -2754.3069856802      7.24e-07  Convergence criterion met
 Total energy in the final basis set =    -2754.3069856802
        RIMP2         total energy =     -2759.3582785617 a.u.

                    Orbital Energies (a.u.)
 --------------------------------------------------------------

 Alpha MOs
 -- Occupied --
-92.0146 -91.9978 -91.9875 -91.9861 -26.3429 -20.6142 -20.5920 -20.5914
-20.5605 -11.4086 -11.3819 -11.3187 -11.3178 -11.3113 -11.3023 -11.2963
-11.2934 -11.2917 -11.2885 -11.2866 -11.2862 -11.2852 -11.2837 -11.2837
-11.2797 -11.2603 -11.2587 -11.2570 -11.2498  -9.0130  -8.9977  -8.9879
 -8.9861  -6.6937  -6.6931  -6.6926  -6.6787  -6.6780  -6.6769  -6.6688
 -6.6681  -6.6672  -6.6671  -6.6664  -6.6656  -1.6600  -1.4666  -1.4161
 -1.4142  -1.3693  -1.2207  -1.1938  -1.1649  -1.1352  -1.0840  -1.0515
 -1.0409  -1.0220  -1.0010  -0.9874  -0.9617  -0.9599  -0.9499  -0.9389
 -0.8951  -0.8669  -0.8501  -0.8104  -0.7926  -0.7888  -0.7861  -0.7646
 -0.7549  -0.7334  -0.7248  -0.7093  -0.7002  -0.6846  -0.6829  -0.6802
 -0.6734  -0.6590  -0.6570  -0.6525  -0.6300  -0.6199  -0.6167  -0.6048
 -0.5973  -0.5859  -0.5758  -0.5700  -0.5668  -0.5620  -0.5536  -0.5527
 -0.5305  -0.5284  -0.5230  -0.5161  -0.5144  -0.5089  -0.5038  -0.4939
 -0.4893  -0.4793  -0.4749  -0.4729  -0.4698  -0.4652  -0.4607  -0.4049
 -0.3975  -0.3867  -0.3586  -0.3464  -0.3142  -0.2993  -0.2583

          Ground-State Mulliken Net Atomic Charges

     Atom                 Charge (a.u.)
  ----------------------------------------
      1 C                    -0.188614
      2 C                    -0.254052
      3 S                    -0.022658
      4 C                    -0.015449
      5 H                     0.196352
      6 C                    -0.028744
      7 C                     0.240834
      8 C                     0.243513
      9 C                    -0.051801
     10 C                    -0.021748
     11 O                    -0.333638
     12 O                    -0.340089
     13 C                    -0.085689
     14 H                     0.122466
     15 H                     0.091249
     16 H                     0.093750
     17 C                    -0.086128
     18 H                     0.124471
     19 H                     0.095084
     20 H                     0.089524
     21 C                    -0.204371
     22 S                     0.002317
     23 C                    -0.040048
     24 H                     0.199169
     25 H                     0.206360
     26 C                    -0.059750
     27 S                     0.110061
     28 C                    -0.183857
     29 C                     0.002982
     30 C                    -0.097463
     31 S                     0.011931
     32 C                    -0.154225
     33 C                     0.391244
     34 F                    -0.206653
     35 C                     0.446076
     36 O                    -0.461445
     37 O                    -0.300901
     38 C                    -0.058414
     39 H                     0.121145
     40 H                     0.094997
     41 H                     0.095017
     42 H                     0.217194
  ----------------------------------------
  Sum of atomic charges =     0.000000

                    Cartesian Multipole Moments
 -----------------------------------------------------------------
    Charge (ESU x 10^10)
                -0.0000
    Dipole Moment (Debye)
         X       0.9028      Y       1.0104      Z       3.2401
       Tot       3.5120
    Quadrupole Moments (Debye-Ang)
        XX    -179.1198     XY       4.9898     YY    -162.1399
        XZ       6.7760     YZ      -8.2683     ZZ    -202.6142

 Total job time:  296.16s(wall), 8848.06s(cpu)
        *  Thank you very much for using Q-Chem.  Have a nice day.  *
