 Q-Chem 5.4, Q-Chem, Inc., Pleasanton, CA (2021)
 Q-Chem 5.4.0 for Intel X86 EM64T Linux

User input:
--------------------------------------------------------------
$molecule
0 1
C	0.095966	-8.517702	-0.306235
C	-0.082807	-7.641575	0.754415
S	0.348635	-7.638634	-1.833702
C	-0.017401	-6.264785	0.383675
H	-0.259008	-7.966081	1.787757
C	0.231913	-6.072714	-1.020885
C	0.305044	-4.787049	-1.579097
C	-0.196549	-5.162801	1.268082
C	-0.127606	-3.874817	0.708796
C	0.124792	-3.683952	-0.696769
O	-0.397867	-5.499772	2.572378
O	0.506103	-4.459055	-2.889532
C	1.267335	-5.329063	-3.718420
H	1.502804	-4.755694	-4.635204
H	0.697471	-6.238095	-4.010790
H	2.215194	-5.637262	-3.226506
C	-0.999238	-4.572261	3.467415
H	-1.230649	-5.139743	4.388648
H	-1.940905	-4.153131	3.052323
H	-0.311543	-3.739531	3.730819
C	0.187323	-2.306654	-1.064366
S	-0.257128	-2.306501	1.521154
C	0.000000	-1.435185	0.000000
H	0.365903	-1.978138	-2.095939
H	0.092855	-9.614033	-0.309131
C	0.000000	0.000000	0.000000
S	0.000474	0.904764	1.507541
C	-0.000295	2.477305	0.718873
C	0.000752	0.904447	-1.067872
C	-0.001560	2.294593	-0.686410
S	0.003602	0.660872	-2.805516
C	-0.001928	2.412546	-3.054530
C	-0.004381	3.120854	-1.862551
F	-0.009185	4.457503	-1.819088
C	-0.000038	2.860570	-4.456084
O	0.007944	2.090724	-5.406510
O	-0.007501	4.211092	-4.569225
C	-0.002278	4.706177	-5.916207
H	-0.009265	5.807207	-5.833064
H	-0.895381	4.352875	-6.470168
H	0.901521	4.363301	-6.459293
H	-0.001708	3.401562	1.306486
$end

$rem
JOBTYPE		SP
EXCHANGE	HF
CORRELATION	pRIMP2
BASIS		cc-pvtz
METHOD		rimp2
AUX_BASIS	rimp2-cc-pvtz
SOLVENT_METHOD	PCM
PURECART	11111
SYMMETRY	false
MEM_TOTAL	110000
SCF_CONVERGENCE = 6
THRESH=10
GUI = 2
$end

$solvent
dielectric 4.90
$end
--------------------------------------------------------------

             Standard Nuclear Orientation (Angstroms)
    I     Atom           X                Y                Z
 ----------------------------------------------------------------
    1      C       0.0959660000    -8.5177020000    -0.3062350000
    2      C      -0.0828070000    -7.6415750000     0.7544150000
    3      S       0.3486350000    -7.6386340000    -1.8337020000
    4      C      -0.0174010000    -6.2647850000     0.3836750000
    5      H      -0.2590080000    -7.9660810000     1.7877570000
    6      C       0.2319130000    -6.0727140000    -1.0208850000
    7      C       0.3050440000    -4.7870490000    -1.5790970000
    8      C      -0.1965490000    -5.1628010000     1.2680820000
    9      C      -0.1276060000    -3.8748170000     0.7087960000
   10      C       0.1247920000    -3.6839520000    -0.6967690000
   11      O      -0.3978670000    -5.4997720000     2.5723780000
   12      O       0.5061030000    -4.4590550000    -2.8895320000
   13      C       1.2673350000    -5.3290630000    -3.7184200000
   14      H       1.5028040000    -4.7556940000    -4.6352040000
   15      H       0.6974710000    -6.2380950000    -4.0107900000
   16      H       2.2151940000    -5.6372620000    -3.2265060000
   17      C      -0.9992380000    -4.5722610000     3.4674150000
   18      H      -1.2306490000    -5.1397430000     4.3886480000
   19      H      -1.9409050000    -4.1531310000     3.0523230000
   20      H      -0.3115430000    -3.7395310000     3.7308190000
   21      C       0.1873230000    -2.3066540000    -1.0643660000
   22      S      -0.2571280000    -2.3065010000     1.5211540000
   23      C       0.0000000000    -1.4351850000     0.0000000000
   24      H       0.3659030000    -1.9781380000    -2.0959390000
   25      H       0.0928550000    -9.6140330000    -0.3091310000
   26      C       0.0000000000     0.0000000000     0.0000000000
   27      S       0.0004740000     0.9047640000     1.5075410000
   28      C      -0.0002950000     2.4773050000     0.7188730000
   29      C       0.0007520000     0.9044470000    -1.0678720000
   30      C      -0.0015600000     2.2945930000    -0.6864100000
   31      S       0.0036020000     0.6608720000    -2.8055160000
   32      C      -0.0019280000     2.4125460000    -3.0545300000
   33      C      -0.0043810000     3.1208540000    -1.8625510000
   34      F      -0.0091850000     4.4575030000    -1.8190880000
   35      C      -0.0000380000     2.8605700000    -4.4560840000
   36      O       0.0079440000     2.0907240000    -5.4065100000
   37      O      -0.0075010000     4.2110920000    -4.5692250000
   38      C      -0.0022780000     4.7061770000    -5.9162070000
   39      H      -0.0092650000     5.8072070000    -5.8330640000
   40      H      -0.8953810000     4.3528750000    -6.4701680000
   41      H       0.9015210000     4.3633010000    -6.4592930000
   42      H      -0.0017080000     3.4015620000     1.3064860000
 ----------------------------------------------------------------

   10   -2754.3166329403      7.63e-07  Convergence criterion met
 Total energy in the final basis set =    -2754.3166329403
        RIMP2         total energy =     -2759.3692351341 a.u.

                    Orbital Energies (a.u.)
 --------------------------------------------------------------

 Alpha MOs
 -- Occupied --
-92.0165 -91.9996 -91.9915 -91.9865 -26.3436 -20.6149 -20.5932 -20.5911
-20.5614 -11.4095 -11.3830 -11.3203 -11.3178 -11.3100 -11.3024 -11.2994
-11.2979 -11.2978 -11.2888 -11.2879 -11.2874 -11.2860 -11.2855 -11.2845
-11.2796 -11.2626 -11.2590 -11.2566 -11.2501  -9.0151  -8.9996  -8.9922
 -8.9864  -6.6959  -6.6954  -6.6948  -6.6806  -6.6798  -6.6787  -6.6732
 -6.6725  -6.6715  -6.6674  -6.6668  -6.6659  -1.6606  -1.4673  -1.4172
 -1.4139  -1.3701  -1.2222  -1.1954  -1.1666  -1.1370  -1.0860  -1.0526
 -1.0421  -1.0239  -1.0023  -0.9889  -0.9644  -0.9600  -0.9507  -0.9396
 -0.8970  -0.8683  -0.8528  -0.8085  -0.7995  -0.7885  -0.7863  -0.7646
 -0.7555  -0.7348  -0.7254  -0.7101  -0.7023  -0.6861  -0.6839  -0.6810
 -0.6739  -0.6596  -0.6589  -0.6526  -0.6311  -0.6201  -0.6172  -0.6020
 -0.5984  -0.5850  -0.5799  -0.5712  -0.5649  -0.5617  -0.5545  -0.5512
 -0.5360  -0.5304  -0.5244  -0.5200  -0.5169  -0.5109  -0.5059  -0.4959
 -0.4877  -0.4819  -0.4771  -0.4741  -0.4697  -0.4657  -0.4599  -0.4277
 -0.3968  -0.3846  -0.3614  -0.3488  -0.3280  -0.2892  -0.2505

          Ground-State Mulliken Net Atomic Charges

     Atom                 Charge (a.u.)
  ----------------------------------------
      1 C                    -0.189174
      2 C                    -0.254208
      3 S                    -0.021239
      4 C                    -0.016934
      5 H                     0.196219
      6 C                    -0.027963
      7 C                     0.248385
      8 C                     0.241905
      9 C                    -0.038125
     10 C                    -0.035365
     11 O                    -0.332955
     12 O                    -0.340286
     13 C                    -0.086544
     14 H                     0.123569
     15 H                     0.091757
     16 H                     0.093884
     17 C                    -0.088843
     18 H                     0.126265
     19 H                     0.095259
     20 H                     0.089463
     21 C                    -0.206169
     22 S                    -0.042628
     23 C                    -0.017712
     24 H                     0.188875
     25 H                     0.206430
     26 C                    -0.001149
     27 S                     0.076569
     28 C                    -0.187946
     29 C                     0.043076
     30 C                    -0.132506
     31 S                     0.003770
     32 C                    -0.162766
     33 C                     0.408311
     34 F                    -0.206787
     35 C                     0.443202
     36 O                    -0.461153
     37 O                    -0.300618
     38 C                    -0.058748
     39 H                     0.121520
     40 H                     0.095289
     41 H                     0.095134
     42 H                     0.220940
  ----------------------------------------
  Sum of atomic charges =     0.000000

                    Cartesian Multipole Moments
 -----------------------------------------------------------------
    Charge (ESU x 10^10)
                 0.0000
    Dipole Moment (Debye)
         X       0.2060      Y       1.0903      Z       3.1486
       Tot       3.3384
    Quadrupole Moments (Debye-Ang)
        XX    -198.2792     XY      -1.4133     YY    -158.8751
        XZ      -9.1954     YZ      -7.6428     ZZ    -184.9236

 Total job time:  325.22s(wall), 10783.17s(cpu)
        *  Thank you very much for using Q-Chem.  Have a nice day.  *
