 Q-Chem 5.4, Q-Chem, Inc., Pleasanton, CA (2021)
 Q-Chem 5.4.0 for Intel X86 EM64T Linux

User input:
--------------------------------------------------------------
$molecule
0 1
C	-0.236226	-8.517702	0.217225
C	0.448921	-7.641575	-0.611939
S	-1.218777	-7.638634	1.413715
C	0.206907	-6.264785	-0.323572
H	1.118185	-7.966081	-1.418739
C	-0.711285	-6.072714	0.768156
C	-1.053725	-4.787049	1.215016
C	0.804258	-5.162801	-0.999917
C	0.464908	-3.874817	-0.550033
C	-0.456457	-3.683952	0.541024
O	1.630752	-5.499772	-2.028811
O	-1.883064	-4.459055	2.249357
C	-2.956754	-5.329063	2.586579
H	-3.619069	-4.755694	3.262802
H	-2.609423	-6.238095	3.124711
H	-3.531667	-5.637262	1.686639
C	2.599073	-4.572261	-2.503251
H	3.260097	-5.139743	-3.185356
H	3.207034	-4.153131	-1.672937
H	2.135214	-3.739531	-3.075213
C	-0.694410	-2.306654	0.828107
S	0.983256	-2.306501	-1.188794
C	-0.000000	-1.435185	-0.000000
H	-1.364851	-1.978138	1.632185
H	-0.234980	-9.614033	0.221288
C	0.000000	0.000000	0.000000
S	0.581934	0.692785	1.507541
C	1.592155	1.897915	0.718873
C	0.581944	0.692363	-1.067872
C	1.473741	1.758764	-0.686410
S	0.427560	0.503942	-2.805516
C	1.549278	1.849357	-3.054530
C	2.002690	2.393529	-1.862551
F	2.858191	3.420549	-1.819088
C	1.838710	2.191348	-4.456084
O	1.349977	1.596481	-5.406510
O	2.701091	3.230705	-4.569225
C	3.023327	3.606605	-5.916207
H	3.725703	4.454534	-5.833064
H	2.112072	3.910035	-6.470168
H	3.495281	2.762996	-6.459293
H	2.185174	2.606846	1.306486
$end

$rem
JOBTYPE		SP
EXCHANGE	HF
CORRELATION	pRIMP2
BASIS		cc-pvtz
METHOD		rimp2
AUX_BASIS	rimp2-cc-pvtz
SOLVENT_METHOD	PCM
PURECART	11111
SYMMETRY	false
MEM_TOTAL	110000
SCF_CONVERGENCE = 6
THRESH=10
GUI = 2
$end

$solvent
dielectric 4.90
$end
--------------------------------------------------------------

             Standard Nuclear Orientation (Angstroms)
    I     Atom           X                Y                Z
 ----------------------------------------------------------------
    1      C      -0.2362260000    -8.5177020000     0.2172250000
    2      C       0.4489210000    -7.6415750000    -0.6119390000
    3      S      -1.2187770000    -7.6386340000     1.4137150000
    4      C       0.2069070000    -6.2647850000    -0.3235720000
    5      H       1.1181850000    -7.9660810000    -1.4187390000
    6      C      -0.7112850000    -6.0727140000     0.7681560000
    7      C      -1.0537250000    -4.7870490000     1.2150160000
    8      C       0.8042580000    -5.1628010000    -0.9999170000
    9      C       0.4649080000    -3.8748170000    -0.5500330000
   10      C      -0.4564570000    -3.6839520000     0.5410240000
   11      O       1.6307520000    -5.4997720000    -2.0288110000
   12      O      -1.8830640000    -4.4590550000     2.2493570000
   13      C      -2.9567540000    -5.3290630000     2.5865790000
   14      H      -3.6190690000    -4.7556940000     3.2628020000
   15      H      -2.6094230000    -6.2380950000     3.1247110000
   16      H      -3.5316670000    -5.6372620000     1.6866390000
   17      C       2.5990730000    -4.5722610000    -2.5032510000
   18      H       3.2600970000    -5.1397430000    -3.1853560000
   19      H       3.2070340000    -4.1531310000    -1.6729370000
   20      H       2.1352140000    -3.7395310000    -3.0752130000
   21      C      -0.6944100000    -2.3066540000     0.8281070000
   22      S       0.9832560000    -2.3065010000    -1.1887940000
   23      C       0.0000000000    -1.4351850000     0.0000000000
   24      H      -1.3648510000    -1.9781380000     1.6321850000
   25      H      -0.2349800000    -9.6140330000     0.2212880000
   26      C       0.0000000000     0.0000000000     0.0000000000
   27      S       0.5819340000     0.6927850000     1.5075410000
   28      C       1.5921550000     1.8979150000     0.7188730000
   29      C       0.5819440000     0.6923630000    -1.0678720000
   30      C       1.4737410000     1.7587640000    -0.6864100000
   31      S       0.4275600000     0.5039420000    -2.8055160000
   32      C       1.5492780000     1.8493570000    -3.0545300000
   33      C       2.0026900000     2.3935290000    -1.8625510000
   34      F       2.8581910000     3.4205490000    -1.8190880000
   35      C       1.8387100000     2.1913480000    -4.4560840000
   36      O       1.3499770000     1.5964810000    -5.4065100000
   37      O       2.7010910000     3.2307050000    -4.5692250000
   38      C       3.0233270000     3.6066050000    -5.9162070000
   39      H       3.7257030000     4.4545340000    -5.8330640000
   40      H       2.1120720000     3.9100350000    -6.4701680000
   41      H       3.4952810000     2.7629960000    -6.4592930000
   42      H       2.1851740000     2.6068460000     1.3064860000
 ----------------------------------------------------------------

   10   -2754.2852417794      7.58e-07  Convergence criterion met
 Total energy in the final basis set =    -2754.2852417794
        RIMP2         total energy =     -2759.3449189100 a.u.

                    Orbital Energies (a.u.)
 --------------------------------------------------------------

 Alpha MOs
 -- Occupied --
-92.0150 -92.0026 -91.9860 -91.9846 -26.3444 -20.6152 -20.5911 -20.5892
-20.5617 -11.4100 -11.3840 -11.3212 -11.3176 -11.3135 -11.3085 -11.2979
-11.2933 -11.2892 -11.2869 -11.2868 -11.2860 -11.2850 -11.2822 -11.2814
-11.2771 -11.2584 -11.2553 -11.2486 -11.2462  -9.0138  -9.0025  -8.9867
 -8.9845  -6.6945  -6.6937  -6.6933  -6.6835  -6.6827  -6.6817  -6.6676
 -6.6669  -6.6659  -6.6655  -6.6649  -6.6640  -1.6615  -1.4678  -1.4151
 -1.4120  -1.3705  -1.2269  -1.1916  -1.1640  -1.1378  -1.0847  -1.0497
 -1.0427  -1.0253  -0.9993  -0.9866  -0.9646  -0.9573  -0.9489  -0.9402
 -0.8939  -0.8695  -0.8472  -0.8152  -0.7929  -0.7857  -0.7832  -0.7639
 -0.7555  -0.7317  -0.7263  -0.7108  -0.6983  -0.6860  -0.6826  -0.6806
 -0.6744  -0.6589  -0.6575  -0.6511  -0.6293  -0.6183  -0.6158  -0.6062
 -0.5988  -0.5833  -0.5772  -0.5683  -0.5653  -0.5599  -0.5547  -0.5478
 -0.5322  -0.5297  -0.5224  -0.5158  -0.5151  -0.5094  -0.5068  -0.4959
 -0.4872  -0.4816  -0.4758  -0.4739  -0.4696  -0.4621  -0.4579  -0.4158
 -0.3971  -0.3820  -0.3551  -0.3507  -0.3254  -0.2889  -0.2505

          Ground-State Mulliken Net Atomic Charges

     Atom                 Charge (a.u.)
  ----------------------------------------
      1 C                    -0.194217
      2 C                    -0.253513
      3 S                    -0.025993
      4 C                    -0.021057
      5 H                     0.195796
      6 C                    -0.024165
      7 C                     0.229219
      8 C                     0.241990
      9 C                    -0.046984
     10 C                    -0.003084
     11 O                    -0.333257
     12 O                    -0.340895
     13 C                    -0.085605
     14 H                     0.121621
     15 H                     0.090484
     16 H                     0.093472
     17 C                    -0.088919
     18 H                     0.125370
     19 H                     0.093780
     20 H                     0.091018
     21 C                    -0.286854
     22 S                    -0.017843
     23 C                     0.016896
     24 H                     0.192158
     25 H                     0.205434
     26 C                    -0.046077
     27 S                     0.125246
     28 C                    -0.169610
     29 C                    -0.045116
     30 C                    -0.081228
     31 S                     0.047531
     32 C                    -0.155004
     33 C                     0.400691
     34 F                    -0.206327
     35 C                     0.445543
     36 O                    -0.461434
     37 O                    -0.300912
     38 C                    -0.058335
     39 H                     0.121478
     40 H                     0.095349
     41 H                     0.095030
     42 H                     0.218327
  ----------------------------------------
  Sum of atomic charges =     0.000000

                    Cartesian Multipole Moments
 -----------------------------------------------------------------
    Charge (ESU x 10^10)
                 0.0000
    Dipole Moment (Debye)
         X       2.3041      Y       1.7902      Z       2.3580
       Tot       3.7515
    Quadrupole Moments (Debye-Ang)
        XX    -179.1529     XY       8.9719     YY    -171.6580
        XZ     -16.5097     YZ      -4.0478     ZZ    -196.4909

 Total job time:  284.31s(wall), 9221.00s(cpu)
        *  Thank you very much for using Q-Chem.  Have a nice day.  *
