 Q-Chem 5.4, Q-Chem, Inc., Pleasanton, CA (2021)
 Q-Chem 5.4.0 for Intel X86 EM64T Linux

User input:
--------------------------------------------------------------
$molecule
0 1
C	0.236226	-8.517702	-0.217225
C	-0.448921	-7.641575	0.611939
S	1.218777	-7.638634	-1.413715
C	-0.206907	-6.264785	0.323572
H	-1.118185	-7.966081	1.418739
C	0.711285	-6.072714	-0.768156
C	1.053725	-4.787049	-1.215016
C	-0.804258	-5.162801	0.999917
C	-0.464908	-3.874817	0.550033
C	0.456457	-3.683952	-0.541024
O	-1.630752	-5.499772	2.028811
O	1.883064	-4.459055	-2.249357
C	2.956754	-5.329063	-2.586579
H	3.619069	-4.755694	-3.262802
H	2.609423	-6.238095	-3.124711
H	3.531667	-5.637262	-1.686639
C	-2.599073	-4.572261	2.503251
H	-3.260097	-5.139743	3.185356
H	-3.207034	-4.153131	1.672937
H	-2.135214	-3.739531	3.075213
C	0.694410	-2.306654	-0.828107
S	-0.983256	-2.306501	1.188794
C	-0.000000	-1.435185	-0.000000
H	1.364851	-1.978138	-1.632185
H	0.234980	-9.614033	-0.221288
C	0.000000	0.000000	0.000000
S	0.783786	0.451972	1.507541
C	2.145261	1.238908	0.718873
C	0.783650	0.451572	-1.067872
C	1.986396	1.148648	-0.686410
S	0.574133	0.327317	-2.805516
C	2.088363	1.207943	-3.054530
C	2.700548	1.564221	-1.862551
F	3.855718	2.236706	-1.819088
C	2.477307	1.430318	-4.456084
O	1.814592	1.038482	-5.406510
O	3.643162	2.112042	-4.569225
C	4.074530	2.355061	-5.916207
H	5.024556	2.911627	-5.833064
H	3.322010	2.951860	-6.470168
H	4.229490	1.400910	-6.459293
H	2.944986	1.702260	1.306486
$end

$rem
JOBTYPE		SP
EXCHANGE	HF
CORRELATION	pRIMP2
BASIS		cc-pvtz
METHOD		rimp2
AUX_BASIS	rimp2-cc-pvtz
SOLVENT_METHOD	PCM
PURECART	11111
SYMMETRY	false
MEM_TOTAL	110000
SCF_CONVERGENCE = 6
THRESH=10
GUI = 2
$end

$solvent
dielectric 4.90
$end
--------------------------------------------------------------

             Standard Nuclear Orientation (Angstroms)
    I     Atom           X                Y                Z
 ----------------------------------------------------------------
    1      C       0.2362260000    -8.5177020000    -0.2172250000
    2      C      -0.4489210000    -7.6415750000     0.6119390000
    3      S       1.2187770000    -7.6386340000    -1.4137150000
    4      C      -0.2069070000    -6.2647850000     0.3235720000
    5      H      -1.1181850000    -7.9660810000     1.4187390000
    6      C       0.7112850000    -6.0727140000    -0.7681560000
    7      C       1.0537250000    -4.7870490000    -1.2150160000
    8      C      -0.8042580000    -5.1628010000     0.9999170000
    9      C      -0.4649080000    -3.8748170000     0.5500330000
   10      C       0.4564570000    -3.6839520000    -0.5410240000
   11      O      -1.6307520000    -5.4997720000     2.0288110000
   12      O       1.8830640000    -4.4590550000    -2.2493570000
   13      C       2.9567540000    -5.3290630000    -2.5865790000
   14      H       3.6190690000    -4.7556940000    -3.2628020000
   15      H       2.6094230000    -6.2380950000    -3.1247110000
   16      H       3.5316670000    -5.6372620000    -1.6866390000
   17      C      -2.5990730000    -4.5722610000     2.5032510000
   18      H      -3.2600970000    -5.1397430000     3.1853560000
   19      H      -3.2070340000    -4.1531310000     1.6729370000
   20      H      -2.1352140000    -3.7395310000     3.0752130000
   21      C       0.6944100000    -2.3066540000    -0.8281070000
   22      S      -0.9832560000    -2.3065010000     1.1887940000
   23      C       0.0000000000    -1.4351850000     0.0000000000
   24      H       1.3648510000    -1.9781380000    -1.6321850000
   25      H       0.2349800000    -9.6140330000    -0.2212880000
   26      C       0.0000000000     0.0000000000     0.0000000000
   27      S       0.7837860000     0.4519720000     1.5075410000
   28      C       2.1452610000     1.2389080000     0.7188730000
   29      C       0.7836500000     0.4515720000    -1.0678720000
   30      C       1.9863960000     1.1486480000    -0.6864100000
   31      S       0.5741330000     0.3273170000    -2.8055160000
   32      C       2.0883630000     1.2079430000    -3.0545300000
   33      C       2.7005480000     1.5642210000    -1.8625510000
   34      F       3.8557180000     2.2367060000    -1.8190880000
   35      C       2.4773070000     1.4303180000    -4.4560840000
   36      O       1.8145920000     1.0384820000    -5.4065100000
   37      O       3.6431620000     2.1120420000    -4.5692250000
   38      C       4.0745300000     2.3550610000    -5.9162070000
   39      H       5.0245560000     2.9116270000    -5.8330640000
   40      H       3.3220100000     2.9518600000    -6.4701680000
   41      H       4.2294900000     1.4009100000    -6.4592930000
   42      H       2.9449860000     1.7022600000     1.3064860000
 ----------------------------------------------------------------

   11   -2754.2514106286      4.08e-07  Convergence criterion met
 Total energy in the final basis set =    -2754.2514106286
        RIMP2         total energy =     -2759.3154755859 a.u.

                    Orbital Energies (a.u.)
 --------------------------------------------------------------

 Alpha MOs
 -- Occupied --
-92.0161 -92.0089 -91.9831 -91.9807 -26.3467 -20.6161 -20.5904 -20.5871
-20.5626 -11.4112 -11.3873 -11.3376 -11.3215 -11.3161 -11.3102 -11.2997
-11.2958 -11.2903 -11.2897 -11.2856 -11.2839 -11.2807 -11.2786 -11.2749
-11.2706 -11.2564 -11.2524 -11.2474 -11.2382  -9.0154  -9.0086  -8.9831
 -8.9818  -6.6960  -6.6951  -6.6949  -6.6895  -6.6887  -6.6877  -6.6641
 -6.6634  -6.6628  -6.6626  -6.6621  -6.6612  -1.6637  -1.4686  -1.4142
 -1.4100  -1.3714  -1.2354  -1.1896  -1.1647  -1.1405  -1.0857  -1.0481
 -1.0455  -1.0280  -0.9964  -0.9875  -0.9658  -0.9574  -0.9482  -0.9397
 -0.8925  -0.8725  -0.8436  -0.8116  -0.7988  -0.7876  -0.7824  -0.7618
 -0.7562  -0.7307  -0.7284  -0.7141  -0.7000  -0.6868  -0.6830  -0.6795
 -0.6751  -0.6608  -0.6567  -0.6499  -0.6292  -0.6176  -0.6165  -0.6083
 -0.6017  -0.5842  -0.5739  -0.5698  -0.5651  -0.5605  -0.5555  -0.5434
 -0.5320  -0.5259  -0.5207  -0.5165  -0.5124  -0.5074  -0.5066  -0.4948
 -0.4872  -0.4829  -0.4767  -0.4740  -0.4668  -0.4618  -0.4568  -0.4148
 -0.3894  -0.3826  -0.3574  -0.3522  -0.3260  -0.2915  -0.2487

          Ground-State Mulliken Net Atomic Charges

     Atom                 Charge (a.u.)
  ----------------------------------------
      1 C                    -0.198276
      2 C                    -0.253722
      3 S                    -0.028803
      4 C                    -0.022594
      5 H                     0.195096
      6 C                    -0.022918
      7 C                     0.232417
      8 C                     0.246775
      9 C                    -0.044723
     10 C                    -0.026569
     11 O                    -0.333970
     12 O                    -0.342324
     13 C                    -0.085830
     14 H                     0.121265
     15 H                     0.090706
     16 H                     0.092169
     17 C                    -0.086940
     18 H                     0.124837
     19 H                     0.094576
     20 H                     0.088936
     21 C                    -0.267986
     22 S                    -0.052147
     23 C                     0.036467
     24 H                     0.194696
     25 H                     0.204566
     26 C                    -0.201239
     27 S                     0.133429
     28 C                    -0.121536
     29 C                     0.067019
     30 C                    -0.103866
     31 S                     0.068456
     32 C                    -0.154126
     33 C                     0.398916
     34 F                    -0.204861
     35 C                     0.448247
     36 O                    -0.461549
     37 O                    -0.301172
     38 C                    -0.058072
     39 H                     0.121609
     40 H                     0.095496
     41 H                     0.095367
     42 H                     0.222181
  ----------------------------------------
  Sum of atomic charges =     0.000000

                    Cartesian Multipole Moments
 -----------------------------------------------------------------
    Charge (ESU x 10^10)
                 0.0000
    Dipole Moment (Debye)
         X       3.8072      Y       2.1716      Z       2.9194
       Tot       5.2662
    Quadrupole Moments (Debye-Ang)
        XX    -172.5333     XY       7.8214     YY    -181.7797
        XZ     -17.5947     YZ      -5.0052     ZZ    -195.6280

 Total job time:  312.30s(wall), 10190.13s(cpu)
        *  Thank you very much for using Q-Chem.  Have a nice day.  *
