 Q-Chem 5.4, Q-Chem, Inc., Pleasanton, CA (2021)
 Q-Chem 5.4.0 for Intel X86 EM64T Linux

User input:
--------------------------------------------------------------
$molecule
0 1
C	-0.070009	-8.517702	-0.313191
C	0.305494	-7.641575	0.694746
S	-0.614924	-7.638634	-1.762350
C	0.176768	-6.264785	0.340973
H	0.669571	-7.966081	1.677747
C	-0.309600	-6.072714	-1.000069
C	-0.525372	-4.787049	-1.520060
C	0.463825	-5.162801	1.196466
C	0.243888	-3.874817	0.677639
C	-0.240312	-3.683952	-0.665815
O	0.941626	-5.499772	2.426678
O	-1.006468	-4.459055	-2.755460
C	-0.761666	-5.329063	-3.853913
H	-1.016135	-4.755694	-4.765607
H	-1.401368	-6.238095	-3.822182
H	0.305161	-5.637262	-3.901833
C	0.868342	-4.572261	3.502489
H	1.128551	-5.139743	4.416005
H	-0.154712	-4.153131	3.613841
H	1.595605	-3.739531	3.386756
C	-0.369957	-2.306654	-1.015430
S	0.537898	-2.306501	1.445922
C	-0.000000	-1.435185	-0.000000
H	-0.731088	-1.978138	-1.998088
H	-0.074151	-9.614033	-0.314143
C	0.000000	0.000000	0.000000
S	0.382799	0.819795	1.507541
C	1.046687	2.245325	0.718873
C	0.382918	0.819389	-1.067872
C	0.968323	2.080267	-0.686410
S	0.282561	0.597432	-2.805516
C	1.017839	2.187324	-3.054530
C	1.314960	2.830306	-1.862551
F	1.875498	4.043751	-1.819088
C	1.208895	2.592573	-4.456084
O	0.890778	1.891482	-5.406510
O	1.772886	3.819715	-4.569225
C	1.986852	4.266207	-5.916207
H	2.445834	5.267032	-5.833064
H	1.028114	4.323448	-6.470168
H	2.661066	3.573494	-6.459293
H	1.436015	3.083584	1.306486
$end

$rem
JOBTYPE		SP
EXCHANGE	HF
CORRELATION	pRIMP2
BASIS		cc-pvtz
METHOD		rimp2
AUX_BASIS	rimp2-cc-pvtz
SOLVENT_METHOD	PCM
PURECART	11111
SYMMETRY	false
MEM_TOTAL	110000
SCF_CONVERGENCE = 6
THRESH=10
GUI = 2
$end

$solvent
dielectric 4.90
$end
--------------------------------------------------------------

             Standard Nuclear Orientation (Angstroms)
    I     Atom           X                Y                Z
 ----------------------------------------------------------------
    1      C      -0.0700090000    -8.5177020000    -0.3131910000
    2      C       0.3054940000    -7.6415750000     0.6947460000
    3      S      -0.6149240000    -7.6386340000    -1.7623500000
    4      C       0.1767680000    -6.2647850000     0.3409730000
    5      H       0.6695710000    -7.9660810000     1.6777470000
    6      C      -0.3096000000    -6.0727140000    -1.0000690000
    7      C      -0.5253720000    -4.7870490000    -1.5200600000
    8      C       0.4638250000    -5.1628010000     1.1964660000
    9      C       0.2438880000    -3.8748170000     0.6776390000
   10      C      -0.2403120000    -3.6839520000    -0.6658150000
   11      O       0.9416260000    -5.4997720000     2.4266780000
   12      O      -1.0064680000    -4.4590550000    -2.7554600000
   13      C      -0.7616660000    -5.3290630000    -3.8539130000
   14      H      -1.0161350000    -4.7556940000    -4.7656070000
   15      H      -1.4013680000    -6.2380950000    -3.8221820000
   16      H       0.3051610000    -5.6372620000    -3.9018330000
   17      C       0.8683420000    -4.5722610000     3.5024890000
   18      H       1.1285510000    -5.1397430000     4.4160050000
   19      H      -0.1547120000    -4.1531310000     3.6138410000
   20      H       1.5956050000    -3.7395310000     3.3867560000
   21      C      -0.3699570000    -2.3066540000    -1.0154300000
   22      S       0.5378980000    -2.3065010000     1.4459220000
   23      C       0.0000000000    -1.4351850000     0.0000000000
   24      H      -0.7310880000    -1.9781380000    -1.9980880000
   25      H      -0.0741510000    -9.6140330000    -0.3141430000
   26      C       0.0000000000     0.0000000000     0.0000000000
   27      S       0.3827990000     0.8197950000     1.5075410000
   28      C       1.0466870000     2.2453250000     0.7188730000
   29      C       0.3829180000     0.8193890000    -1.0678720000
   30      C       0.9683230000     2.0802670000    -0.6864100000
   31      S       0.2825610000     0.5974320000    -2.8055160000
   32      C       1.0178390000     2.1873240000    -3.0545300000
   33      C       1.3149600000     2.8303060000    -1.8625510000
   34      F       1.8754980000     4.0437510000    -1.8190880000
   35      C       1.2088950000     2.5925730000    -4.4560840000
   36      O       0.8907780000     1.8914820000    -5.4065100000
   37      O       1.7728860000     3.8197150000    -4.5692250000
   38      C       1.9868520000     4.2662070000    -5.9162070000
   39      H       2.4458340000     5.2670320000    -5.8330640000
   40      H       1.0281140000     4.3234480000    -6.4701680000
   41      H       2.6610660000     3.5734940000    -6.4592930000
   42      H       1.4360150000     3.0835840000     1.3064860000
 ----------------------------------------------------------------

   10   -2754.3050990544      7.13e-07  Convergence criterion met
 Total energy in the final basis set =    -2754.3050990544
        RIMP2         total energy =     -2759.3603427461 a.u.

                    Orbital Energies (a.u.)
 --------------------------------------------------------------

 Alpha MOs
 -- Occupied --
-92.0161 -92.0016 -91.9908 -91.9855 -26.3443 -20.6151 -20.5926 -20.5897
-20.5616 -11.4099 -11.3839 -11.3194 -11.3153 -11.3151 -11.3044 -11.2982
-11.2978 -11.2968 -11.2890 -11.2876 -11.2869 -11.2848 -11.2846 -11.2834
-11.2782 -11.2611 -11.2569 -11.2511 -11.2493  -9.0150  -9.0015  -8.9914
 -8.9854  -6.6957  -6.6951  -6.6946  -6.6825  -6.6818  -6.6807  -6.6723
 -6.6716  -6.6706  -6.6664  -6.6657  -6.6649  -1.6613  -1.4676  -1.4166
 -1.4125  -1.3703  -1.2244  -1.1939  -1.1658  -1.1378  -1.0852  -1.0512
 -1.0429  -1.0247  -1.0010  -0.9882  -0.9644  -0.9597  -0.9500  -0.9394
 -0.8959  -0.8691  -0.8509  -0.8094  -0.7985  -0.7879  -0.7855  -0.7637
 -0.7557  -0.7334  -0.7261  -0.7110  -0.7014  -0.6859  -0.6828  -0.6814
 -0.6742  -0.6589  -0.6588  -0.6517  -0.6302  -0.6192  -0.6166  -0.6025
 -0.5996  -0.5868  -0.5786  -0.5709  -0.5649  -0.5606  -0.5562  -0.5467
 -0.5353  -0.5307  -0.5222  -0.5183  -0.5170  -0.5117  -0.5049  -0.4950
 -0.4873  -0.4819  -0.4763  -0.4746  -0.4694  -0.4648  -0.4605  -0.4255
 -0.3960  -0.3835  -0.3606  -0.3485  -0.3269  -0.2904  -0.2497

          Ground-State Mulliken Net Atomic Charges

     Atom                 Charge (a.u.)
  ----------------------------------------
      1 C                    -0.192062
      2 C                    -0.254174
      3 S                    -0.023118
      4 C                    -0.018338
      5 H                     0.195803
      6 C                    -0.026100
      7 C                     0.239432
      8 C                     0.241812
      9 C                    -0.045862
     10 C                    -0.019011
     11 O                    -0.332891
     12 O                    -0.341096
     13 C                    -0.086064
     14 H                     0.123127
     15 H                     0.091054
     16 H                     0.093540
     17 C                    -0.088466
     18 H                     0.125790
     19 H                     0.094760
     20 H                     0.089461
     21 C                    -0.248970
     22 S                    -0.030516
     23 C                    -0.022974
     24 H                     0.192043
     25 H                     0.205846
     26 C                     0.001889
     27 S                     0.081852
     28 C                    -0.171322
     29 C                     0.028120
     30 C                    -0.113420
     31 S                     0.015232
     32 C                    -0.159096
     33 C                     0.400432
     34 F                    -0.205441
     35 C                     0.446498
     36 O                    -0.460829
     37 O                    -0.301063
     38 C                    -0.058431
     39 H                     0.121491
     40 H                     0.095227
     41 H                     0.095208
     42 H                     0.220626
  ----------------------------------------
  Sum of atomic charges =     0.000000

                    Cartesian Multipole Moments
 -----------------------------------------------------------------
    Charge (ESU x 10^10)
                -0.0000
    Dipole Moment (Debye)
         X       1.6569      Y       1.6004      Z       3.0265
       Tot       3.8034
    Quadrupole Moments (Debye-Ang)
        XX    -198.9279     XY       5.0066     YY    -164.8307
        XZ      -0.3243     YZ      -6.6596     ZZ    -181.0704

 Total job time:  300.83s(wall), 9963.90s(cpu)
        *  Thank you very much for using Q-Chem.  Have a nice day.  *
