 Q-Chem 5.4, Q-Chem, Inc., Pleasanton, CA (2021)
 Q-Chem 5.4.0 for Intel X86 EM64T Linux

User input:
--------------------------------------------------------------
$molecule
0 1
C	0.014560	-8.517702	0.320589
C	-0.180211	-7.641575	-0.737240
S	0.299553	-7.638634	1.842356
C	-0.114873	-6.264785	-0.366488
H	-0.368061	-7.966081	-1.768528
C	0.131236	-6.072714	1.038637
C	0.253435	-4.787049	1.588197
C	-0.249014	-5.162801	-1.258831
C	-0.122513	-3.874817	-0.709695
C	0.121043	-3.683952	0.697430
O	-0.505933	-5.499772	-2.553323
O	0.512697	-4.459055	2.888369
C	0.080869	-5.329063	3.927625
H	0.173159	-4.755694	4.869656
H	0.716363	-6.238095	4.007459
H	-0.978072	-5.637262	3.789565
C	-0.246949	-4.572261	-3.600064
H	-0.344574	-5.139743	-4.544887
H	0.779898	-4.153131	-3.532074
H	-0.983261	-3.739531	-3.612378
C	0.188009	-2.306654	1.064246
S	-0.278644	-2.306501	-1.517360
C	-0.000000	-1.435185	-0.000000
H	0.373017	-1.978138	2.094685
H	0.018474	-9.614033	0.322246
C	0.000000	0.000000	0.000000
S	0.157577	0.890937	1.507541
C	0.429889	2.439720	0.718873
C	0.157797	0.890576	-1.067872
C	0.396915	2.260004	-0.686410
S	0.118307	0.650207	-2.805516
C	0.417036	2.376229	-3.054530
C	0.537616	3.074202	-1.862551
F	0.764992	4.391378	-1.819088
C	0.496696	2.817118	-4.456084
O	0.370874	2.057582	-5.406510
O	0.723861	4.148418	-4.569225
C	0.814976	4.635075	-5.916207
H	0.999286	5.720591	-5.833064
H	-0.125909	4.442226	-6.470168
H	1.645504	4.140465	-6.459293
H	0.588993	3.350182	1.306486
$end

$rem
JOBTYPE		SP
EXCHANGE	HF
CORRELATION	pRIMP2
BASIS		cc-pvtz
METHOD		rimp2
AUX_BASIS	rimp2-cc-pvtz
SOLVENT_METHOD	PCM
PURECART	11111
SYMMETRY	false
MEM_TOTAL	110000
SCF_CONVERGENCE = 6
THRESH=10
GUI = 2
$end

$solvent
dielectric 4.90
$end
--------------------------------------------------------------

             Standard Nuclear Orientation (Angstroms)
    I     Atom           X                Y                Z
 ----------------------------------------------------------------
    1      C       0.0145600000    -8.5177020000     0.3205890000
    2      C      -0.1802110000    -7.6415750000    -0.7372400000
    3      S       0.2995530000    -7.6386340000     1.8423560000
    4      C      -0.1148730000    -6.2647850000    -0.3664880000
    5      H      -0.3680610000    -7.9660810000    -1.7685280000
    6      C       0.1312360000    -6.0727140000     1.0386370000
    7      C       0.2534350000    -4.7870490000     1.5881970000
    8      C      -0.2490140000    -5.1628010000    -1.2588310000
    9      C      -0.1225130000    -3.8748170000    -0.7096950000
   10      C       0.1210430000    -3.6839520000     0.6974300000
   11      O      -0.5059330000    -5.4997720000    -2.5533230000
   12      O       0.5126970000    -4.4590550000     2.8883690000
   13      C       0.0808690000    -5.3290630000     3.9276250000
   14      H       0.1731590000    -4.7556940000     4.8696560000
   15      H       0.7163630000    -6.2380950000     4.0074590000
   16      H      -0.9780720000    -5.6372620000     3.7895650000
   17      C      -0.2469490000    -4.5722610000    -3.6000640000
   18      H      -0.3445740000    -5.1397430000    -4.5448870000
   19      H       0.7798980000    -4.1531310000    -3.5320740000
   20      H      -0.9832610000    -3.7395310000    -3.6123780000
   21      C       0.1880090000    -2.3066540000     1.0642460000
   22      S      -0.2786440000    -2.3065010000    -1.5173600000
   23      C       0.0000000000    -1.4351850000     0.0000000000
   24      H       0.3730170000    -1.9781380000     2.0946850000
   25      H       0.0184740000    -9.6140330000     0.3222460000
   26      C       0.0000000000     0.0000000000     0.0000000000
   27      S       0.1575770000     0.8909370000     1.5075410000
   28      C       0.4298890000     2.4397200000     0.7188730000
   29      C       0.1577970000     0.8905760000    -1.0678720000
   30      C       0.3969150000     2.2600040000    -0.6864100000
   31      S       0.1183070000     0.6502070000    -2.8055160000
   32      C       0.4170360000     2.3762290000    -3.0545300000
   33      C       0.5376160000     3.0742020000    -1.8625510000
   34      F       0.7649920000     4.3913780000    -1.8190880000
   35      C       0.4966960000     2.8171180000    -4.4560840000
   36      O       0.3708740000     2.0575820000    -5.4065100000
   37      O       0.7238610000     4.1484180000    -4.5692250000
   38      C       0.8149760000     4.6350750000    -5.9162070000
   39      H       0.9992860000     5.7205910000    -5.8330640000
   40      H      -0.1259090000     4.4422260000    -6.4701680000
   41      H       1.6455040000     4.1404650000    -6.4592930000
   42      H       0.5889930000     3.3501820000     1.3064860000
 ----------------------------------------------------------------

   10   -2754.3144516520      7.65e-07  Convergence criterion met
 Total energy in the final basis set =    -2754.3144516520
        RIMP2         total energy =     -2759.3681413959 a.u.

                    Orbital Energies (a.u.)
 --------------------------------------------------------------

 Alpha MOs
 -- Occupied --
-92.0152 -91.9991 -91.9912 -91.9861 -26.3436 -20.6149 -20.5924 -20.5911
-20.5614 -11.4096 -11.3830 -11.3200 -11.3166 -11.3116 -11.3022 -11.3010
-11.2984 -11.2976 -11.2889 -11.2866 -11.2864 -11.2861 -11.2860 -11.2842
-11.2789 -11.2623 -11.2579 -11.2541 -11.2498  -9.0139  -8.9993  -8.9919
 -8.9860  -6.6946  -6.6941  -6.6935  -6.6803  -6.6795  -6.6784  -6.6728
 -6.6722  -6.6712  -6.6670  -6.6663  -6.6655  -1.6607  -1.4674  -1.4165
 -1.4139  -1.3701  -1.2229  -1.1948  -1.1660  -1.1368  -1.0862  -1.0521
 -1.0418  -1.0245  -1.0022  -0.9883  -0.9645  -0.9585  -0.9499  -0.9413
 -0.8959  -0.8684  -0.8520  -0.8155  -0.7922  -0.7881  -0.7858  -0.7651
 -0.7556  -0.7340  -0.7255  -0.7105  -0.6989  -0.6860  -0.6836  -0.6820
 -0.6739  -0.6592  -0.6584  -0.6525  -0.6309  -0.6198  -0.6167  -0.6030
 -0.5979  -0.5859  -0.5785  -0.5693  -0.5684  -0.5619  -0.5564  -0.5535
 -0.5325  -0.5293  -0.5232  -0.5205  -0.5184  -0.5115  -0.5062  -0.4945
 -0.4872  -0.4789  -0.4771  -0.4749  -0.4700  -0.4645  -0.4592  -0.4272
 -0.3930  -0.3861  -0.3617  -0.3518  -0.3246  -0.2915  -0.2482

          Ground-State Mulliken Net Atomic Charges

     Atom                 Charge (a.u.)
  ----------------------------------------
      1 C                    -0.190860
      2 C                    -0.253118
      3 S                    -0.023249
      4 C                    -0.017122
      5 H                     0.196381
      6 C                    -0.026703
      7 C                     0.237759
      8 C                     0.243660
      9 C                    -0.035161
     10 C                    -0.017742
     11 O                    -0.332801
     12 O                    -0.341102
     13 C                    -0.085631
     14 H                     0.122145
     15 H                     0.091180
     16 H                     0.093901
     17 C                    -0.089327
     18 H                     0.125996
     19 H                     0.095813
     20 H                     0.090523
     21 C                    -0.270735
     22 S                    -0.043049
     23 C                     0.030102
     24 H                     0.185984
     25 H                     0.206147
     26 C                     0.022111
     27 S                     0.084040
     28 C                    -0.178450
     29 C                     0.012172
     30 C                    -0.129012
     31 S                     0.004042
     32 C                    -0.166969
     33 C                     0.410489
     34 F                    -0.206534
     35 C                     0.444119
     36 O                    -0.461204
     37 O                    -0.300781
     38 C                    -0.058687
     39 H                     0.121457
     40 H                     0.095182
     41 H                     0.095138
     42 H                     0.219895
  ----------------------------------------
  Sum of atomic charges =     0.000000

                    Cartesian Multipole Moments
 -----------------------------------------------------------------
    Charge (ESU x 10^10)
                 0.0000
    Dipole Moment (Debye)
         X       0.2360      Y       1.3187      Z       2.7479
       Tot       3.0571
    Quadrupole Moments (Debye-Ang)
        XX    -201.6818     XY       4.2275     YY    -161.0579
        XZ      -2.7728     YZ      -7.2145     ZZ    -180.9979

 Total job time:  318.05s(wall), 9933.27s(cpu)
        *  Thank you very much for using Q-Chem.  Have a nice day.  *
