 Q-Chem 5.4, Q-Chem, Inc., Pleasanton, CA (2021)
 Q-Chem 5.4.0 for Intel X86 EM64T Linux

User input:
--------------------------------------------------------------
$molecule
0 1
C	0.313191	-8.517702	-0.070009
C	-0.694746	-7.641575	0.305494
S	1.762350	-7.638634	-0.614924
C	-0.340973	-6.264785	0.176768
H	-1.677747	-7.966081	0.669571
C	1.000069	-6.072714	-0.309600
C	1.520060	-4.787049	-0.525372
C	-1.196466	-5.162801	0.463825
C	-0.677639	-3.874817	0.243888
C	0.665815	-3.683952	-0.240312
O	-2.426678	-5.499772	0.941626
O	2.755460	-4.459055	-1.006468
C	3.853913	-5.329063	-0.761666
H	4.765607	-4.755694	-1.016135
H	3.822182	-6.238095	-1.401368
H	3.901833	-5.637262	0.305161
C	-3.502489	-4.572261	0.868342
H	-4.416005	-5.139743	1.128551
H	-3.613841	-4.153131	-0.154712
H	-3.386756	-3.739531	1.595605
C	1.015430	-2.306654	-0.369957
S	-1.445922	-2.306501	0.537898
C	-0.000000	-1.435185	-0.000000
H	1.998088	-1.978138	-0.731088
H	0.314143	-9.614033	-0.074151
C	0.000000	0.000000	0.000000
S	0.382799	0.819795	1.507541
C	1.046687	2.245325	0.718873
C	0.382918	0.819389	-1.067872
C	0.968323	2.080267	-0.686410
S	0.282561	0.597432	-2.805516
C	1.017839	2.187324	-3.054530
C	1.314960	2.830306	-1.862551
F	1.875498	4.043751	-1.819088
C	1.208895	2.592573	-4.456084
O	0.890778	1.891482	-5.406510
O	1.772886	3.819715	-4.569225
C	1.986852	4.266207	-5.916207
H	2.445834	5.267032	-5.833064
H	1.028114	4.323448	-6.470168
H	2.661066	3.573494	-6.459293
H	1.436015	3.083584	1.306486
$end

$rem
JOBTYPE		SP
EXCHANGE	HF
CORRELATION	pRIMP2
BASIS		cc-pvtz
METHOD		rimp2
AUX_BASIS	rimp2-cc-pvtz
SOLVENT_METHOD	PCM
PURECART	11111
SYMMETRY	false
MEM_TOTAL	110000
SCF_CONVERGENCE = 6
THRESH=10
GUI = 2
$end

$solvent
dielectric 4.90
$end
--------------------------------------------------------------

             Standard Nuclear Orientation (Angstroms)
    I     Atom           X                Y                Z
 ----------------------------------------------------------------
    1      C       0.3131910000    -8.5177020000    -0.0700090000
    2      C      -0.6947460000    -7.6415750000     0.3054940000
    3      S       1.7623500000    -7.6386340000    -0.6149240000
    4      C      -0.3409730000    -6.2647850000     0.1767680000
    5      H      -1.6777470000    -7.9660810000     0.6695710000
    6      C       1.0000690000    -6.0727140000    -0.3096000000
    7      C       1.5200600000    -4.7870490000    -0.5253720000
    8      C      -1.1964660000    -5.1628010000     0.4638250000
    9      C      -0.6776390000    -3.8748170000     0.2438880000
   10      C       0.6658150000    -3.6839520000    -0.2403120000
   11      O      -2.4266780000    -5.4997720000     0.9416260000
   12      O       2.7554600000    -4.4590550000    -1.0064680000
   13      C       3.8539130000    -5.3290630000    -0.7616660000
   14      H       4.7656070000    -4.7556940000    -1.0161350000
   15      H       3.8221820000    -6.2380950000    -1.4013680000
   16      H       3.9018330000    -5.6372620000     0.3051610000
   17      C      -3.5024890000    -4.5722610000     0.8683420000
   18      H      -4.4160050000    -5.1397430000     1.1285510000
   19      H      -3.6138410000    -4.1531310000    -0.1547120000
   20      H      -3.3867560000    -3.7395310000     1.5956050000
   21      C       1.0154300000    -2.3066540000    -0.3699570000
   22      S      -1.4459220000    -2.3065010000     0.5378980000
   23      C       0.0000000000    -1.4351850000     0.0000000000
   24      H       1.9980880000    -1.9781380000    -0.7310880000
   25      H       0.3141430000    -9.6140330000    -0.0741510000
   26      C       0.0000000000     0.0000000000     0.0000000000
   27      S       0.3827990000     0.8197950000     1.5075410000
   28      C       1.0466870000     2.2453250000     0.7188730000
   29      C       0.3829180000     0.8193890000    -1.0678720000
   30      C       0.9683230000     2.0802670000    -0.6864100000
   31      S       0.2825610000     0.5974320000    -2.8055160000
   32      C       1.0178390000     2.1873240000    -3.0545300000
   33      C       1.3149600000     2.8303060000    -1.8625510000
   34      F       1.8754980000     4.0437510000    -1.8190880000
   35      C       1.2088950000     2.5925730000    -4.4560840000
   36      O       0.8907780000     1.8914820000    -5.4065100000
   37      O       1.7728860000     3.8197150000    -4.5692250000
   38      C       1.9868520000     4.2662070000    -5.9162070000
   39      H       2.4458340000     5.2670320000    -5.8330640000
   40      H       1.0281140000     4.3234480000    -6.4701680000
   41      H       2.6610660000     3.5734940000    -6.4592930000
   42      H       1.4360150000     3.0835840000     1.3064860000
 ----------------------------------------------------------------

   10   -2754.3040384121      7.71e-07  Convergence criterion met
 Total energy in the final basis set =    -2754.3040384121
        RIMP2         total energy =     -2759.3562193622 a.u.

                    Orbital Energies (a.u.)
 --------------------------------------------------------------

 Alpha MOs
 -- Occupied --
-92.0139 -91.9982 -91.9869 -91.9860 -26.3430 -20.6143 -20.5920 -20.5910
-20.5607 -11.4088 -11.3821 -11.3186 -11.3174 -11.3135 -11.3034 -11.2965
-11.2922 -11.2913 -11.2886 -11.2867 -11.2859 -11.2850 -11.2841 -11.2835
-11.2795 -11.2601 -11.2584 -11.2560 -11.2497  -9.0125  -8.9981  -8.9874
 -8.9859  -6.6932  -6.6926  -6.6921  -6.6791  -6.6784  -6.6773  -6.6684
 -6.6676  -6.6669  -6.6667  -6.6663  -6.6654  -1.6602  -1.4668  -1.4161
 -1.4138  -1.3694  -1.2215  -1.1936  -1.1648  -1.1356  -1.0840  -1.0513
 -1.0414  -1.0223  -1.0006  -0.9873  -0.9616  -0.9602  -0.9499  -0.9389
 -0.8950  -0.8672  -0.8495  -0.8088  -0.7954  -0.7880  -0.7859  -0.7642
 -0.7550  -0.7333  -0.7250  -0.7095  -0.7010  -0.6847  -0.6826  -0.6803
 -0.6735  -0.6589  -0.6572  -0.6523  -0.6297  -0.6197  -0.6168  -0.6052
 -0.5976  -0.5844  -0.5758  -0.5705  -0.5663  -0.5615  -0.5534  -0.5513
 -0.5306  -0.5290  -0.5235  -0.5159  -0.5144  -0.5083  -0.5041  -0.4947
 -0.4886  -0.4799  -0.4748  -0.4731  -0.4689  -0.4659  -0.4604  -0.4074
 -0.3956  -0.3866  -0.3577  -0.3484  -0.3173  -0.2966  -0.2569

          Ground-State Mulliken Net Atomic Charges

     Atom                 Charge (a.u.)
  ----------------------------------------
      1 C                    -0.188999
      2 C                    -0.254229
      3 S                    -0.022600
      4 C                    -0.016125
      5 H                     0.196200
      6 C                    -0.029044
      7 C                     0.240889
      8 C                     0.244225
      9 C                    -0.052311
     10 C                    -0.018180
     11 O                    -0.333646
     12 O                    -0.339781
     13 C                    -0.085731
     14 H                     0.122532
     15 H                     0.091221
     16 H                     0.093600
     17 C                    -0.086347
     18 H                     0.124683
     19 H                     0.094791
     20 H                     0.089320
     21 C                    -0.208525
     22 S                    -0.005352
     23 C                    -0.025661
     24 H                     0.199970
     25 H                     0.206267
     26 C                    -0.053141
     27 S                     0.110736
     28 C                    -0.180589
     29 C                    -0.038405
     30 C                    -0.081839
     31 S                     0.021235
     32 C                    -0.154069
     33 C                     0.390631
     34 F                    -0.206724
     35 C                     0.446454
     36 O                    -0.461340
     37 O                    -0.300971
     38 C                    -0.058446
     39 H                     0.121209
     40 H                     0.095122
     41 H                     0.095007
     42 H                     0.217961
  ----------------------------------------
  Sum of atomic charges =     0.000000

                    Cartesian Multipole Moments
 -----------------------------------------------------------------
    Charge (ESU x 10^10)
                 0.0000
    Dipole Moment (Debye)
         X       1.3450      Y       1.0746      Z       3.2067
       Tot       3.6396
    Quadrupole Moments (Debye-Ang)
        XX    -174.4670     XY       5.3055     YY    -163.3802
        XZ      -5.8237     YZ      -7.7259     ZZ    -206.1803

 Total job time:  303.07s(wall), 10230.34s(cpu)
        *  Thank you very much for using Q-Chem.  Have a nice day.  *
