 Q-Chem 5.4, Q-Chem, Inc., Pleasanton, CA (2021)
 Q-Chem 5.4.0 for Intel X86 EM64T Linux

User input:
--------------------------------------------------------------
$molecule
0 1
C	-0.318247	-8.517702	-0.041330
C	0.757333	-7.641575	-0.049453
S	-1.866383	-7.638634	-0.024919
C	0.380867	-6.264785	-0.049488
H	1.805573	-7.966081	-0.055368
C	-1.045647	-6.072714	-0.051115
C	-1.608077	-4.787049	-0.026203
C	1.282948	-5.162801	-0.026637
C	0.720187	-3.874817	0.002586
C	-0.707853	-3.683952	-0.001903
O	2.602386	-5.499772	-0.054867
O	-2.933517	-4.459055	0.003348
C	-3.881999	-5.329063	-0.602384
H	-4.825744	-4.755694	-0.675079
H	-4.070972	-6.238095	0.009592
H	-3.562152	-5.637262	-1.621263
C	3.588253	-4.572261	0.381947
H	4.535674	-5.139743	0.449872
H	3.342986	-4.153131	1.381388
H	3.728239	-3.739531	-0.341040
C	-1.080725	-2.306654	0.000348
S	1.542694	-2.306501	-0.010924
C	0.000000	-1.435185	0.000000
H	-2.127635	-1.978138	0.003612
H	-0.320559	-9.614033	-0.037764
C	0.000000	0.000000	0.000000
S	0.693394	0.581209	1.507541
C	1.897536	1.592607	0.718873
C	0.693330	0.580791	-1.067872
C	1.756758	1.476132	-0.686410
S	0.508573	0.422041	-2.805516
C	1.846879	1.552232	-3.054530
C	2.387897	2.009402	-1.862551
F	3.408741	2.872264	-1.819088
C	2.191300	1.838768	-4.456084
O	1.606694	1.337806	-5.406510
O	3.221062	2.712584	-4.569225
C	3.603677	3.026817	-5.916207
H	4.442623	3.739898	-5.833064
H	2.758956	3.483875	-6.470168
H	3.921969	2.114070	-6.459293
H	2.604650	2.187790	1.306486
$end

$rem
JOBTYPE		SP
EXCHANGE	HF
CORRELATION	pRIMP2
BASIS		cc-pvtz
METHOD		rimp2
AUX_BASIS	rimp2-cc-pvtz
SOLVENT_METHOD	PCM
PURECART	11111
SYMMETRY	false
MEM_TOTAL	110000
SCF_CONVERGENCE = 6
THRESH=10
GUI = 2
$end

$solvent
dielectric 4.90
$end
--------------------------------------------------------------

             Standard Nuclear Orientation (Angstroms)
    I     Atom           X                Y                Z
 ----------------------------------------------------------------
    1      C      -0.3182470000    -8.5177020000    -0.0413300000
    2      C       0.7573330000    -7.6415750000    -0.0494530000
    3      S      -1.8663830000    -7.6386340000    -0.0249190000
    4      C       0.3808670000    -6.2647850000    -0.0494880000
    5      H       1.8055730000    -7.9660810000    -0.0553680000
    6      C      -1.0456470000    -6.0727140000    -0.0511150000
    7      C      -1.6080770000    -4.7870490000    -0.0262030000
    8      C       1.2829480000    -5.1628010000    -0.0266370000
    9      C       0.7201870000    -3.8748170000     0.0025860000
   10      C      -0.7078530000    -3.6839520000    -0.0019030000
   11      O       2.6023860000    -5.4997720000    -0.0548670000
   12      O      -2.9335170000    -4.4590550000     0.0033480000
   13      C      -3.8819990000    -5.3290630000    -0.6023840000
   14      H      -4.8257440000    -4.7556940000    -0.6750790000
   15      H      -4.0709720000    -6.2380950000     0.0095920000
   16      H      -3.5621520000    -5.6372620000    -1.6212630000
   17      C       3.5882530000    -4.5722610000     0.3819470000
   18      H       4.5356740000    -5.1397430000     0.4498720000
   19      H       3.3429860000    -4.1531310000     1.3813880000
   20      H       3.7282390000    -3.7395310000    -0.3410400000
   21      C      -1.0807250000    -2.3066540000     0.0003480000
   22      S       1.5426940000    -2.3065010000    -0.0109240000
   23      C       0.0000000000    -1.4351850000     0.0000000000
   24      H      -2.1276350000    -1.9781380000     0.0036120000
   25      H      -0.3205590000    -9.6140330000    -0.0377640000
   26      C       0.0000000000     0.0000000000     0.0000000000
   27      S       0.6933940000     0.5812090000     1.5075410000
   28      C       1.8975360000     1.5926070000     0.7188730000
   29      C       0.6933300000     0.5807910000    -1.0678720000
   30      C       1.7567580000     1.4761320000    -0.6864100000
   31      S       0.5085730000     0.4220410000    -2.8055160000
   32      C       1.8468790000     1.5522320000    -3.0545300000
   33      C       2.3878970000     2.0094020000    -1.8625510000
   34      F       3.4087410000     2.8722640000    -1.8190880000
   35      C       2.1913000000     1.8387680000    -4.4560840000
   36      O       1.6066940000     1.3378060000    -5.4065100000
   37      O       3.2210620000     2.7125840000    -4.5692250000
   38      C       3.6036770000     3.0268170000    -5.9162070000
   39      H       4.4426230000     3.7398980000    -5.8330640000
   40      H       2.7589560000     3.4838750000    -6.4701680000
   41      H       3.9219690000     2.1140700000    -6.4592930000
   42      H       2.6046500000     2.1877900000     1.3064860000
 ----------------------------------------------------------------

   10   -2754.2707784336      9.21e-07  Convergence criterion met
 Total energy in the final basis set =    -2754.2707784336
        RIMP2         total energy =     -2759.3302301431 a.u.

                    Orbital Energies (a.u.)
 --------------------------------------------------------------

 Alpha MOs
 -- Occupied --
-92.0127 -92.0052 -91.9849 -91.9826 -26.3451 -20.6150 -20.5911 -20.5895
-20.5614 -11.4099 -11.3853 -11.3271 -11.3170 -11.3148 -11.3139 -11.2977
-11.2891 -11.2880 -11.2866 -11.2864 -11.2849 -11.2827 -11.2819 -11.2780
-11.2743 -11.2565 -11.2565 -11.2487 -11.2476  -9.0119  -9.0049  -8.9848
 -8.9835  -6.6925  -6.6917  -6.6914  -6.6858  -6.6851  -6.6841  -6.6658
 -6.6652  -6.6644  -6.6643  -6.6637  -6.6628  -1.6622  -1.4676  -1.4151
 -1.4123  -1.3703  -1.2288  -1.1913  -1.1641  -1.1384  -1.0835  -1.0494
 -1.0438  -1.0247  -0.9987  -0.9865  -0.9634  -0.9591  -0.9493  -0.9385
 -0.8938  -0.8699  -0.8455  -0.8126  -0.7938  -0.7861  -0.7836  -0.7637
 -0.7556  -0.7316  -0.7269  -0.7115  -0.6996  -0.6857  -0.6823  -0.6800
 -0.6742  -0.6592  -0.6578  -0.6513  -0.6289  -0.6185  -0.6164  -0.6078
 -0.5989  -0.5881  -0.5753  -0.5693  -0.5641  -0.5633  -0.5539  -0.5360
 -0.5322  -0.5312  -0.5208  -0.5154  -0.5137  -0.5099  -0.5034  -0.4935
 -0.4885  -0.4827  -0.4747  -0.4737  -0.4683  -0.4639  -0.4596  -0.4030
 -0.3948  -0.3845  -0.3538  -0.3524  -0.3091  -0.3040  -0.2571

          Ground-State Mulliken Net Atomic Charges

     Atom                 Charge (a.u.)
  ----------------------------------------
      1 C                    -0.191531
      2 C                    -0.254432
      3 S                    -0.024709
      4 C                    -0.016886
      5 H                     0.195859
      6 C                    -0.028546
      7 C                     0.241097
      8 C                     0.240994
      9 C                    -0.041119
     10 C                    -0.020217
     11 O                    -0.333653
     12 O                    -0.339774
     13 C                    -0.085729
     14 H                     0.122094
     15 H                     0.090417
     16 H                     0.093728
     17 C                    -0.086446
     18 H                     0.124742
     19 H                     0.093528
     20 H                     0.089537
     21 C                    -0.229911
     22 S                    -0.022400
     23 C                    -0.070655
     24 H                     0.195911
     25 H                     0.205715
     26 C                    -0.086915
     27 S                     0.122792
     28 C                    -0.141715
     29 C                     0.010111
     30 C                    -0.093677
     31 S                     0.047555
     32 C                    -0.151858
     33 C                     0.393111
     34 F                    -0.204974
     35 C                     0.448365
     36 O                    -0.461902
     37 O                    -0.301212
     38 C                    -0.058229
     39 H                     0.121322
     40 H                     0.095214
     41 H                     0.095242
     42 H                     0.219156
  ----------------------------------------
  Sum of atomic charges =     0.000000

                    Cartesian Multipole Moments
 -----------------------------------------------------------------
    Charge (ESU x 10^10)
                 0.0000
    Dipole Moment (Debye)
         X       3.0842      Y       1.3750      Z       2.4719
       Tot       4.1848
    Quadrupole Moments (Debye-Ang)
        XX    -168.6323     XY       8.8471     YY    -172.7389
        XZ       0.2197     YZ      -3.2976     ZZ    -203.6325

 Total job time:  372.75s(wall), 13346.45s(cpu)
        *  Thank you very much for using Q-Chem.  Have a nice day.  *
