 Q-Chem 5.4, Q-Chem, Inc., Pleasanton, CA (2021)
 Q-Chem 5.4.0 for Intel X86 EM64T Linux

User input:
--------------------------------------------------------------
$molecule
0 1
C	-0.194917	-8.517702	0.254945
C	0.335839	-7.641575	-0.680596
S	-0.954772	-7.638634	1.603876
C	0.147576	-6.264785	-0.354585
H	0.854836	-7.966081	-1.591356
C	-0.567090	-6.072714	0.879999
C	-0.826731	-4.787049	1.379534
C	0.618405	-5.162801	-1.124384
C	0.362333	-3.874817	-0.622407
C	-0.355575	-3.683952	0.612067
O	1.253677	-5.499772	-2.281166
O	-1.463859	-4.459055	2.542174
C	-2.462679	-5.329063	3.060718
H	-2.997507	-4.755694	3.841678
H	-2.027179	-6.238095	3.530361
H	-3.185132	-5.637262	2.274283
C	2.124902	-4.572261	-2.916545
H	2.657438	-5.139743	-3.703073
H	2.867810	-4.153131	-2.204417
H	1.568770	-3.739531	-3.399269
C	-0.540061	-2.306654	0.936109
S	0.761887	-2.306501	-1.341474
C	-0.000000	-1.435185	-0.000000
H	-1.060690	-1.978138	1.844392
H	-0.192984	-9.614033	0.258730
C	0.000000	0.000000	0.000000
S	0.783786	0.451972	1.507541
C	2.145261	1.238908	0.718873
C	0.783650	0.451572	-1.067872
C	1.986396	1.148648	-0.686410
S	0.574133	0.327317	-2.805516
C	2.088363	1.207943	-3.054530
C	2.700548	1.564221	-1.862551
F	3.855718	2.236706	-1.819088
C	2.477307	1.430318	-4.456084
O	1.814592	1.038482	-5.406510
O	3.643162	2.112042	-4.569225
C	4.074530	2.355061	-5.916207
H	5.024556	2.911627	-5.833064
H	3.322010	2.951860	-6.470168
H	4.229490	1.400910	-6.459293
H	2.944986	1.702260	1.306486
$end

$rem
JOBTYPE		SP
EXCHANGE	HF
CORRELATION	pRIMP2
BASIS		cc-pvtz
METHOD		rimp2
AUX_BASIS	rimp2-cc-pvtz
SOLVENT_METHOD	PCM
PURECART	11111
SYMMETRY	false
MEM_TOTAL	110000
SCF_CONVERGENCE = 6
THRESH=10
GUI = 2
$end

$solvent
dielectric 4.90
$end
--------------------------------------------------------------

             Standard Nuclear Orientation (Angstroms)
    I     Atom           X                Y                Z
 ----------------------------------------------------------------
    1      C      -0.1949170000    -8.5177020000     0.2549450000
    2      C       0.3358390000    -7.6415750000    -0.6805960000
    3      S      -0.9547720000    -7.6386340000     1.6038760000
    4      C       0.1475760000    -6.2647850000    -0.3545850000
    5      H       0.8548360000    -7.9660810000    -1.5913560000
    6      C      -0.5670900000    -6.0727140000     0.8799990000
    7      C      -0.8267310000    -4.7870490000     1.3795340000
    8      C       0.6184050000    -5.1628010000    -1.1243840000
    9      C       0.3623330000    -3.8748170000    -0.6224070000
   10      C      -0.3555750000    -3.6839520000     0.6120670000
   11      O       1.2536770000    -5.4997720000    -2.2811660000
   12      O      -1.4638590000    -4.4590550000     2.5421740000
   13      C      -2.4626790000    -5.3290630000     3.0607180000
   14      H      -2.9975070000    -4.7556940000     3.8416780000
   15      H      -2.0271790000    -6.2380950000     3.5303610000
   16      H      -3.1851320000    -5.6372620000     2.2742830000
   17      C       2.1249020000    -4.5722610000    -2.9165450000
   18      H       2.6574380000    -5.1397430000    -3.7030730000
   19      H       2.8678100000    -4.1531310000    -2.2044170000
   20      H       1.5687700000    -3.7395310000    -3.3992690000
   21      C      -0.5400610000    -2.3066540000     0.9361090000
   22      S       0.7618870000    -2.3065010000    -1.3414740000
   23      C       0.0000000000    -1.4351850000     0.0000000000
   24      H      -1.0606900000    -1.9781380000     1.8443920000
   25      H      -0.1929840000    -9.6140330000     0.2587300000
   26      C       0.0000000000     0.0000000000     0.0000000000
   27      S       0.7837860000     0.4519720000     1.5075410000
   28      C       2.1452610000     1.2389080000     0.7188730000
   29      C       0.7836500000     0.4515720000    -1.0678720000
   30      C       1.9863960000     1.1486480000    -0.6864100000
   31      S       0.5741330000     0.3273170000    -2.8055160000
   32      C       2.0883630000     1.2079430000    -3.0545300000
   33      C       2.7005480000     1.5642210000    -1.8625510000
   34      F       3.8557180000     2.2367060000    -1.8190880000
   35      C       2.4773070000     1.4303180000    -4.4560840000
   36      O       1.8145920000     1.0384820000    -5.4065100000
   37      O       3.6431620000     2.1120420000    -4.5692250000
   38      C       4.0745300000     2.3550610000    -5.9162070000
   39      H       5.0245560000     2.9116270000    -5.8330640000
   40      H       3.3220100000     2.9518600000    -6.4701680000
   41      H       4.2294900000     1.4009100000    -6.4592930000
   42      H       2.9449860000     1.7022600000     1.3064860000
 ----------------------------------------------------------------

   10   -2754.2404368868      8.44e-07  Convergence criterion met
 Total energy in the final basis set =    -2754.2404368868
        RIMP2         total energy =     -2759.3095431550 a.u.

                    Orbital Energies (a.u.)
 --------------------------------------------------------------

 Alpha MOs
 -- Occupied --
-92.0166 -92.0107 -91.9819 -91.9818 -26.3471 -20.6165 -20.5898 -20.5856
-20.5631 -11.4118 -11.3880 -11.3388 -11.3228 -11.3155 -11.3071 -11.3000
-11.2954 -11.2904 -11.2901 -11.2853 -11.2831 -11.2797 -11.2741 -11.2731
-11.2715 -11.2555 -11.2499 -11.2465 -11.2330  -9.0159  -9.0106  -8.9831
 -8.9819  -6.6964  -6.6955  -6.6953  -6.6914  -6.6907  -6.6897  -6.6639
 -6.6631  -6.6629  -6.6622  -6.6621  -6.6614  -1.6641  -1.4691  -1.4136
 -1.4085  -1.3719  -1.2375  -1.1881  -1.1639  -1.1407  -1.0867  -1.0476
 -1.0435  -1.0297  -0.9966  -0.9869  -0.9671  -0.9549  -0.9473  -0.9409
 -0.8913  -0.8736  -0.8426  -0.8192  -0.7956  -0.7841  -0.7792  -0.7630
 -0.7558  -0.7291  -0.7288  -0.7135  -0.6972  -0.6875  -0.6844  -0.6779
 -0.6756  -0.6619  -0.6559  -0.6490  -0.6297  -0.6163  -0.6149  -0.6090
 -0.6002  -0.5834  -0.5758  -0.5716  -0.5650  -0.5571  -0.5523  -0.5441
 -0.5331  -0.5289  -0.5222  -0.5168  -0.5141  -0.5099  -0.5054  -0.4955
 -0.4882  -0.4817  -0.4773  -0.4743  -0.4681  -0.4578  -0.4552  -0.4162
 -0.3951  -0.3781  -0.3576  -0.3468  -0.3274  -0.2887  -0.2444

          Ground-State Mulliken Net Atomic Charges

     Atom                 Charge (a.u.)
  ----------------------------------------
      1 C                    -0.202719
      2 C                    -0.252232
      3 S                    -0.030447
      4 C                    -0.029914
      5 H                     0.194746
      6 C                    -0.023239
      7 C                     0.220440
      8 C                     0.246633
      9 C                    -0.053217
     10 C                     0.003896
     11 O                    -0.333320
     12 O                    -0.342451
     13 C                    -0.085416
     14 H                     0.120393
     15 H                     0.089683
     16 H                     0.092335
     17 C                    -0.088734
     18 H                     0.125180
     19 H                     0.092720
     20 H                     0.091194
     21 C                    -0.328795
     22 S                    -0.031412
     23 C                     0.055701
     24 H                     0.183435
     25 H                     0.203918
     26 C                    -0.176829
     27 S                     0.136900
     28 C                    -0.114090
     29 C                     0.058103
     30 C                    -0.103869
     31 S                     0.078801
     32 C                    -0.155285
     33 C                     0.400258
     34 F                    -0.204397
     35 C                     0.448274
     36 O                    -0.462090
     37 O                    -0.300955
     38 C                    -0.058049
     39 H                     0.121778
     40 H                     0.095567
     41 H                     0.095202
     42 H                     0.222302
  ----------------------------------------
  Sum of atomic charges =     0.000000

                    Cartesian Multipole Moments
 -----------------------------------------------------------------
    Charge (ESU x 10^10)
                -0.0000
    Dipole Moment (Debye)
         X       4.0688      Y       2.7499      Z       1.7792
       Tot       5.2233
    Quadrupole Moments (Debye-Ang)
        XX    -176.6145     XY       8.3951     YY    -185.7992
        XZ     -18.1024     YZ      -1.1322     ZZ    -190.7877

 Total job time:  289.42s(wall), 9606.49s(cpu)
        *  Thank you very much for using Q-Chem.  Have a nice day.  *
