 Q-Chem 5.4, Q-Chem, Inc., Pleasanton, CA (2021)
 Q-Chem 5.4.0 for Intel X86 EM64T Linux

User input:
--------------------------------------------------------------
$molecule
0 1
C	-0.236226	-8.517702	0.217225
C	0.448921	-7.641575	-0.611939
S	-1.218777	-7.638634	1.413715
C	0.206907	-6.264785	-0.323572
H	1.118185	-7.966081	-1.418739
C	-0.711285	-6.072714	0.768156
C	-1.053725	-4.787049	1.215016
C	0.804258	-5.162801	-0.999917
C	0.464908	-3.874817	-0.550033
C	-0.456457	-3.683952	0.541024
O	1.630752	-5.499772	-2.028811
O	-1.883064	-4.459055	2.249357
C	-2.956754	-5.329063	2.586579
H	-3.619069	-4.755694	3.262802
H	-2.609423	-6.238095	3.124711
H	-3.531667	-5.637262	1.686639
C	2.599073	-4.572261	-2.503251
H	3.260097	-5.139743	-3.185356
H	3.207034	-4.153131	-1.672937
H	2.135214	-3.739531	-3.075213
C	-0.694410	-2.306654	0.828107
S	0.983256	-2.306501	-1.188794
C	-0.000000	-1.435185	-0.000000
H	-1.364851	-1.978138	1.632185
H	-0.234980	-9.614033	0.221288
C	0.000000	0.000000	0.000000
S	0.309893	0.850039	1.507541
C	0.847011	2.328006	0.718873
C	0.310046	0.849645	-1.067872
C	0.783331	2.156746	-0.686410
S	0.229416	0.619785	-2.805516
C	0.823328	2.267711	-3.054530
C	1.063278	2.934142	-1.862551
F	1.515925	4.191824	-1.819088
C	0.978337	2.688069	-4.456084
O	0.722535	1.961921	-5.406510
O	1.433229	3.959697	-4.569225
C	1.607467	4.423139	-5.916207
H	1.977475	5.460158	-5.833064
H	0.647388	4.396602	-6.470168
H	2.339490	3.791823	-6.459293
H	1.161798	3.197007	1.306486
$end

$rem
JOBTYPE		SP
EXCHANGE	HF
CORRELATION	pRIMP2
BASIS		cc-pvtz
METHOD		rimp2
AUX_BASIS	rimp2-cc-pvtz
SOLVENT_METHOD	PCM
PURECART	11111
SYMMETRY	false
MEM_TOTAL	110000
SCF_CONVERGENCE = 6
THRESH=10
GUI = 2
$end

$solvent
dielectric 4.90
$end
--------------------------------------------------------------

             Standard Nuclear Orientation (Angstroms)
    I     Atom           X                Y                Z
 ----------------------------------------------------------------
    1      C      -0.2362260000    -8.5177020000     0.2172250000
    2      C       0.4489210000    -7.6415750000    -0.6119390000
    3      S      -1.2187770000    -7.6386340000     1.4137150000
    4      C       0.2069070000    -6.2647850000    -0.3235720000
    5      H       1.1181850000    -7.9660810000    -1.4187390000
    6      C      -0.7112850000    -6.0727140000     0.7681560000
    7      C      -1.0537250000    -4.7870490000     1.2150160000
    8      C       0.8042580000    -5.1628010000    -0.9999170000
    9      C       0.4649080000    -3.8748170000    -0.5500330000
   10      C      -0.4564570000    -3.6839520000     0.5410240000
   11      O       1.6307520000    -5.4997720000    -2.0288110000
   12      O      -1.8830640000    -4.4590550000     2.2493570000
   13      C      -2.9567540000    -5.3290630000     2.5865790000
   14      H      -3.6190690000    -4.7556940000     3.2628020000
   15      H      -2.6094230000    -6.2380950000     3.1247110000
   16      H      -3.5316670000    -5.6372620000     1.6866390000
   17      C       2.5990730000    -4.5722610000    -2.5032510000
   18      H       3.2600970000    -5.1397430000    -3.1853560000
   19      H       3.2070340000    -4.1531310000    -1.6729370000
   20      H       2.1352140000    -3.7395310000    -3.0752130000
   21      C      -0.6944100000    -2.3066540000     0.8281070000
   22      S       0.9832560000    -2.3065010000    -1.1887940000
   23      C       0.0000000000    -1.4351850000     0.0000000000
   24      H      -1.3648510000    -1.9781380000     1.6321850000
   25      H      -0.2349800000    -9.6140330000     0.2212880000
   26      C       0.0000000000     0.0000000000     0.0000000000
   27      S       0.3098930000     0.8500390000     1.5075410000
   28      C       0.8470110000     2.3280060000     0.7188730000
   29      C       0.3100460000     0.8496450000    -1.0678720000
   30      C       0.7833310000     2.1567460000    -0.6864100000
   31      S       0.2294160000     0.6197850000    -2.8055160000
   32      C       0.8233280000     2.2677110000    -3.0545300000
   33      C       1.0632780000     2.9341420000    -1.8625510000
   34      F       1.5159250000     4.1918240000    -1.8190880000
   35      C       0.9783370000     2.6880690000    -4.4560840000
   36      O       0.7225350000     1.9619210000    -5.4065100000
   37      O       1.4332290000     3.9596970000    -4.5692250000
   38      C       1.6074670000     4.4231390000    -5.9162070000
   39      H       1.9774750000     5.4601580000    -5.8330640000
   40      H       0.6473880000     4.3966020000    -6.4701680000
   41      H       2.3394900000     3.7918230000    -6.4592930000
   42      H       1.1617980000     3.1970070000     1.3064860000
 ----------------------------------------------------------------

   10   -2754.3089127908      7.46e-07  Convergence criterion met
 Total energy in the final basis set =    -2754.3089127908
        RIMP2         total energy =     -2759.3625230886 a.u.

                    Orbital Energies (a.u.)
 --------------------------------------------------------------

 Alpha MOs
 -- Occupied --
-92.0151 -91.9985 -91.9894 -91.9861 -26.3431 -20.6146 -20.5921 -20.5911
-20.5610 -11.4092 -11.3822 -11.3192 -11.3169 -11.3115 -11.3015 -11.2970
-11.2969 -11.2946 -11.2887 -11.2866 -11.2860 -11.2852 -11.2851 -11.2838
-11.2792 -11.2608 -11.2581 -11.2542 -11.2497  -9.0136  -8.9985  -8.9899
 -8.9860  -6.6943  -6.6937  -6.6932  -6.6795  -6.6788  -6.6777  -6.6708
 -6.6701  -6.6691  -6.6670  -6.6664  -6.6655  -1.6602  -1.4671  -1.4162
 -1.4139  -1.3698  -1.2223  -1.1940  -1.1653  -1.1361  -1.0851  -1.0517
 -1.0414  -1.0234  -1.0015  -0.9876  -0.9638  -0.9585  -0.9499  -0.9399
 -0.8955  -0.8677  -0.8507  -0.8136  -0.7919  -0.7870  -0.7860  -0.7649
 -0.7552  -0.7335  -0.7251  -0.7099  -0.6990  -0.6853  -0.6831  -0.6812
 -0.6737  -0.6589  -0.6578  -0.6524  -0.6303  -0.6197  -0.6167  -0.6046
 -0.5975  -0.5836  -0.5783  -0.5689  -0.5663  -0.5593  -0.5568  -0.5518
 -0.5323  -0.5299  -0.5241  -0.5168  -0.5157  -0.5089  -0.5071  -0.4962
 -0.4880  -0.4796  -0.4759  -0.4737  -0.4699  -0.4645  -0.4594  -0.4182
 -0.3970  -0.3845  -0.3570  -0.3507  -0.3246  -0.2895  -0.2529

          Ground-State Mulliken Net Atomic Charges

     Atom                 Charge (a.u.)
  ----------------------------------------
      1 C                    -0.189901
      2 C                    -0.253886
      3 S                    -0.023411
      4 C                    -0.017038
      5 H                     0.196366
      6 C                    -0.025293
      7 C                     0.236159
      8 C                     0.241714
      9 C                    -0.043220
     10 C                    -0.006272
     11 O                    -0.333121
     12 O                    -0.340307
     13 C                    -0.085685
     14 H                     0.122263
     15 H                     0.090949
     16 H                     0.094100
     17 C                    -0.088658
     18 H                     0.125537
     19 H                     0.094458
     20 H                     0.091102
     21 C                    -0.267857
     22 S                    -0.016665
     23 C                    -0.000862
     24 H                     0.194289
     25 H                     0.206226
     26 C                     0.032424
     27 S                     0.114485
     28 C                    -0.193493
     29 C                    -0.080190
     30 C                    -0.084501
     31 S                     0.021866
     32 C                    -0.158157
     33 C                     0.401476
     34 F                    -0.207160
     35 C                     0.443835
     36 O                    -0.461041
     37 O                    -0.300813
     38 C                    -0.058410
     39 H                     0.121344
     40 H                     0.095188
     41 H                     0.094985
     42 H                     0.217174
  ----------------------------------------
  Sum of atomic charges =     0.000000

                    Cartesian Multipole Moments
 -----------------------------------------------------------------
    Charge (ESU x 10^10)
                -0.0000
    Dipole Moment (Debye)
         X       0.9553      Y       1.1387      Z       2.6531
       Tot       3.0411
    Quadrupole Moments (Debye-Ang)
        XX    -184.0461     XY       6.1546     YY    -162.6148
        XZ     -14.6086     YZ      -5.8785     ZZ    -197.2588

 Total job time:  278.34s(wall), 8647.04s(cpu)
        *  Thank you very much for using Q-Chem.  Have a nice day.  *
