 Q-Chem 5.4, Q-Chem, Inc., Pleasanton, CA (2021)
 Q-Chem 5.4.0 for Intel X86 EM64T Linux

User input:
--------------------------------------------------------------
$molecule
0 1
C	0.147685	-8.517702	-0.284919
C	-0.212552	-7.641575	0.728574
S	0.661757	-7.638634	-1.745304
C	-0.083761	-6.264785	0.374824
H	-0.565513	-7.966081	1.715621
C	0.405665	-6.072714	-0.965104
C	0.574617	-4.787049	-1.502136
C	-0.413763	-5.162801	1.214687
C	-0.248748	-3.874817	0.675870
C	0.243888	-3.683952	-0.664513
O	-0.838511	-5.499772	2.464209
O	1.000176	-4.459055	-2.757750
C	1.893778	-5.329063	-3.441858
H	2.284868	-4.755694	-4.303826
H	1.383341	-6.238095	-3.828743
H	2.741817	-5.637262	-2.792824
C	-1.586168	-4.572261	3.241222
H	-1.974033	-5.139743	4.108274
H	-2.441448	-4.153131	2.668916
H	-0.954660	-3.739531	3.620041
C	0.369302	-2.306654	-1.015668
S	-0.517367	-2.306501	1.453394
C	-0.000000	-1.435185	-0.000000
H	0.724300	-1.978138	-2.000559
H	0.145124	-9.614033	-0.288311
C	0.000000	0.000000	0.000000
S	0.079327	0.901280	1.507541
C	0.215617	2.467903	0.718873
C	0.079577	0.900940	-1.067872
C	0.198433	2.285998	-0.686410
S	0.061187	0.658044	-2.805516
C	0.208347	2.403534	-3.054530
C	0.267636	3.109360	-1.862551
F	0.379347	4.441341	-1.819088
C	0.249278	2.849688	-4.456084
O	0.190132	2.082076	-5.406510
O	0.359548	4.195721	-4.569225
C	0.407901	4.688467	-5.916207
H	0.496901	5.785916	-5.833064
H	-0.512596	4.414348	-6.470168
H	1.278377	4.268124	-6.459293
H	0.294764	3.388767	1.306486
$end

$rem
JOBTYPE		SP
EXCHANGE	HF
CORRELATION	pRIMP2
BASIS		cc-pvtz
METHOD		rimp2
AUX_BASIS	rimp2-cc-pvtz
SOLVENT_METHOD	PCM
PURECART	11111
SYMMETRY	false
MEM_TOTAL	110000
SCF_CONVERGENCE = 6
THRESH=10
GUI = 2
$end

$solvent
dielectric 4.90
$end
--------------------------------------------------------------

             Standard Nuclear Orientation (Angstroms)
    I     Atom           X                Y                Z
 ----------------------------------------------------------------
    1      C       0.1476850000    -8.5177020000    -0.2849190000
    2      C      -0.2125520000    -7.6415750000     0.7285740000
    3      S       0.6617570000    -7.6386340000    -1.7453040000
    4      C      -0.0837610000    -6.2647850000     0.3748240000
    5      H      -0.5655130000    -7.9660810000     1.7156210000
    6      C       0.4056650000    -6.0727140000    -0.9651040000
    7      C       0.5746170000    -4.7870490000    -1.5021360000
    8      C      -0.4137630000    -5.1628010000     1.2146870000
    9      C      -0.2487480000    -3.8748170000     0.6758700000
   10      C       0.2438880000    -3.6839520000    -0.6645130000
   11      O      -0.8385110000    -5.4997720000     2.4642090000
   12      O       1.0001760000    -4.4590550000    -2.7577500000
   13      C       1.8937780000    -5.3290630000    -3.4418580000
   14      H       2.2848680000    -4.7556940000    -4.3038260000
   15      H       1.3833410000    -6.2380950000    -3.8287430000
   16      H       2.7418170000    -5.6372620000    -2.7928240000
   17      C      -1.5861680000    -4.5722610000     3.2412220000
   18      H      -1.9740330000    -5.1397430000     4.1082740000
   19      H      -2.4414480000    -4.1531310000     2.6689160000
   20      H      -0.9546600000    -3.7395310000     3.6200410000
   21      C       0.3693020000    -2.3066540000    -1.0156680000
   22      S      -0.5173670000    -2.3065010000     1.4533940000
   23      C       0.0000000000    -1.4351850000     0.0000000000
   24      H       0.7243000000    -1.9781380000    -2.0005590000
   25      H       0.1451240000    -9.6140330000    -0.2883110000
   26      C       0.0000000000     0.0000000000     0.0000000000
   27      S       0.0793270000     0.9012800000     1.5075410000
   28      C       0.2156170000     2.4679030000     0.7188730000
   29      C       0.0795770000     0.9009400000    -1.0678720000
   30      C       0.1984330000     2.2859980000    -0.6864100000
   31      S       0.0611870000     0.6580440000    -2.8055160000
   32      C       0.2083470000     2.4035340000    -3.0545300000
   33      C       0.2676360000     3.1093600000    -1.8625510000
   34      F       0.3793470000     4.4413410000    -1.8190880000
   35      C       0.2492780000     2.8496880000    -4.4560840000
   36      O       0.1901320000     2.0820760000    -5.4065100000
   37      O       0.3595480000     4.1957210000    -4.5692250000
   38      C       0.4079010000     4.6884670000    -5.9162070000
   39      H       0.4969010000     5.7859160000    -5.8330640000
   40      H      -0.5125960000     4.4143480000    -6.4701680000
   41      H       1.2783770000     4.2681240000    -6.4592930000
   42      H       0.2947640000     3.3887670000     1.3064860000
 ----------------------------------------------------------------

   10   -2754.3164602786      7.54e-07  Convergence criterion met
 Total energy in the final basis set =    -2754.3164602786
        RIMP2         total energy =     -2759.3687699027 a.u.

                    Orbital Energies (a.u.)
 --------------------------------------------------------------

 Alpha MOs
 -- Occupied --
-92.0162 -91.9991 -91.9913 -91.9865 -26.3434 -20.6148 -20.5931 -20.5911
-20.5613 -11.4094 -11.3826 -11.3202 -11.3178 -11.3098 -11.3019 -11.2995
-11.2977 -11.2974 -11.2888 -11.2878 -11.2872 -11.2858 -11.2856 -11.2845
-11.2797 -11.2624 -11.2590 -11.2565 -11.2501  -9.0149  -8.9991  -8.9919
 -8.9864  -6.6957  -6.6951  -6.6945  -6.6801  -6.6793  -6.6782  -6.6729
 -6.6723  -6.6713  -6.6674  -6.6668  -6.6659  -1.6604  -1.4673  -1.4171
 -1.4139  -1.3700  -1.2220  -1.1953  -1.1665  -1.1367  -1.0858  -1.0526
 -1.0420  -1.0236  -1.0022  -0.9888  -0.9641  -0.9600  -0.9507  -0.9395
 -0.8968  -0.8681  -0.8526  -0.8083  -0.7992  -0.7882  -0.7865  -0.7646
 -0.7554  -0.7347  -0.7253  -0.7099  -0.7022  -0.6857  -0.6837  -0.6808
 -0.6738  -0.6596  -0.6587  -0.6526  -0.6310  -0.6201  -0.6172  -0.6026
 -0.5982  -0.5843  -0.5797  -0.5711  -0.5650  -0.5620  -0.5545  -0.5505
 -0.5357  -0.5304  -0.5247  -0.5189  -0.5166  -0.5100  -0.5063  -0.4961
 -0.4879  -0.4815  -0.4769  -0.4739  -0.4693  -0.4663  -0.4601  -0.4260
 -0.3965  -0.3848  -0.3608  -0.3492  -0.3272  -0.2895  -0.2511

          Ground-State Mulliken Net Atomic Charges

     Atom                 Charge (a.u.)
  ----------------------------------------
      1 C                    -0.189137
      2 C                    -0.254019
      3 S                    -0.021044
      4 C                    -0.016986
      5 H                     0.196199
      6 C                    -0.028439
      7 C                     0.245630
      8 C                     0.241956
      9 C                    -0.041127
     10 C                    -0.031061
     11 O                    -0.333043
     12 O                    -0.339639
     13 C                    -0.086314
     14 H                     0.123412
     15 H                     0.091437
     16 H                     0.093833
     17 C                    -0.088346
     18 H                     0.126014
     19 H                     0.095318
     20 H                     0.089423
     21 C                    -0.216128
     22 S                    -0.035472
     23 C                    -0.008317
     24 H                     0.191791
     25 H                     0.206419
     26 C                    -0.001575
     27 S                     0.086302
     28 C                    -0.193571
     29 C                     0.013749
     30 C                    -0.118161
     31 S                     0.008049
     32 C                    -0.160719
     33 C                     0.405611
     34 F                    -0.206896
     35 C                     0.443189
     36 O                    -0.460839
     37 O                    -0.300583
     38 C                    -0.058701
     39 H                     0.121459
     40 H                     0.095287
     41 H                     0.095084
     42 H                     0.219955
  ----------------------------------------
  Sum of atomic charges =     0.000000

                    Cartesian Multipole Moments
 -----------------------------------------------------------------
    Charge (ESU x 10^10)
                 0.0000
    Dipole Moment (Debye)
         X       0.4279      Y       1.0502      Z       3.1707
       Tot       3.3674
    Quadrupole Moments (Debye-Ang)
        XX    -194.4463     XY       0.0071     YY    -159.0964
        XZ     -12.2630     YZ      -7.8031     ZZ    -188.6712

 Total job time:  16393.50s(wall), 9123.31s(cpu)
        *  Thank you very much for using Q-Chem.  Have a nice day.  *
