 Q-Chem 5.4, Q-Chem, Inc., Pleasanton, CA (2021)
 Q-Chem 5.4.0 for Intel X86 EM64T Linux

User input:
--------------------------------------------------------------
$molecule
0 1
C	0.320589	-8.517702	-0.014560
C	-0.737240	-7.641575	0.180211
S	1.842356	-7.638634	-0.299553
C	-0.366488	-6.264785	0.114873
H	-1.768528	-7.966081	0.368061
C	1.038637	-6.072714	-0.131236
C	1.588197	-4.787049	-0.253435
C	-1.258831	-5.162801	0.249014
C	-0.709695	-3.874817	0.122513
C	0.697430	-3.683952	-0.121043
O	-2.553323	-5.499772	0.505933
O	2.888369	-4.459055	-0.512697
C	3.927625	-5.329063	-0.080869
H	4.869656	-4.755694	-0.173159
H	4.007459	-6.238095	-0.716363
H	3.789565	-5.637262	0.978072
C	-3.600064	-4.572261	0.246949
H	-4.544887	-5.139743	0.344574
H	-3.532074	-4.153131	-0.779898
H	-3.612378	-3.739531	0.983261
C	1.064246	-2.306654	-0.188009
S	-1.517360	-2.306501	0.278644
C	-0.000000	-1.435185	-0.000000
H	2.094685	-1.978138	-0.373017
H	0.322246	-9.614033	-0.018474
C	0.000000	0.000000	0.000000
S	0.783786	0.451972	1.507541
C	2.145261	1.238908	0.718873
C	0.783650	0.451572	-1.067872
C	1.986396	1.148648	-0.686410
S	0.574133	0.327317	-2.805516
C	2.088363	1.207943	-3.054530
C	2.700548	1.564221	-1.862551
F	3.855718	2.236706	-1.819088
C	2.477307	1.430318	-4.456084
O	1.814592	1.038482	-5.406510
O	3.643162	2.112042	-4.569225
C	4.074530	2.355061	-5.916207
H	5.024556	2.911627	-5.833064
H	3.322010	2.951860	-6.470168
H	4.229490	1.400910	-6.459293
H	2.944986	1.702260	1.306486
$end

$rem
JOBTYPE		SP
EXCHANGE	HF
CORRELATION	pRIMP2
BASIS		cc-pvtz
METHOD		rimp2
AUX_BASIS	rimp2-cc-pvtz
SOLVENT_METHOD	PCM
PURECART	11111
SYMMETRY	false
MEM_TOTAL	110000
SCF_CONVERGENCE = 6
THRESH=10
GUI = 2
$end

$solvent
dielectric 4.90
$end
--------------------------------------------------------------

             Standard Nuclear Orientation (Angstroms)
    I     Atom           X                Y                Z
 ----------------------------------------------------------------
    1      C       0.3205890000    -8.5177020000    -0.0145600000
    2      C      -0.7372400000    -7.6415750000     0.1802110000
    3      S       1.8423560000    -7.6386340000    -0.2995530000
    4      C      -0.3664880000    -6.2647850000     0.1148730000
    5      H      -1.7685280000    -7.9660810000     0.3680610000
    6      C       1.0386370000    -6.0727140000    -0.1312360000
    7      C       1.5881970000    -4.7870490000    -0.2534350000
    8      C      -1.2588310000    -5.1628010000     0.2490140000
    9      C      -0.7096950000    -3.8748170000     0.1225130000
   10      C       0.6974300000    -3.6839520000    -0.1210430000
   11      O      -2.5533230000    -5.4997720000     0.5059330000
   12      O       2.8883690000    -4.4590550000    -0.5126970000
   13      C       3.9276250000    -5.3290630000    -0.0808690000
   14      H       4.8696560000    -4.7556940000    -0.1731590000
   15      H       4.0074590000    -6.2380950000    -0.7163630000
   16      H       3.7895650000    -5.6372620000     0.9780720000
   17      C      -3.6000640000    -4.5722610000     0.2469490000
   18      H      -4.5448870000    -5.1397430000     0.3445740000
   19      H      -3.5320740000    -4.1531310000    -0.7798980000
   20      H      -3.6123780000    -3.7395310000     0.9832610000
   21      C       1.0642460000    -2.3066540000    -0.1880090000
   22      S      -1.5173600000    -2.3065010000     0.2786440000
   23      C       0.0000000000    -1.4351850000     0.0000000000
   24      H       2.0946850000    -1.9781380000    -0.3730170000
   25      H       0.3222460000    -9.6140330000    -0.0184740000
   26      C       0.0000000000     0.0000000000     0.0000000000
   27      S       0.7837860000     0.4519720000     1.5075410000
   28      C       2.1452610000     1.2389080000     0.7188730000
   29      C       0.7836500000     0.4515720000    -1.0678720000
   30      C       1.9863960000     1.1486480000    -0.6864100000
   31      S       0.5741330000     0.3273170000    -2.8055160000
   32      C       2.0883630000     1.2079430000    -3.0545300000
   33      C       2.7005480000     1.5642210000    -1.8625510000
   34      F       3.8557180000     2.2367060000    -1.8190880000
   35      C       2.4773070000     1.4303180000    -4.4560840000
   36      O       1.8145920000     1.0384820000    -5.4065100000
   37      O       3.6431620000     2.1120420000    -4.5692250000
   38      C       4.0745300000     2.3550610000    -5.9162070000
   39      H       5.0245560000     2.9116270000    -5.8330640000
   40      H       3.3220100000     2.9518600000    -6.4701680000
   41      H       4.2294900000     1.4009100000    -6.4592930000
   42      H       2.9449860000     1.7022600000     1.3064860000
 ----------------------------------------------------------------

   11   -2754.2510071814      4.34e-07  Convergence criterion met
 Total energy in the final basis set =    -2754.2510071814
        RIMP2         total energy =     -2759.3135012241 a.u.

                    Orbital Energies (a.u.)
 --------------------------------------------------------------

 Alpha MOs
 -- Occupied --
-92.0130 -92.0080 -91.9836 -91.9797 -26.3462 -20.6153 -20.5902 -20.5886
-20.5615 -11.4102 -11.3869 -11.3354 -11.3214 -11.3158 -11.3122 -11.2978
-11.2913 -11.2892 -11.2872 -11.2851 -11.2849 -11.2810 -11.2788 -11.2762
-11.2649 -11.2569 -11.2537 -11.2479 -11.2438  -9.0123  -9.0076  -8.9835
 -8.9805  -6.6929  -6.6920  -6.6918  -6.6885  -6.6878  -6.6868  -6.6645
 -6.6639  -6.6631  -6.6614  -6.6607  -6.6599  -1.6632  -1.4678  -1.4141
 -1.4114  -1.3705  -1.2329  -1.1899  -1.1641  -1.1393  -1.0841  -1.0479
 -1.0452  -1.0259  -0.9969  -0.9867  -0.9639  -0.9577  -0.9482  -0.9396
 -0.8920  -0.8711  -0.8422  -0.8129  -0.7960  -0.7875  -0.7828  -0.7626
 -0.7557  -0.7307  -0.7279  -0.7129  -0.6997  -0.6860  -0.6824  -0.6796
 -0.6745  -0.6596  -0.6567  -0.6506  -0.6283  -0.6179  -0.6154  -0.6092
 -0.6001  -0.5880  -0.5729  -0.5692  -0.5655  -0.5620  -0.5528  -0.5460
 -0.5314  -0.5229  -0.5191  -0.5169  -0.5115  -0.5087  -0.5030  -0.4930
 -0.4869  -0.4843  -0.4752  -0.4732  -0.4664  -0.4610  -0.4580  -0.4014
 -0.3920  -0.3845  -0.3624  -0.3414  -0.3168  -0.3020  -0.2519

          Ground-State Mulliken Net Atomic Charges

     Atom                 Charge (a.u.)
  ----------------------------------------
      1 C                    -0.195240
      2 C                    -0.254393
      3 S                    -0.028434
      4 C                    -0.019678
      5 H                     0.195430
      6 C                    -0.025443
      7 C                     0.229660
      8 C                     0.243428
      9 C                    -0.048167
     10 C                    -0.018954
     11 O                    -0.333869
     12 O                    -0.342302
     13 C                    -0.085829
     14 H                     0.120989
     15 H                     0.090963
     16 H                     0.092841
     17 C                    -0.086563
     18 H                     0.124228
     19 H                     0.094106
     20 H                     0.089666
     21 C                    -0.258814
     22 S                    -0.025684
     23 C                     0.008556
     24 H                     0.193968
     25 H                     0.204993
     26 C                    -0.176005
     27 S                     0.128658
     28 C                    -0.114674
     29 C                     0.052698
     30 C                    -0.120710
     31 S                     0.064012
     32 C                    -0.153378
     33 C                     0.398292
     34 F                    -0.204501
     35 C                     0.448759
     36 O                    -0.462408
     37 O                    -0.301449
     38 C                    -0.058162
     39 H                     0.121363
     40 H                     0.095253
     41 H                     0.095331
     42 H                     0.221462
  ----------------------------------------
  Sum of atomic charges =     0.000000

                    Cartesian Multipole Moments
 -----------------------------------------------------------------
    Charge (ESU x 10^10)
                 0.0000
    Dipole Moment (Debye)
         X       3.5883      Y       1.6503      Z       2.8676
       Tot       4.8808
    Quadrupole Moments (Debye-Ang)
        XX    -164.5126     XY       8.1719     YY    -179.8715
        XZ      -4.3382     YZ      -5.0087     ZZ    -204.3912

 Total job time:  314.35s(wall), 10180.57s(cpu)
        *  Thank you very much for using Q-Chem.  Have a nice day.  *
