 Q-Chem 5.4, Q-Chem, Inc., Pleasanton, CA (2021)
 Q-Chem 5.4.0 for Intel X86 EM64T Linux

User input:
--------------------------------------------------------------
$molecule
0 1
C	-0.296276	-8.517702	0.123330
C	0.631143	-7.641575	-0.421494
S	-1.628795	-7.638634	0.911611
C	0.305097	-6.264785	-0.233291
H	1.535988	-7.966081	-0.950737
C	-0.931114	-6.072714	0.478557
C	-1.405737	-4.787049	0.781346
C	1.097747	-5.162801	-0.664542
C	0.624993	-3.874817	-0.357854
C	-0.613970	-3.683952	0.352278
O	2.226300	-5.499772	-1.348709
O	-2.538827	-4.459055	1.469658
C	-3.663102	-5.329063	1.419319
H	-4.516756	-4.755694	1.828237
H	-3.520769	-6.238095	2.043793
H	-3.895546	-5.637262	0.377021
C	3.298492	-4.572261	-1.463351
H	4.152945	-5.139743	-1.878237
H	3.585804	-4.153131	-0.475176
H	3.058230	-3.739531	-2.159469
C	-0.935761	-2.306654	0.540664
S	1.330550	-2.306501	-0.780808
C	-0.000000	-1.435185	-0.000000
H	-1.840780	-1.978138	1.066946
H	-0.296494	-9.614033	0.127575
C	0.000000	0.000000	0.000000
S	0.079327	0.901280	1.507541
C	0.215617	2.467903	0.718873
C	0.079577	0.900940	-1.067872
C	0.198433	2.285998	-0.686410
S	0.061187	0.658044	-2.805516
C	0.208347	2.403534	-3.054530
C	0.267636	3.109360	-1.862551
F	0.379347	4.441341	-1.819088
C	0.249278	2.849688	-4.456084
O	0.190132	2.082076	-5.406510
O	0.359548	4.195721	-4.569225
C	0.407901	4.688467	-5.916207
H	0.496901	5.785916	-5.833064
H	-0.512596	4.414348	-6.470168
H	1.278377	4.268124	-6.459293
H	0.294764	3.388767	1.306486
$end

$rem
JOBTYPE		SP
EXCHANGE	HF
CORRELATION	pRIMP2
BASIS		cc-pvtz
METHOD		rimp2
AUX_BASIS	rimp2-cc-pvtz
SOLVENT_METHOD	PCM
PURECART	11111
SYMMETRY	false
MEM_TOTAL	110000
SCF_CONVERGENCE = 6
THRESH=10
GUI = 2
$end

$solvent
dielectric 4.90
$end
--------------------------------------------------------------

             Standard Nuclear Orientation (Angstroms)
    I     Atom           X                Y                Z
 ----------------------------------------------------------------
    1      C      -0.2962760000    -8.5177020000     0.1233300000
    2      C       0.6311430000    -7.6415750000    -0.4214940000
    3      S      -1.6287950000    -7.6386340000     0.9116110000
    4      C       0.3050970000    -6.2647850000    -0.2332910000
    5      H       1.5359880000    -7.9660810000    -0.9507370000
    6      C      -0.9311140000    -6.0727140000     0.4785570000
    7      C      -1.4057370000    -4.7870490000     0.7813460000
    8      C       1.0977470000    -5.1628010000    -0.6645420000
    9      C       0.6249930000    -3.8748170000    -0.3578540000
   10      C      -0.6139700000    -3.6839520000     0.3522780000
   11      O       2.2263000000    -5.4997720000    -1.3487090000
   12      O      -2.5388270000    -4.4590550000     1.4696580000
   13      C      -3.6631020000    -5.3290630000     1.4193190000
   14      H      -4.5167560000    -4.7556940000     1.8282370000
   15      H      -3.5207690000    -6.2380950000     2.0437930000
   16      H      -3.8955460000    -5.6372620000     0.3770210000
   17      C       3.2984920000    -4.5722610000    -1.4633510000
   18      H       4.1529450000    -5.1397430000    -1.8782370000
   19      H       3.5858040000    -4.1531310000    -0.4751760000
   20      H       3.0582300000    -3.7395310000    -2.1594690000
   21      C      -0.9357610000    -2.3066540000     0.5406640000
   22      S       1.3305500000    -2.3065010000    -0.7808080000
   23      C       0.0000000000    -1.4351850000     0.0000000000
   24      H      -1.8407800000    -1.9781380000     1.0669460000
   25      H      -0.2964940000    -9.6140330000     0.1275750000
   26      C       0.0000000000     0.0000000000     0.0000000000
   27      S       0.0793270000     0.9012800000     1.5075410000
   28      C       0.2156170000     2.4679030000     0.7188730000
   29      C       0.0795770000     0.9009400000    -1.0678720000
   30      C       0.1984330000     2.2859980000    -0.6864100000
   31      S       0.0611870000     0.6580440000    -2.8055160000
   32      C       0.2083470000     2.4035340000    -3.0545300000
   33      C       0.2676360000     3.1093600000    -1.8625510000
   34      F       0.3793470000     4.4413410000    -1.8190880000
   35      C       0.2492780000     2.8496880000    -4.4560840000
   36      O       0.1901320000     2.0820760000    -5.4065100000
   37      O       0.3595480000     4.1957210000    -4.5692250000
   38      C       0.4079010000     4.6884670000    -5.9162070000
   39      H       0.4969010000     5.7859160000    -5.8330640000
   40      H      -0.5125960000     4.4143480000    -6.4701680000
   41      H       1.2783770000     4.2681240000    -6.4592930000
   42      H       0.2947640000     3.3887670000     1.3064860000
 ----------------------------------------------------------------

   10   -2754.3152154462      7.06e-07  Convergence criterion met
 Total energy in the final basis set =    -2754.3152154462
        RIMP2         total energy =     -2759.3653740735 a.u.

                    Orbital Energies (a.u.)
 --------------------------------------------------------------

 Alpha MOs
 -- Occupied --
-92.0152 -91.9967 -91.9898 -91.9866 -26.3425 -20.6143 -20.5924 -20.5919
-20.5606 -11.4087 -11.3813 -11.3194 -11.3185 -11.3081 -11.2996 -11.2980
-11.2965 -11.2932 -11.2885 -11.2869 -11.2865 -11.2864 -11.2842 -11.2839
-11.2802 -11.2610 -11.2594 -11.2578 -11.2502  -9.0135  -8.9968  -8.9901
 -8.9865  -6.6942  -6.6936  -6.6931  -6.6778  -6.6771  -6.6759  -6.6711
 -6.6704  -6.6694  -6.6675  -6.6669  -6.6660  -1.6596  -1.4667  -1.4165
 -1.4146  -1.3694  -1.2202  -1.1947  -1.1656  -1.1351  -1.0848  -1.0522
 -1.0406  -1.0221  -1.0020  -0.9879  -0.9628  -0.9593  -0.9503  -0.9391
 -0.8959  -0.8668  -0.8516  -0.8116  -0.7916  -0.7883  -0.7868  -0.7652
 -0.7549  -0.7341  -0.7245  -0.7092  -0.6997  -0.6847  -0.6835  -0.6804
 -0.6734  -0.6593  -0.6573  -0.6528  -0.6306  -0.6203  -0.6171  -0.6045
 -0.5969  -0.5850  -0.5776  -0.5697  -0.5665  -0.5594  -0.5563  -0.5523
 -0.5317  -0.5301  -0.5244  -0.5164  -0.5152  -0.5081  -0.5057  -0.4961
 -0.4892  -0.4792  -0.4755  -0.4729  -0.4697  -0.4658  -0.4603  -0.4115
 -0.3980  -0.3858  -0.3575  -0.3488  -0.3206  -0.2926  -0.2574

          Ground-State Mulliken Net Atomic Charges

     Atom                 Charge (a.u.)
  ----------------------------------------
      1 C                    -0.187733
      2 C                    -0.253915
      3 S                    -0.022093
      4 C                    -0.014069
      5 H                     0.196539
      6 C                    -0.027048
      7 C                     0.244577
      8 C                     0.238585
      9 C                    -0.041977
     10 C                    -0.025862
     11 O                    -0.333160
     12 O                    -0.340014
     13 C                    -0.085712
     14 H                     0.122632
     15 H                     0.091023
     16 H                     0.094429
     17 C                    -0.086739
     18 H                     0.125002
     19 H                     0.094487
     20 H                     0.090623
     21 C                    -0.237324
     22 S                    -0.004058
     23 C                    -0.038144
     24 H                     0.197898
     25 H                     0.206555
     26 C                     0.001851
     27 S                     0.107502
     28 C                    -0.189846
     29 C                    -0.014350
     30 C                    -0.105544
     31 S                     0.010604
     32 C                    -0.153576
     33 C                     0.392970
     34 F                    -0.207262
     35 C                     0.444756
     36 O                    -0.461042
     37 O                    -0.300621
     38 C                    -0.058653
     39 H                     0.121229
     40 H                     0.095112
     41 H                     0.094939
     42 H                     0.217427
  ----------------------------------------
  Sum of atomic charges =     0.000000

                    Cartesian Multipole Moments
 -----------------------------------------------------------------
    Charge (ESU x 10^10)
                -0.0000
    Dipole Moment (Debye)
         X       0.1959      Y       0.8195      Z       2.7850
       Tot       2.9096
    Quadrupole Moments (Debye-Ang)
        XX    -178.7517     XY       2.3648     YY    -159.2732
        XZ      -7.5743     YZ      -6.2118     ZZ    -204.6369

 Total job time:  280.47s(wall), 9315.76s(cpu)
        *  Thank you very much for using Q-Chem.  Have a nice day.  *
