 Q-Chem 5.4, Q-Chem, Inc., Pleasanton, CA (2021)
 Q-Chem 5.4.0 for Intel X86 EM64T Linux

User input:
--------------------------------------------------------------
$molecule
0 1
C	-0.320589	-8.517702	0.014560
C	0.737240	-7.641575	-0.180211
S	-1.842356	-7.638634	0.299553
C	0.366488	-6.264785	-0.114873
H	1.768528	-7.966081	-0.368061
C	-1.038637	-6.072714	0.131236
C	-1.588197	-4.787049	0.253435
C	1.258831	-5.162801	-0.249014
C	0.709695	-3.874817	-0.122513
C	-0.697430	-3.683952	0.121043
O	2.553323	-5.499772	-0.505933
O	-2.888369	-4.459055	0.512697
C	-3.927625	-5.329063	0.080869
H	-4.869656	-4.755694	0.173159
H	-4.007459	-6.238095	0.716363
H	-3.789565	-5.637262	-0.978072
C	3.600064	-4.572261	-0.246949
H	4.544887	-5.139743	-0.344574
H	3.532074	-4.153131	0.779898
H	3.612378	-3.739531	-0.983261
C	-1.064246	-2.306654	0.188009
S	1.517360	-2.306501	-0.278644
C	-0.000000	-1.435185	-0.000000
H	-2.094685	-1.978138	0.373017
H	-0.322246	-9.614033	0.018474
C	0.000000	0.000000	0.000000
S	0.581934	0.692785	1.507541
C	1.592155	1.897915	0.718873
C	0.581944	0.692363	-1.067872
C	1.473741	1.758764	-0.686410
S	0.427560	0.503942	-2.805516
C	1.549278	1.849357	-3.054530
C	2.002690	2.393529	-1.862551
F	2.858191	3.420549	-1.819088
C	1.838710	2.191348	-4.456084
O	1.349977	1.596481	-5.406510
O	2.701091	3.230705	-4.569225
C	3.023327	3.606605	-5.916207
H	3.725703	4.454534	-5.833064
H	2.112072	3.910035	-6.470168
H	3.495281	2.762996	-6.459293
H	2.185174	2.606846	1.306486
$end

$rem
JOBTYPE		SP
EXCHANGE	HF
CORRELATION	pRIMP2
BASIS		cc-pvtz
METHOD		rimp2
AUX_BASIS	rimp2-cc-pvtz
SOLVENT_METHOD	PCM
PURECART	11111
SYMMETRY	false
MEM_TOTAL	110000
SCF_CONVERGENCE = 6
THRESH=10
GUI = 2
$end

$solvent
dielectric 4.90
$end
--------------------------------------------------------------

             Standard Nuclear Orientation (Angstroms)
    I     Atom           X                Y                Z
 ----------------------------------------------------------------
    1      C      -0.3205890000    -8.5177020000     0.0145600000
    2      C       0.7372400000    -7.6415750000    -0.1802110000
    3      S      -1.8423560000    -7.6386340000     0.2995530000
    4      C       0.3664880000    -6.2647850000    -0.1148730000
    5      H       1.7685280000    -7.9660810000    -0.3680610000
    6      C      -1.0386370000    -6.0727140000     0.1312360000
    7      C      -1.5881970000    -4.7870490000     0.2534350000
    8      C       1.2588310000    -5.1628010000    -0.2490140000
    9      C       0.7096950000    -3.8748170000    -0.1225130000
   10      C      -0.6974300000    -3.6839520000     0.1210430000
   11      O       2.5533230000    -5.4997720000    -0.5059330000
   12      O      -2.8883690000    -4.4590550000     0.5126970000
   13      C      -3.9276250000    -5.3290630000     0.0808690000
   14      H      -4.8696560000    -4.7556940000     0.1731590000
   15      H      -4.0074590000    -6.2380950000     0.7163630000
   16      H      -3.7895650000    -5.6372620000    -0.9780720000
   17      C       3.6000640000    -4.5722610000    -0.2469490000
   18      H       4.5448870000    -5.1397430000    -0.3445740000
   19      H       3.5320740000    -4.1531310000     0.7798980000
   20      H       3.6123780000    -3.7395310000    -0.9832610000
   21      C      -1.0642460000    -2.3066540000     0.1880090000
   22      S       1.5173600000    -2.3065010000    -0.2786440000
   23      C       0.0000000000    -1.4351850000     0.0000000000
   24      H      -2.0946850000    -1.9781380000     0.3730170000
   25      H      -0.3222460000    -9.6140330000     0.0184740000
   26      C       0.0000000000     0.0000000000     0.0000000000
   27      S       0.5819340000     0.6927850000     1.5075410000
   28      C       1.5921550000     1.8979150000     0.7188730000
   29      C       0.5819440000     0.6923630000    -1.0678720000
   30      C       1.4737410000     1.7587640000    -0.6864100000
   31      S       0.4275600000     0.5039420000    -2.8055160000
   32      C       1.5492780000     1.8493570000    -3.0545300000
   33      C       2.0026900000     2.3935290000    -1.8625510000
   34      F       2.8581910000     3.4205490000    -1.8190880000
   35      C       1.8387100000     2.1913480000    -4.4560840000
   36      O       1.3499770000     1.5964810000    -5.4065100000
   37      O       2.7010910000     3.2307050000    -4.5692250000
   38      C       3.0233270000     3.6066050000    -5.9162070000
   39      H       3.7257030000     4.4545340000    -5.8330640000
   40      H       2.1120720000     3.9100350000    -6.4701680000
   41      H       3.4952810000     2.7629960000    -6.4592930000
   42      H       2.1851740000     2.6068460000     1.3064860000
 ----------------------------------------------------------------

   10   -2754.2874332483      8.61e-07  Convergence criterion met
 Total energy in the final basis set =    -2754.2874332483
        RIMP2         total energy =     -2759.3435327886 a.u.

                    Orbital Energies (a.u.)
 --------------------------------------------------------------

 Alpha MOs
 -- Occupied --
-92.0134 -92.0019 -91.9854 -91.9851 -26.3441 -20.6147 -20.5914 -20.5903
-20.5611 -11.4094 -11.3837 -11.3202 -11.3177 -11.3161 -11.3081 -11.2973
-11.2889 -11.2887 -11.2865 -11.2854 -11.2854 -11.2838 -11.2826 -11.2826
-11.2788 -11.2578 -11.2575 -11.2510 -11.2492  -9.0122  -9.0017  -8.9858
 -8.9854  -6.6929  -6.6921  -6.6917  -6.6826  -6.6819  -6.6809  -6.6667
 -6.6663  -6.6660  -6.6657  -6.6651  -6.6649  -1.6612  -1.4672  -1.4155
 -1.4131  -1.3699  -1.2251  -1.1923  -1.1641  -1.1371  -1.0836  -1.0503
 -1.0425  -1.0235  -0.9998  -0.9866  -0.9629  -0.9592  -0.9496  -0.9386
 -0.8945  -0.8686  -0.8473  -0.8120  -0.7928  -0.7867  -0.7846  -0.7642
 -0.7553  -0.7324  -0.7260  -0.7104  -0.6996  -0.6853  -0.6821  -0.6806
 -0.6739  -0.6584  -0.6580  -0.6518  -0.6291  -0.6191  -0.6166  -0.6066
 -0.5984  -0.5865  -0.5761  -0.5684  -0.5645  -0.5625  -0.5545  -0.5410
 -0.5325  -0.5309  -0.5219  -0.5152  -0.5144  -0.5093  -0.5038  -0.4945
 -0.4888  -0.4814  -0.4745  -0.4735  -0.4673  -0.4661  -0.4601  -0.4028
 -0.3977  -0.3847  -0.3545  -0.3511  -0.3138  -0.2994  -0.2576

          Ground-State Mulliken Net Atomic Charges

     Atom                 Charge (a.u.)
  ----------------------------------------
      1 C                    -0.190062
      2 C                    -0.254442
      3 S                    -0.023889
      4 C                    -0.015148
      5 H                     0.196015
      6 C                    -0.028156
      7 C                     0.239680
      8 C                     0.240401
      9 C                    -0.041669
     10 C                    -0.018592
     11 O                    -0.333585
     12 O                    -0.339800
     13 C                    -0.085746
     14 H                     0.122247
     15 H                     0.090715
     16 H                     0.094037
     17 C                    -0.086692
     18 H                     0.124800
     19 H                     0.093855
     20 H                     0.090023
     21 C                    -0.228048
     22 S                    -0.009517
     23 C                    -0.068982
     24 H                     0.196608
     25 H                     0.206025
     26 C                    -0.034123
     27 S                     0.118000
     28 C                    -0.163105
     29 C                    -0.043806
     30 C                    -0.075083
     31 S                     0.038008
     32 C                    -0.151498
     33 C                     0.391036
     34 F                    -0.205760
     35 C                     0.447485
     36 O                    -0.461589
     37 O                    -0.301096
     38 C                    -0.058323
     39 H                     0.121278
     40 H                     0.095206
     41 H                     0.095094
     42 H                     0.218198
  ----------------------------------------
  Sum of atomic charges =     0.000000

                    Cartesian Multipole Moments
 -----------------------------------------------------------------
    Charge (ESU x 10^10)
                 0.0000
    Dipole Moment (Debye)
         X       2.2929      Y       1.2381      Z       2.5697
       Tot       3.6597
    Quadrupole Moments (Debye-Ang)
        XX    -170.3939     XY       8.7884     YY    -168.2937
        XZ      -3.0973     YZ      -4.2003     ZZ    -205.5883

 Total job time:  289.40s(wall), 9294.62s(cpu)
        *  Thank you very much for using Q-Chem.  Have a nice day.  *
