 Q-Chem 5.4, Q-Chem, Inc., Pleasanton, CA (2021)
 Q-Chem 5.4.0 for Intel X86 EM64T Linux

User input:
--------------------------------------------------------------
$molecule
0 1
C	-0.236226	-8.517702	0.217225
C	0.448921	-7.641575	-0.611939
S	-1.218777	-7.638634	1.413715
C	0.206907	-6.264785	-0.323572
H	1.118185	-7.966081	-1.418739
C	-0.711285	-6.072714	0.768156
C	-1.053725	-4.787049	1.215016
C	0.804258	-5.162801	-0.999917
C	0.464908	-3.874817	-0.550033
C	-0.456457	-3.683952	0.541024
O	1.630752	-5.499772	-2.028811
O	-1.883064	-4.459055	2.249357
C	-2.956754	-5.329063	2.586579
H	-3.619069	-4.755694	3.262802
H	-2.609423	-6.238095	3.124711
H	-3.531667	-5.637262	1.686639
C	2.599073	-4.572261	-2.503251
H	3.260097	-5.139743	-3.185356
H	3.207034	-4.153131	-1.672937
H	2.135214	-3.739531	-3.075213
C	-0.694410	-2.306654	0.828107
S	0.983256	-2.306501	-1.188794
C	-0.000000	-1.435185	-0.000000
H	-1.364851	-1.978138	1.632185
H	-0.234980	-9.614033	0.221288
C	0.000000	0.000000	0.000000
S	0.382799	0.819795	1.507541
C	1.046687	2.245325	0.718873
C	0.382918	0.819389	-1.067872
C	0.968323	2.080267	-0.686410
S	0.282561	0.597432	-2.805516
C	1.017839	2.187324	-3.054530
C	1.314960	2.830306	-1.862551
F	1.875498	4.043751	-1.819088
C	1.208895	2.592573	-4.456084
O	0.890778	1.891482	-5.406510
O	1.772886	3.819715	-4.569225
C	1.986852	4.266207	-5.916207
H	2.445834	5.267032	-5.833064
H	1.028114	4.323448	-6.470168
H	2.661066	3.573494	-6.459293
H	1.436015	3.083584	1.306486
$end

$rem
JOBTYPE		SP
EXCHANGE	HF
CORRELATION	pRIMP2
BASIS		cc-pvtz
METHOD		rimp2
AUX_BASIS	rimp2-cc-pvtz
SOLVENT_METHOD	PCM
PURECART	11111
SYMMETRY	false
MEM_TOTAL	110000
SCF_CONVERGENCE = 6
THRESH=10
GUI = 2
$end

$solvent
dielectric 4.90
$end
--------------------------------------------------------------

             Standard Nuclear Orientation (Angstroms)
    I     Atom           X                Y                Z
 ----------------------------------------------------------------
    1      C      -0.2362260000    -8.5177020000     0.2172250000
    2      C       0.4489210000    -7.6415750000    -0.6119390000
    3      S      -1.2187770000    -7.6386340000     1.4137150000
    4      C       0.2069070000    -6.2647850000    -0.3235720000
    5      H       1.1181850000    -7.9660810000    -1.4187390000
    6      C      -0.7112850000    -6.0727140000     0.7681560000
    7      C      -1.0537250000    -4.7870490000     1.2150160000
    8      C       0.8042580000    -5.1628010000    -0.9999170000
    9      C       0.4649080000    -3.8748170000    -0.5500330000
   10      C      -0.4564570000    -3.6839520000     0.5410240000
   11      O       1.6307520000    -5.4997720000    -2.0288110000
   12      O      -1.8830640000    -4.4590550000     2.2493570000
   13      C      -2.9567540000    -5.3290630000     2.5865790000
   14      H      -3.6190690000    -4.7556940000     3.2628020000
   15      H      -2.6094230000    -6.2380950000     3.1247110000
   16      H      -3.5316670000    -5.6372620000     1.6866390000
   17      C       2.5990730000    -4.5722610000    -2.5032510000
   18      H       3.2600970000    -5.1397430000    -3.1853560000
   19      H       3.2070340000    -4.1531310000    -1.6729370000
   20      H       2.1352140000    -3.7395310000    -3.0752130000
   21      C      -0.6944100000    -2.3066540000     0.8281070000
   22      S       0.9832560000    -2.3065010000    -1.1887940000
   23      C       0.0000000000    -1.4351850000     0.0000000000
   24      H      -1.3648510000    -1.9781380000     1.6321850000
   25      H      -0.2349800000    -9.6140330000     0.2212880000
   26      C       0.0000000000     0.0000000000     0.0000000000
   27      S       0.3827990000     0.8197950000     1.5075410000
   28      C       1.0466870000     2.2453250000     0.7188730000
   29      C       0.3829180000     0.8193890000    -1.0678720000
   30      C       0.9683230000     2.0802670000    -0.6864100000
   31      S       0.2825610000     0.5974320000    -2.8055160000
   32      C       1.0178390000     2.1873240000    -3.0545300000
   33      C       1.3149600000     2.8303060000    -1.8625510000
   34      F       1.8754980000     4.0437510000    -1.8190880000
   35      C       1.2088950000     2.5925730000    -4.4560840000
   36      O       0.8907780000     1.8914820000    -5.4065100000
   37      O       1.7728860000     3.8197150000    -4.5692250000
   38      C       1.9868520000     4.2662070000    -5.9162070000
   39      H       2.4458340000     5.2670320000    -5.8330640000
   40      H       1.0281140000     4.3234480000    -6.4701680000
   41      H       2.6610660000     3.5734940000    -6.4592930000
   42      H       1.4360150000     3.0835840000     1.3064860000
 ----------------------------------------------------------------

   10   -2754.3045706019      7.49e-07  Convergence criterion met
 Total energy in the final basis set =    -2754.3045706019
        RIMP2         total energy =     -2759.3593613402 a.u.

                    Orbital Energies (a.u.)
 --------------------------------------------------------------

 Alpha MOs
 -- Occupied --
-92.0150 -91.9992 -91.9887 -91.9858 -26.3434 -20.6147 -20.5919 -20.5908
-20.5611 -11.4093 -11.3825 -11.3189 -11.3163 -11.3133 -11.3027 -11.2972
-11.2952 -11.2941 -11.2888 -11.2864 -11.2858 -11.2854 -11.2845 -11.2835
-11.2788 -11.2603 -11.2576 -11.2526 -11.2495  -9.0136  -8.9992  -8.9892
 -8.9857  -6.6943  -6.6936  -6.6931  -6.6802  -6.6795  -6.6784  -6.6701
 -6.6694  -6.6685  -6.6667  -6.6661  -6.6652  -1.6604  -1.4672  -1.4159
 -1.4135  -1.3699  -1.2231  -1.1935  -1.1650  -1.1364  -1.0850  -1.0513
 -1.0416  -1.0237  -1.0011  -0.9873  -0.9639  -0.9583  -0.9497  -0.9400
 -0.8952  -0.8680  -0.8500  -0.8139  -0.7921  -0.7867  -0.7854  -0.7647
 -0.7552  -0.7332  -0.7253  -0.7100  -0.6988  -0.6854  -0.6828  -0.6813
 -0.6738  -0.6588  -0.6578  -0.6521  -0.6300  -0.6194  -0.6165  -0.6049
 -0.5978  -0.5833  -0.5782  -0.5687  -0.5660  -0.5595  -0.5564  -0.5511
 -0.5323  -0.5300  -0.5237  -0.5166  -0.5155  -0.5090  -0.5071  -0.4961
 -0.4878  -0.4800  -0.4758  -0.4738  -0.4699  -0.4640  -0.4591  -0.4177
 -0.3970  -0.3840  -0.3563  -0.3509  -0.3248  -0.2893  -0.2525

          Ground-State Mulliken Net Atomic Charges

     Atom                 Charge (a.u.)
  ----------------------------------------
      1 C                    -0.190705
      2 C                    -0.253870
      3 S                    -0.023916
      4 C                    -0.017750
      5 H                     0.196254
      6 C                    -0.024793
      7 C                     0.233832
      8 C                     0.241850
      9 C                    -0.044411
     10 C                    -0.004671
     11 O                    -0.333151
     12 O                    -0.340408
     13 C                    -0.085668
     14 H                     0.122134
     15 H                     0.090859
     16 H                     0.093983
     17 C                    -0.088815
     18 H                     0.125521
     19 H                     0.094317
     20 H                     0.091105
     21 C                    -0.270665
     22 S                    -0.016158
     23 C                     0.000851
     24 H                     0.194041
     25 H                     0.206078
     26 C                     0.023162
     27 S                     0.117379
     28 C                    -0.190776
     29 C                    -0.081556
     30 C                    -0.080864
     31 S                     0.027375
     32 C                    -0.157977
     33 C                     0.401797
     34 F                    -0.207009
     35 C                     0.444219
     36 O                    -0.461135
     37 O                    -0.300874
     38 C                    -0.058440
     39 H                     0.121392
     40 H                     0.095237
     41 H                     0.094989
     42 H                     0.217241
  ----------------------------------------
  Sum of atomic charges =     0.000000

                    Cartesian Multipole Moments
 -----------------------------------------------------------------
    Charge (ESU x 10^10)
                -0.0000
    Dipole Moment (Debye)
         X       1.2563      Y       1.2712      Z       2.5988
       Tot       3.1540
    Quadrupole Moments (Debye-Ang)
        XX    -183.0695     XY       7.1346     YY    -164.3921
        XZ     -15.1494     YZ      -5.5258     ZZ    -197.1283

 Total job time:  302.44s(wall), 9878.80s(cpu)
        *  Thank you very much for using Q-Chem.  Have a nice day.  *
