 Q-Chem 5.4, Q-Chem, Inc., Pleasanton, CA (2021)
 Q-Chem 5.4.0 for Intel X86 EM64T Linux

User input:
--------------------------------------------------------------
$molecule
0 1
C	0.701193	-8.488892	0.318247
C	0.616742	-7.616807	-0.757333
S	0.640926	-7.611739	1.866383
C	0.496713	-6.245258	-0.380867
H	0.639132	-7.940593	-1.805573
C	0.478351	-6.054060	1.045647
C	0.391116	-4.771116	1.608077
C	0.423432	-5.145477	-1.282948
C	0.340289	-3.859847	-0.720187
C	0.319182	-3.670099	0.707853
O	0.424679	-5.483626	-2.602386
O	0.391967	-4.441795	2.933517
C	-0.135633	-5.361285	3.881999
H	-0.258024	-4.796434	4.825744
H	0.553241	-6.213521	4.070972
H	-1.123774	-5.757113	3.562152
C	0.778992	-4.521574	-3.588253
H	0.896118	-5.080975	-4.535674
H	1.738100	-4.016931	-3.342986
H	-0.013821	-3.755025	-3.728239
C	0.201385	-2.297846	1.080725
S	0.190142	-2.298676	-1.542694
C	0.125085	-1.429724	0.000000
H	0.176004	-1.970295	2.127635
H	0.800298	-9.580740	0.320559
C	0.000000	0.000000	0.000000
S	0.079327	0.901280	1.507541
C	0.215617	2.467903	0.718873
C	0.079577	0.900940	-1.067872
C	0.198433	2.285998	-0.686410
S	0.061187	0.658044	-2.805516
C	0.208347	2.403534	-3.054530
C	0.267636	3.109360	-1.862551
F	0.379347	4.441341	-1.819088
C	0.249278	2.849688	-4.456084
O	0.190132	2.082076	-5.406510
O	0.359548	4.195721	-4.569225
C	0.407901	4.688467	-5.916207
H	0.496901	5.785916	-5.833064
H	-0.512596	4.414348	-6.470168
H	1.278377	4.268124	-6.459293
H	0.294764	3.388767	1.306486
$end

$rem
JOBTYPE		SP
EXCHANGE	HF
CORRELATION	pRIMP2
BASIS		cc-pvtz
METHOD		rimp2
AUX_BASIS	rimp2-cc-pvtz
SOLVENT_METHOD	PCM
PURECART	11111
SYMMETRY	false
MEM_TOTAL	110000
SCF_CONVERGENCE = 6
THRESH=10
GUI = 2
$end

$solvent
dielectric 4.90
$end
--------------------------------------------------------------

             Standard Nuclear Orientation (Angstroms)
    I     Atom           X                Y                Z
 ----------------------------------------------------------------
    1      C       0.7011930000    -8.4888920000     0.3182470000
    2      C       0.6167420000    -7.6168070000    -0.7573330000
    3      S       0.6409260000    -7.6117390000     1.8663830000
    4      C       0.4967130000    -6.2452580000    -0.3808670000
    5      H       0.6391320000    -7.9405930000    -1.8055730000
    6      C       0.4783510000    -6.0540600000     1.0456470000
    7      C       0.3911160000    -4.7711160000     1.6080770000
    8      C       0.4234320000    -5.1454770000    -1.2829480000
    9      C       0.3402890000    -3.8598470000    -0.7201870000
   10      C       0.3191820000    -3.6700990000     0.7078530000
   11      O       0.4246790000    -5.4836260000    -2.6023860000
   12      O       0.3919670000    -4.4417950000     2.9335170000
   13      C      -0.1356330000    -5.3612850000     3.8819990000
   14      H      -0.2580240000    -4.7964340000     4.8257440000
   15      H       0.5532410000    -6.2135210000     4.0709720000
   16      H      -1.1237740000    -5.7571130000     3.5621520000
   17      C       0.7789920000    -4.5215740000    -3.5882530000
   18      H       0.8961180000    -5.0809750000    -4.5356740000
   19      H       1.7381000000    -4.0169310000    -3.3429860000
   20      H      -0.0138210000    -3.7550250000    -3.7282390000
   21      C       0.2013850000    -2.2978460000     1.0807250000
   22      S       0.1901420000    -2.2986760000    -1.5426940000
   23      C       0.1250850000    -1.4297240000     0.0000000000
   24      H       0.1760040000    -1.9702950000     2.1276350000
   25      H       0.8002980000    -9.5807400000     0.3205590000
   26      C       0.0000000000     0.0000000000     0.0000000000
   27      S       0.0793270000     0.9012800000     1.5075410000
   28      C       0.2156170000     2.4679030000     0.7188730000
   29      C       0.0795770000     0.9009400000    -1.0678720000
   30      C       0.1984330000     2.2859980000    -0.6864100000
   31      S       0.0611870000     0.6580440000    -2.8055160000
   32      C       0.2083470000     2.4035340000    -3.0545300000
   33      C       0.2676360000     3.1093600000    -1.8625510000
   34      F       0.3793470000     4.4413410000    -1.8190880000
   35      C       0.2492780000     2.8496880000    -4.4560840000
   36      O       0.1901320000     2.0820760000    -5.4065100000
   37      O       0.3595480000     4.1957210000    -4.5692250000
   38      C       0.4079010000     4.6884670000    -5.9162070000
   39      H       0.4969010000     5.7859160000    -5.8330640000
   40      H      -0.5125960000     4.4143480000    -6.4701680000
   41      H       1.2783770000     4.2681240000    -6.4592930000
   42      H       0.2947640000     3.3887670000     1.3064860000
 ----------------------------------------------------------------

   10   -2754.3141132750      7.76e-07  Convergence criterion met
 Total energy in the final basis set =    -2754.3141132750
        RIMP2         total energy =     -2759.3680273339 a.u.

                    Orbital Energies (a.u.)
 --------------------------------------------------------------

 Alpha MOs
 -- Occupied --
-92.0151 -91.9993 -91.9912 -91.9860 -26.3437 -20.6149 -20.5924 -20.5911
-20.5615 -11.4096 -11.3831 -11.3200 -11.3166 -11.3118 -11.3022 -11.3011
-11.2984 -11.2977 -11.2889 -11.2866 -11.2863 -11.2861 -11.2861 -11.2842
-11.2788 -11.2623 -11.2578 -11.2540 -11.2498  -9.0138  -8.9994  -8.9918
 -8.9860  -6.6946  -6.6940  -6.6935  -6.6804  -6.6797  -6.6785  -6.6728
 -6.6721  -6.6711  -6.6669  -6.6663  -6.6655  -1.6607  -1.4674  -1.4165
 -1.4138  -1.3701  -1.2231  -1.1947  -1.1660  -1.1369  -1.0863  -1.0521
 -1.0419  -1.0246  -1.0022  -0.9883  -0.9646  -0.9585  -0.9499  -0.9414
 -0.8959  -0.8685  -0.8520  -0.8156  -0.7923  -0.7881  -0.7856  -0.7652
 -0.7556  -0.7340  -0.7256  -0.7106  -0.6989  -0.6861  -0.6836  -0.6820
 -0.6740  -0.6592  -0.6584  -0.6525  -0.6310  -0.6197  -0.6167  -0.6030
 -0.5979  -0.5854  -0.5789  -0.5695  -0.5684  -0.5612  -0.5568  -0.5535
 -0.5326  -0.5293  -0.5238  -0.5207  -0.5184  -0.5117  -0.5063  -0.4946
 -0.4870  -0.4786  -0.4773  -0.4752  -0.4700  -0.4640  -0.4590  -0.4278
 -0.3929  -0.3861  -0.3618  -0.3521  -0.3247  -0.2914  -0.2478

          Ground-State Mulliken Net Atomic Charges

     Atom                 Charge (a.u.)
  ----------------------------------------
      1 C                    -0.190820
      2 C                    -0.253435
      3 S                    -0.023560
      4 C                    -0.018176
      5 H                     0.196393
      6 C                    -0.026851
      7 C                     0.238603
      8 C                     0.244688
      9 C                    -0.033491
     10 C                    -0.015749
     11 O                    -0.332621
     12 O                    -0.341095
     13 C                    -0.085599
     14 H                     0.122149
     15 H                     0.091090
     16 H                     0.093883
     17 C                    -0.089900
     18 H                     0.126379
     19 H                     0.095483
     20 H                     0.090841
     21 C                    -0.274561
     22 S                    -0.050347
     23 C                     0.037731
     24 H                     0.184944
     25 H                     0.206124
     26 C                     0.037903
     27 S                     0.087140
     28 C                    -0.182451
     29 C                    -0.006000
     30 C                    -0.126229
     31 S                     0.004705
     32 C                    -0.169024
     33 C                     0.414620
     34 F                    -0.206648
     35 C                     0.443013
     36 O                    -0.461338
     37 O                    -0.300795
     38 C                    -0.058728
     39 H                     0.121504
     40 H                     0.095240
     41 H                     0.095129
     42 H                     0.219855
  ----------------------------------------
  Sum of atomic charges =     0.000000

                    Cartesian Multipole Moments
 -----------------------------------------------------------------
    Charge (ESU x 10^10)
                 0.0000
    Dipole Moment (Debye)
         X       0.1567      Y       1.3784      Z       2.6915
       Tot       3.0280
    Quadrupole Moments (Debye-Ang)
        XX    -200.8332     XY       0.7118     YY    -160.7587
        XZ      -6.3479     YZ      -7.5253     ZZ    -182.2383

 Total job time:  327.57s(wall), 9282.28s(cpu)
        *  Thank you very much for using Q-Chem.  Have a nice day.  *
