 Q-Chem 5.4, Q-Chem, Inc., Pleasanton, CA (2021)
 Q-Chem 5.4.0 for Intel X86 EM64T Linux

User input:
--------------------------------------------------------------
$molecule
0 1
C	1.438381	-8.395476	0.318247
C	1.278244	-7.534070	-0.757333
S	1.301894	-7.526914	1.866383
C	1.039133	-6.178202	-0.380867
H	1.328769	-7.854673	-1.805573
C	1.004177	-5.989332	1.045647
C	0.805458	-4.718873	1.608077
C	0.870278	-5.088992	-1.282948
C	0.675402	-3.815501	-0.720187
C	0.637837	-3.628315	0.707853
O	0.900992	-5.425746	-2.602386
O	0.777604	-4.390731	2.933517
C	0.332149	-5.352705	3.881999
H	0.160995	-4.800670	4.825744
H	1.092680	-6.141658	4.070972
H	-0.617733	-5.833149	3.562152
C	1.170109	-4.436474	-3.588253
H	1.335544	-4.983539	-4.535674
H	2.081585	-3.850160	-3.342986
H	0.313504	-3.741940	-3.728239
C	0.400889	-2.271550	1.080725
S	0.389762	-2.273357	-1.542694
C	0.249217	-1.413382	0.000000
H	0.347057	-1.947458	2.127635
H	1.632269	-9.474532	0.320559
C	0.000000	0.000000	0.000000
S	0.693394	0.581209	1.507541
C	1.897536	1.592607	0.718873
C	0.693330	0.580791	-1.067872
C	1.756758	1.476132	-0.686410
S	0.508573	0.422041	-2.805516
C	1.846879	1.552232	-3.054530
C	2.387897	2.009402	-1.862551
F	3.408741	2.872264	-1.819088
C	2.191300	1.838768	-4.456084
O	1.606694	1.337806	-5.406510
O	3.221062	2.712584	-4.569225
C	3.603677	3.026817	-5.916207
H	4.442623	3.739898	-5.833064
H	2.758956	3.483875	-6.470168
H	3.921969	2.114070	-6.459293
H	2.604650	2.187790	1.306486
$end

$rem
JOBTYPE		SP
EXCHANGE	HF
CORRELATION	pRIMP2
BASIS		cc-pvtz
METHOD		rimp2
AUX_BASIS	rimp2-cc-pvtz
SOLVENT_METHOD	PCM
PURECART	11111
SYMMETRY	false
MEM_TOTAL	110000
SCF_CONVERGENCE = 6
THRESH=10
GUI = 2
$end

$solvent
dielectric 4.90
$end
--------------------------------------------------------------

             Standard Nuclear Orientation (Angstroms)
    I     Atom           X                Y                Z
 ----------------------------------------------------------------
    1      C       1.4383810000    -8.3954760000     0.3182470000
    2      C       1.2782440000    -7.5340700000    -0.7573330000
    3      S       1.3018940000    -7.5269140000     1.8663830000
    4      C       1.0391330000    -6.1782020000    -0.3808670000
    5      H       1.3287690000    -7.8546730000    -1.8055730000
    6      C       1.0041770000    -5.9893320000     1.0456470000
    7      C       0.8054580000    -4.7188730000     1.6080770000
    8      C       0.8702780000    -5.0889920000    -1.2829480000
    9      C       0.6754020000    -3.8155010000    -0.7201870000
   10      C       0.6378370000    -3.6283150000     0.7078530000
   11      O       0.9009920000    -5.4257460000    -2.6023860000
   12      O       0.7776040000    -4.3907310000     2.9335170000
   13      C       0.3321490000    -5.3527050000     3.8819990000
   14      H       0.1609950000    -4.8006700000     4.8257440000
   15      H       1.0926800000    -6.1416580000     4.0709720000
   16      H      -0.6177330000    -5.8331490000     3.5621520000
   17      C       1.1701090000    -4.4364740000    -3.5882530000
   18      H       1.3355440000    -4.9835390000    -4.5356740000
   19      H       2.0815850000    -3.8501600000    -3.3429860000
   20      H       0.3135040000    -3.7419400000    -3.7282390000
   21      C       0.4008890000    -2.2715500000     1.0807250000
   22      S       0.3897620000    -2.2733570000    -1.5426940000
   23      C       0.2492170000    -1.4133820000     0.0000000000
   24      H       0.3470570000    -1.9474580000     2.1276350000
   25      H       1.6322690000    -9.4745320000     0.3205590000
   26      C       0.0000000000     0.0000000000     0.0000000000
   27      S       0.6933940000     0.5812090000     1.5075410000
   28      C       1.8975360000     1.5926070000     0.7188730000
   29      C       0.6933300000     0.5807910000    -1.0678720000
   30      C       1.7567580000     1.4761320000    -0.6864100000
   31      S       0.5085730000     0.4220410000    -2.8055160000
   32      C       1.8468790000     1.5522320000    -3.0545300000
   33      C       2.3878970000     2.0094020000    -1.8625510000
   34      F       3.4087410000     2.8722640000    -1.8190880000
   35      C       2.1913000000     1.8387680000    -4.4560840000
   36      O       1.6066940000     1.3378060000    -5.4065100000
   37      O       3.2210620000     2.7125840000    -4.5692250000
   38      C       3.6036770000     3.0268170000    -5.9162070000
   39      H       4.4426230000     3.7398980000    -5.8330640000
   40      H       2.7589560000     3.4838750000    -6.4701680000
   41      H       3.9219690000     2.1140700000    -6.4592930000
   42      H       2.6046500000     2.1877900000     1.3064860000
 ----------------------------------------------------------------

   10   -2754.2407256788      8.07e-07  Convergence criterion met
 Total energy in the final basis set =    -2754.2407256788
        RIMP2         total energy =     -2759.3081417574 a.u.

                    Orbital Energies (a.u.)
 --------------------------------------------------------------

 Alpha MOs
 -- Occupied --
-92.0147 -92.0122 -91.9813 -91.9812 -26.3479 -20.6167 -20.5896 -20.5849
-20.5634 -11.4121 -11.3892 -11.3414 -11.3268 -11.3155 -11.3055 -11.3004
-11.2995 -11.2914 -11.2902 -11.2849 -11.2829 -11.2793 -11.2748 -11.2743
-11.2719 -11.2556 -11.2485 -11.2461 -11.2305  -9.0145  -9.0122  -8.9827
 -8.9813  -6.6951  -6.6941  -6.6939  -6.6930  -6.6922  -6.6913  -6.6636
 -6.6628  -6.6623  -6.6618  -6.6617  -6.6608  -1.6648  -1.4693  -1.4134
 -1.4079  -1.3721  -1.2386  -1.1881  -1.1645  -1.1411  -1.0874  -1.0476
 -1.0439  -1.0307  -0.9965  -0.9873  -0.9679  -0.9543  -0.9468  -0.9419
 -0.8909  -0.8745  -0.8429  -0.8210  -0.7961  -0.7839  -0.7795  -0.7630
 -0.7558  -0.7295  -0.7286  -0.7145  -0.6972  -0.6878  -0.6844  -0.6785
 -0.6758  -0.6620  -0.6556  -0.6486  -0.6306  -0.6159  -0.6147  -0.6067
 -0.6022  -0.5828  -0.5811  -0.5707  -0.5647  -0.5585  -0.5526  -0.5476
 -0.5342  -0.5297  -0.5241  -0.5166  -0.5127  -0.5098  -0.5037  -0.4935
 -0.4850  -0.4824  -0.4782  -0.4743  -0.4668  -0.4583  -0.4545  -0.4248
 -0.3863  -0.3785  -0.3573  -0.3557  -0.3237  -0.2911  -0.2422

          Ground-State Mulliken Net Atomic Charges

     Atom                 Charge (a.u.)
  ----------------------------------------
      1 C                    -0.205111
      2 C                    -0.251676
      3 S                    -0.032140
      4 C                    -0.029762
      5 H                     0.194532
      6 C                    -0.020677
      7 C                     0.218443
      8 C                     0.246605
      9 C                    -0.046928
     10 C                     0.001542
     11 O                    -0.333466
     12 O                    -0.343730
     13 C                    -0.085439
     14 H                     0.120053
     15 H                     0.089617
     16 H                     0.092074
     17 C                    -0.087610
     18 H                     0.124895
     19 H                     0.093400
     20 H                     0.089986
     21 C                    -0.317035
     22 S                    -0.045686
     23 C                     0.030143
     24 H                     0.177765
     25 H                     0.203487
     26 C                    -0.150473
     27 S                     0.116821
     28 C                    -0.101337
     29 C                     0.098271
     30 C                    -0.123054
     31 S                     0.072373
     32 C                    -0.158927
     33 C                     0.400542
     34 F                    -0.203281
     35 C                     0.450117
     36 O                    -0.461977
     37 O                    -0.301027
     38 C                    -0.058094
     39 H                     0.121845
     40 H                     0.095465
     41 H                     0.095371
     42 H                     0.224083
  ----------------------------------------
  Sum of atomic charges =     0.000000

                    Cartesian Multipole Moments
 -----------------------------------------------------------------
    Charge (ESU x 10^10)
                -0.0000
    Dipole Moment (Debye)
         X       3.2828      Y       3.8324      Z       1.5703
       Tot       5.2849
    Quadrupole Moments (Debye-Ang)
        XX    -189.6261     XY       9.2851     YY    -184.7548
        XZ     -11.5570     YZ      -3.2223     ZZ    -180.7833

 Total job time:  313.15s(wall), 9846.55s(cpu)
        *  Thank you very much for using Q-Chem.  Have a nice day.  *
