 Q-Chem 5.4, Q-Chem, Inc., Pleasanton, CA (2021)
 Q-Chem 5.4.0 for Intel X86 EM64T Linux

User input:
--------------------------------------------------------------
$molecule
0 1
C	0.284919	-8.517702	0.147685
C	-0.728574	-7.641575	-0.212552
S	1.745304	-7.638634	0.661757
C	-0.374824	-6.264785	-0.083761
H	-1.715621	-7.966081	-0.565513
C	0.965104	-6.072714	0.405665
C	1.502136	-4.787049	0.574617
C	-1.214687	-5.162801	-0.413763
C	-0.675870	-3.874817	-0.248748
C	0.664513	-3.683952	0.243888
O	-2.464209	-5.499772	-0.838511
O	2.757750	-4.459055	1.000176
C	3.441858	-5.329063	1.893778
H	4.303826	-4.755694	2.284868
H	3.828743	-6.238095	1.383341
H	2.792824	-5.637262	2.741817
C	-3.241222	-4.572261	-1.586168
H	-4.108274	-5.139743	-1.974033
H	-2.668916	-4.153131	-2.441448
H	-3.620041	-3.739531	-0.954660
C	1.015668	-2.306654	0.369302
S	-1.453394	-2.306501	-0.517367
C	-0.000000	-1.435185	-0.000000
H	2.000559	-1.978138	0.724300
H	0.288311	-9.614033	0.145124
C	0.000000	0.000000	0.000000
S	0.309893	0.850039	1.507541
C	0.847011	2.328006	0.718873
C	0.310046	0.849645	-1.067872
C	0.783331	2.156746	-0.686410
S	0.229416	0.619785	-2.805516
C	0.823328	2.267711	-3.054530
C	1.063278	2.934142	-1.862551
F	1.515925	4.191824	-1.819088
C	0.978337	2.688069	-4.456084
O	0.722535	1.961921	-5.406510
O	1.433229	3.959697	-4.569225
C	1.607467	4.423139	-5.916207
H	1.977475	5.460158	-5.833064
H	0.647388	4.396602	-6.470168
H	2.339490	3.791823	-6.459293
H	1.161798	3.197007	1.306486
$end

$rem
JOBTYPE		SP
EXCHANGE	HF
CORRELATION	pRIMP2
BASIS		cc-pvtz
METHOD		rimp2
AUX_BASIS	rimp2-cc-pvtz
SOLVENT_METHOD	PCM
PURECART	11111
SYMMETRY	false
MEM_TOTAL	110000
SCF_CONVERGENCE = 6
THRESH=10
GUI = 2
$end

$solvent
dielectric 4.90
$end
--------------------------------------------------------------

             Standard Nuclear Orientation (Angstroms)
    I     Atom           X                Y                Z
 ----------------------------------------------------------------
    1      C       0.2849190000    -8.5177020000     0.1476850000
    2      C      -0.7285740000    -7.6415750000    -0.2125520000
    3      S       1.7453040000    -7.6386340000     0.6617570000
    4      C      -0.3748240000    -6.2647850000    -0.0837610000
    5      H      -1.7156210000    -7.9660810000    -0.5655130000
    6      C       0.9651040000    -6.0727140000     0.4056650000
    7      C       1.5021360000    -4.7870490000     0.5746170000
    8      C      -1.2146870000    -5.1628010000    -0.4137630000
    9      C      -0.6758700000    -3.8748170000    -0.2487480000
   10      C       0.6645130000    -3.6839520000     0.2438880000
   11      O      -2.4642090000    -5.4997720000    -0.8385110000
   12      O       2.7577500000    -4.4590550000     1.0001760000
   13      C       3.4418580000    -5.3290630000     1.8937780000
   14      H       4.3038260000    -4.7556940000     2.2848680000
   15      H       3.8287430000    -6.2380950000     1.3833410000
   16      H       2.7928240000    -5.6372620000     2.7418170000
   17      C      -3.2412220000    -4.5722610000    -1.5861680000
   18      H      -4.1082740000    -5.1397430000    -1.9740330000
   19      H      -2.6689160000    -4.1531310000    -2.4414480000
   20      H      -3.6200410000    -3.7395310000    -0.9546600000
   21      C       1.0156680000    -2.3066540000     0.3693020000
   22      S      -1.4533940000    -2.3065010000    -0.5173670000
   23      C       0.0000000000    -1.4351850000     0.0000000000
   24      H       2.0005590000    -1.9781380000     0.7243000000
   25      H       0.2883110000    -9.6140330000     0.1451240000
   26      C       0.0000000000     0.0000000000     0.0000000000
   27      S       0.3098930000     0.8500390000     1.5075410000
   28      C       0.8470110000     2.3280060000     0.7188730000
   29      C       0.3100460000     0.8496450000    -1.0678720000
   30      C       0.7833310000     2.1567460000    -0.6864100000
   31      S       0.2294160000     0.6197850000    -2.8055160000
   32      C       0.8233280000     2.2677110000    -3.0545300000
   33      C       1.0632780000     2.9341420000    -1.8625510000
   34      F       1.5159250000     4.1918240000    -1.8190880000
   35      C       0.9783370000     2.6880690000    -4.4560840000
   36      O       0.7225350000     1.9619210000    -5.4065100000
   37      O       1.4332290000     3.9596970000    -4.5692250000
   38      C       1.6074670000     4.4231390000    -5.9162070000
   39      H       1.9774750000     5.4601580000    -5.8330640000
   40      H       0.6473880000     4.3966020000    -6.4701680000
   41      H       2.3394900000     3.7918230000    -6.4592930000
   42      H       1.1617980000     3.1970070000     1.3064860000
 ----------------------------------------------------------------

   10   -2754.3076563383      7.10e-07  Convergence criterion met
 Total energy in the final basis set =    -2754.3076563383
        RIMP2         total energy =     -2759.3592180599 a.u.

                    Orbital Energies (a.u.)
 --------------------------------------------------------------

 Alpha MOs
 -- Occupied --
-92.0150 -91.9980 -91.9880 -91.9861 -26.3430 -20.6143 -20.5920 -20.5914
-20.5605 -11.4087 -11.3819 -11.3188 -11.3176 -11.3111 -11.3023 -11.2964
-11.2942 -11.2926 -11.2885 -11.2865 -11.2862 -11.2853 -11.2840 -11.2837
-11.2796 -11.2604 -11.2586 -11.2566 -11.2498  -9.0134  -8.9980  -8.9884
 -8.9861  -6.6941  -6.6935  -6.6930  -6.6790  -6.6782  -6.6771  -6.6693
 -6.6686  -6.6677  -6.6671  -6.6664  -6.6656  -1.6600  -1.4667  -1.4161
 -1.4141  -1.3694  -1.2210  -1.1939  -1.1650  -1.1354  -1.0843  -1.0515
 -1.0411  -1.0222  -1.0011  -0.9875  -0.9622  -0.9595  -0.9499  -0.9391
 -0.8951  -0.8671  -0.8502  -0.8113  -0.7920  -0.7887  -0.7862  -0.7646
 -0.7550  -0.7335  -0.7249  -0.7095  -0.6999  -0.6847  -0.6830  -0.6804
 -0.6734  -0.6590  -0.6571  -0.6525  -0.6301  -0.6199  -0.6167  -0.6046
 -0.5975  -0.5864  -0.5758  -0.5698  -0.5668  -0.5623  -0.5539  -0.5529
 -0.5306  -0.5282  -0.5227  -0.5162  -0.5147  -0.5092  -0.5041  -0.4939
 -0.4893  -0.4793  -0.4752  -0.4730  -0.4701  -0.4651  -0.4606  -0.4076
 -0.3970  -0.3864  -0.3590  -0.3466  -0.3164  -0.2973  -0.2575

          Ground-State Mulliken Net Atomic Charges

     Atom                 Charge (a.u.)
  ----------------------------------------
      1 C                    -0.188922
      2 C                    -0.254045
      3 S                    -0.022644
      4 C                    -0.015861
      5 H                     0.196316
      6 C                    -0.028525
      7 C                     0.240378
      8 C                     0.244141
      9 C                    -0.050012
     10 C                    -0.022300
     11 O                    -0.333603
     12 O                    -0.340218
     13 C                    -0.085720
     14 H                     0.122413
     15 H                     0.091171
     16 H                     0.093801
     17 C                    -0.086404
     18 H                     0.124538
     19 H                     0.095291
     20 H                     0.089629
     21 C                    -0.214253
     22 S                     0.001232
     23 C                    -0.037848
     24 H                     0.199826
     25 H                     0.206314
     26 C                    -0.054858
     27 S                     0.108075
     28 C                    -0.183317
     29 C                     0.009255
     30 C                    -0.100469
     31 S                     0.011303
     32 C                    -0.152393
     33 C                     0.390968
     34 F                    -0.206592
     35 C                     0.445645
     36 O                    -0.461350
     37 O                    -0.300898
     38 C                    -0.058416
     39 H                     0.121169
     40 H                     0.094992
     41 H                     0.095037
     42 H                     0.217152
  ----------------------------------------
  Sum of atomic charges =     0.000000

                    Cartesian Multipole Moments
 -----------------------------------------------------------------
    Charge (ESU x 10^10)
                -0.0000
    Dipole Moment (Debye)
         X       0.8283      Y       1.0396      Z       3.1989
       Tot       3.4640
    Quadrupole Moments (Debye-Ang)
        XX    -182.7816     XY       5.3594     YY    -162.2772
        XZ       9.1497     YZ      -8.2434     ZZ    -198.9057

 Total job time:  361.80s(wall), 12202.19s(cpu)
        *  Thank you very much for using Q-Chem.  Have a nice day.  *
