 Q-Chem 5.4, Q-Chem, Inc., Pleasanton, CA (2021)
 Q-Chem 5.4.0 for Intel X86 EM64T Linux

User input:
--------------------------------------------------------------
$molecule
0 1
C	0.095966	-8.517702	-0.306235
C	-0.082807	-7.641575	0.754415
S	0.348635	-7.638634	-1.833702
C	-0.017401	-6.264785	0.383675
H	-0.259008	-7.966081	1.787757
C	0.231913	-6.072714	-1.020885
C	0.305044	-4.787049	-1.579097
C	-0.196549	-5.162801	1.268082
C	-0.127606	-3.874817	0.708796
C	0.124792	-3.683952	-0.696769
O	-0.397867	-5.499772	2.572378
O	0.506103	-4.459055	-2.889532
C	1.267335	-5.329063	-3.718420
H	1.502804	-4.755694	-4.635204
H	0.697471	-6.238095	-4.010790
H	2.215194	-5.637262	-3.226506
C	-0.999238	-4.572261	3.467415
H	-1.230649	-5.139743	4.388648
H	-1.940905	-4.153131	3.052323
H	-0.311543	-3.739531	3.730819
C	0.187323	-2.306654	-1.064366
S	-0.257128	-2.306501	1.521154
C	0.000000	-1.435185	0.000000
H	0.365903	-1.978138	-2.095939
H	0.092855	-9.614033	-0.309131
C	0.000000	0.000000	0.000000
S	0.234628	0.873813	1.507541
C	0.640889	2.392969	0.718873
C	0.234815	0.873434	-1.067872
C	0.592377	2.216811	-0.686410
S	0.174526	0.637422	-2.805516
C	0.622551	2.330840	-3.054530
C	0.803505	3.015647	-1.862551
F	1.144815	4.307994	-1.819088
C	0.740334	2.763108	-4.456084
O	0.548793	2.017428	-5.406510
O	1.082665	4.069544	-4.569225
C	1.215848	4.546407	-5.916207
H	1.494066	5.611729	-5.833064
H	0.261736	4.436296	-6.470168
H	2.000108	3.981294	-6.459293
H	0.878739	3.286099	1.306486
$end

$rem
JOBTYPE		SP
EXCHANGE	HF
CORRELATION	pRIMP2
BASIS		cc-pvtz
METHOD		rimp2
AUX_BASIS	rimp2-cc-pvtz
SOLVENT_METHOD	PCM
PURECART	11111
SYMMETRY	false
MEM_TOTAL	110000
SCF_CONVERGENCE = 6
THRESH=10
GUI = 2
$end

$solvent
dielectric 4.90
$end
--------------------------------------------------------------

             Standard Nuclear Orientation (Angstroms)
    I     Atom           X                Y                Z
 ----------------------------------------------------------------
    1      C       0.0959660000    -8.5177020000    -0.3062350000
    2      C      -0.0828070000    -7.6415750000     0.7544150000
    3      S       0.3486350000    -7.6386340000    -1.8337020000
    4      C      -0.0174010000    -6.2647850000     0.3836750000
    5      H      -0.2590080000    -7.9660810000     1.7877570000
    6      C       0.2319130000    -6.0727140000    -1.0208850000
    7      C       0.3050440000    -4.7870490000    -1.5790970000
    8      C      -0.1965490000    -5.1628010000     1.2680820000
    9      C      -0.1276060000    -3.8748170000     0.7087960000
   10      C       0.1247920000    -3.6839520000    -0.6967690000
   11      O      -0.3978670000    -5.4997720000     2.5723780000
   12      O       0.5061030000    -4.4590550000    -2.8895320000
   13      C       1.2673350000    -5.3290630000    -3.7184200000
   14      H       1.5028040000    -4.7556940000    -4.6352040000
   15      H       0.6974710000    -6.2380950000    -4.0107900000
   16      H       2.2151940000    -5.6372620000    -3.2265060000
   17      C      -0.9992380000    -4.5722610000     3.4674150000
   18      H      -1.2306490000    -5.1397430000     4.3886480000
   19      H      -1.9409050000    -4.1531310000     3.0523230000
   20      H      -0.3115430000    -3.7395310000     3.7308190000
   21      C       0.1873230000    -2.3066540000    -1.0643660000
   22      S      -0.2571280000    -2.3065010000     1.5211540000
   23      C       0.0000000000    -1.4351850000     0.0000000000
   24      H       0.3659030000    -1.9781380000    -2.0959390000
   25      H       0.0928550000    -9.6140330000    -0.3091310000
   26      C       0.0000000000     0.0000000000     0.0000000000
   27      S       0.2346280000     0.8738130000     1.5075410000
   28      C       0.6408890000     2.3929690000     0.7188730000
   29      C       0.2348150000     0.8734340000    -1.0678720000
   30      C       0.5923770000     2.2168110000    -0.6864100000
   31      S       0.1745260000     0.6374220000    -2.8055160000
   32      C       0.6225510000     2.3308400000    -3.0545300000
   33      C       0.8035050000     3.0156470000    -1.8625510000
   34      F       1.1448150000     4.3079940000    -1.8190880000
   35      C       0.7403340000     2.7631080000    -4.4560840000
   36      O       0.5487930000     2.0174280000    -5.4065100000
   37      O       1.0826650000     4.0695440000    -4.5692250000
   38      C       1.2158480000     4.5464070000    -5.9162070000
   39      H       1.4940660000     5.6117290000    -5.8330640000
   40      H       0.2617360000     4.4362960000    -6.4701680000
   41      H       2.0001080000     3.9812940000    -6.4592930000
   42      H       0.8787390000     3.2860990000     1.3064860000
 ----------------------------------------------------------------

   10   -2754.3123380280      7.51e-07  Convergence criterion met
 Total energy in the final basis set =    -2754.3123380280
        RIMP2         total energy =     -2759.3661392864 a.u.

                    Orbital Energies (a.u.)
 --------------------------------------------------------------

 Alpha MOs
 -- Occupied --
-92.0164 -92.0004 -91.9907 -91.9862 -26.3439 -20.6150 -20.5929 -20.5907
-20.5615 -11.4097 -11.3833 -11.3200 -11.3171 -11.3118 -11.3014 -11.3001
-11.2980 -11.2976 -11.2889 -11.2877 -11.2867 -11.2863 -11.2853 -11.2842
-11.2792 -11.2621 -11.2584 -11.2549 -11.2499  -9.0151  -9.0004  -8.9914
 -8.9861  -6.6959  -6.6953  -6.6948  -6.6814  -6.6806  -6.6795  -6.6724
 -6.6717  -6.6708  -6.6671  -6.6665  -6.6656  -1.6609  -1.4675  -1.4170
 -1.4135  -1.3702  -1.2230  -1.1949  -1.1663  -1.1373  -1.0858  -1.0522
 -1.0425  -1.0242  -1.0018  -0.9887  -0.9644  -0.9599  -0.9505  -0.9397
 -0.8966  -0.8686  -0.8521  -0.8088  -0.7993  -0.7884  -0.7861  -0.7643
 -0.7556  -0.7344  -0.7257  -0.7104  -0.7021  -0.6861  -0.6836  -0.6812
 -0.6740  -0.6594  -0.6590  -0.6523  -0.6309  -0.6198  -0.6170  -0.6024
 -0.5988  -0.5837  -0.5801  -0.5713  -0.5648  -0.5614  -0.5561  -0.5496
 -0.5357  -0.5304  -0.5242  -0.5194  -0.5167  -0.5108  -0.5058  -0.4959
 -0.4874  -0.4815  -0.4775  -0.4742  -0.4697  -0.4653  -0.4598  -0.4273
 -0.3964  -0.3843  -0.3614  -0.3487  -0.3280  -0.2892  -0.2500

          Ground-State Mulliken Net Atomic Charges

     Atom                 Charge (a.u.)
  ----------------------------------------
      1 C                    -0.190130
      2 C                    -0.254115
      3 S                    -0.021829
      4 C                    -0.017826
      5 H                     0.196116
      6 C                    -0.026936
      7 C                     0.243725
      8 C                     0.243637
      9 C                    -0.039873
     10 C                    -0.025416
     11 O                    -0.333017
     12 O                    -0.340513
     13 C                    -0.086403
     14 H                     0.123505
     15 H                     0.091522
     16 H                     0.093727
     17 C                    -0.088619
     18 H                     0.126192
     19 H                     0.095187
     20 H                     0.089379
     21 C                    -0.226767
     22 S                    -0.040932
     23 C                    -0.009132
     24 H                     0.188457
     25 H                     0.206276
     26 C                     0.022924
     27 S                     0.090581
     28 C                    -0.195808
     29 C                    -0.011194
     30 C                    -0.110712
     31 S                     0.013267
     32 C                    -0.163513
     33 C                     0.409232
     34 F                    -0.206213
     35 C                     0.443212
     36 O                    -0.460981
     37 O                    -0.300814
     38 C                    -0.058485
     39 H                     0.121506
     40 H                     0.095242
     41 H                     0.095150
     42 H                     0.220393
  ----------------------------------------
  Sum of atomic charges =     0.000000

                    Cartesian Multipole Moments
 -----------------------------------------------------------------
    Charge (ESU x 10^10)
                 0.0000
    Dipole Moment (Debye)
         X       0.9811      Y       1.2433      Z       3.1269
       Tot       3.5051
    Quadrupole Moments (Debye-Ang)
        XX    -197.1545     XY       2.7051     YY    -160.7976
        XZ     -11.1361     YZ      -7.4713     ZZ    -184.8615

 Total job time:  292.65s(wall), 9137.96s(cpu)
        *  Thank you very much for using Q-Chem.  Have a nice day.  *
