 Q-Chem 5.4, Q-Chem, Inc., Pleasanton, CA (2021)
 Q-Chem 5.4.0 for Intel X86 EM64T Linux

User input:
--------------------------------------------------------------
$molecule
0 1
C	0.236226	-8.517702	-0.217225
C	-0.448921	-7.641575	0.611939
S	1.218777	-7.638634	-1.413715
C	-0.206907	-6.264785	0.323572
H	-1.118185	-7.966081	1.418739
C	0.711285	-6.072714	-0.768156
C	1.053725	-4.787049	-1.215016
C	-0.804258	-5.162801	0.999917
C	-0.464908	-3.874817	0.550033
C	0.456457	-3.683952	-0.541024
O	-1.630752	-5.499772	2.028811
O	1.883064	-4.459055	-2.249357
C	2.956754	-5.329063	-2.586579
H	3.619069	-4.755694	-3.262802
H	2.609423	-6.238095	-3.124711
H	3.531667	-5.637262	-1.686639
C	-2.599073	-4.572261	2.503251
H	-3.260097	-5.139743	3.185356
H	-3.207034	-4.153131	1.672937
H	-2.135214	-3.739531	3.075213
C	0.694410	-2.306654	-0.828107
S	-0.983256	-2.306501	1.188794
C	0.000000	-1.435185	0.000000
H	1.364851	-1.978138	-1.632185
H	0.234980	-9.614033	-0.221288
C	0.000000	0.000000	0.000000
S	0.693394	0.581209	1.507541
C	1.897536	1.592607	0.718873
C	0.693330	0.580791	-1.067872
C	1.756758	1.476132	-0.686410
S	0.508573	0.422041	-2.805516
C	1.846879	1.552232	-3.054530
C	2.387897	2.009402	-1.862551
F	3.408741	2.872264	-1.819088
C	2.191300	1.838768	-4.456084
O	1.606694	1.337806	-5.406510
O	3.221062	2.712584	-4.569225
C	3.603677	3.026817	-5.916207
H	4.442623	3.739898	-5.833064
H	2.758956	3.483875	-6.470168
H	3.921969	2.114070	-6.459293
H	2.604650	2.187790	1.306486
$end

$rem
JOBTYPE		SP
EXCHANGE	HF
CORRELATION	pRIMP2
BASIS		cc-pvtz
METHOD		rimp2
AUX_BASIS	rimp2-cc-pvtz
SOLVENT_METHOD	PCM
PURECART	11111
SYMMETRY	false
MEM_TOTAL	110000
SCF_CONVERGENCE = 6
THRESH=10
GUI = 2
$end

$solvent
dielectric 4.90
$end
--------------------------------------------------------------

             Standard Nuclear Orientation (Angstroms)
    I     Atom           X                Y                Z
 ----------------------------------------------------------------
    1      C       0.2362260000    -8.5177020000    -0.2172250000
    2      C      -0.4489210000    -7.6415750000     0.6119390000
    3      S       1.2187770000    -7.6386340000    -1.4137150000
    4      C      -0.2069070000    -6.2647850000     0.3235720000
    5      H      -1.1181850000    -7.9660810000     1.4187390000
    6      C       0.7112850000    -6.0727140000    -0.7681560000
    7      C       1.0537250000    -4.7870490000    -1.2150160000
    8      C      -0.8042580000    -5.1628010000     0.9999170000
    9      C      -0.4649080000    -3.8748170000     0.5500330000
   10      C       0.4564570000    -3.6839520000    -0.5410240000
   11      O      -1.6307520000    -5.4997720000     2.0288110000
   12      O       1.8830640000    -4.4590550000    -2.2493570000
   13      C       2.9567540000    -5.3290630000    -2.5865790000
   14      H       3.6190690000    -4.7556940000    -3.2628020000
   15      H       2.6094230000    -6.2380950000    -3.1247110000
   16      H       3.5316670000    -5.6372620000    -1.6866390000
   17      C      -2.5990730000    -4.5722610000     2.5032510000
   18      H      -3.2600970000    -5.1397430000     3.1853560000
   19      H      -3.2070340000    -4.1531310000     1.6729370000
   20      H      -2.1352140000    -3.7395310000     3.0752130000
   21      C       0.6944100000    -2.3066540000    -0.8281070000
   22      S      -0.9832560000    -2.3065010000     1.1887940000
   23      C       0.0000000000    -1.4351850000     0.0000000000
   24      H       1.3648510000    -1.9781380000    -1.6321850000
   25      H       0.2349800000    -9.6140330000    -0.2212880000
   26      C       0.0000000000     0.0000000000     0.0000000000
   27      S       0.6933940000     0.5812090000     1.5075410000
   28      C       1.8975360000     1.5926070000     0.7188730000
   29      C       0.6933300000     0.5807910000    -1.0678720000
   30      C       1.7567580000     1.4761320000    -0.6864100000
   31      S       0.5085730000     0.4220410000    -2.8055160000
   32      C       1.8468790000     1.5522320000    -3.0545300000
   33      C       2.3878970000     2.0094020000    -1.8625510000
   34      F       3.4087410000     2.8722640000    -1.8190880000
   35      C       2.1913000000     1.8387680000    -4.4560840000
   36      O       1.6066940000     1.3378060000    -5.4065100000
   37      O       3.2210620000     2.7125840000    -4.5692250000
   38      C       3.6036770000     3.0268170000    -5.9162070000
   39      H       4.4426230000     3.7398980000    -5.8330640000
   40      H       2.7589560000     3.4838750000    -6.4701680000
   41      H       3.9219690000     2.1140700000    -6.4592930000
   42      H       2.6046500000     2.1877900000     1.3064860000
 ----------------------------------------------------------------

   10   -2754.2720686156      9.26e-07  Convergence criterion met
 Total energy in the final basis set =    -2754.2720686156
        RIMP2         total energy =     -2759.3327803031 a.u.

                    Orbital Energies (a.u.)
 --------------------------------------------------------------

 Alpha MOs
 -- Occupied --
-92.0153 -92.0055 -91.9840 -91.9832 -26.3454 -20.6156 -20.5909 -20.5881
-20.5621 -11.4105 -11.3854 -11.3291 -11.3170 -11.3147 -11.3123 -11.2988
-11.2951 -11.2894 -11.2887 -11.2860 -11.2843 -11.2817 -11.2808 -11.2794
-11.2762 -11.2578 -11.2542 -11.2481 -11.2433  -9.0144  -9.0053  -8.9841
 -8.9840  -6.6951  -6.6943  -6.6939  -6.6862  -6.6855  -6.6845  -6.6651
 -6.6649  -6.6644  -6.6643  -6.6635  -6.6635  -1.6625  -1.4681  -1.4149
 -1.4110  -1.3709  -1.2302  -1.1909  -1.1643  -1.1392  -1.0848  -1.0489
 -1.0447  -1.0262  -0.9977  -0.9871  -0.9646  -0.9582  -0.9487  -0.9397
 -0.8933  -0.8708  -0.8456  -0.8105  -0.7981  -0.7875  -0.7835  -0.7624
 -0.7559  -0.7313  -0.7273  -0.7126  -0.7003  -0.6862  -0.6822  -0.6803
 -0.6747  -0.6596  -0.6573  -0.6505  -0.6291  -0.6179  -0.6162  -0.6070
 -0.6008  -0.5834  -0.5743  -0.5701  -0.5651  -0.5610  -0.5558  -0.5455
 -0.5317  -0.5276  -0.5217  -0.5159  -0.5134  -0.5075  -0.5065  -0.4950
 -0.4866  -0.4829  -0.4762  -0.4740  -0.4679  -0.4634  -0.4577  -0.4159
 -0.3915  -0.3835  -0.3575  -0.3518  -0.3249  -0.2914  -0.2497

          Ground-State Mulliken Net Atomic Charges

     Atom                 Charge (a.u.)
  ----------------------------------------
      1 C                    -0.195673
      2 C                    -0.253745
      3 S                    -0.026782
      4 C                    -0.021153
      5 H                     0.195429
      6 C                    -0.024801
      7 C                     0.234368
      8 C                     0.245638
      9 C                    -0.043120
     10 C                    -0.024451
     11 O                    -0.333738
     12 O                    -0.341204
     13 C                    -0.085820
     14 H                     0.121808
     15 H                     0.090750
     16 H                     0.092589
     17 C                    -0.087107
     18 H                     0.125089
     19 H                     0.094711
     20 H                     0.089012
     21 C                    -0.254692
     22 S                    -0.045377
     23 C                     0.024244
     24 H                     0.198919
     25 H                     0.205076
     26 C                    -0.136676
     27 S                     0.126576
     28 C                    -0.148140
     29 C                     0.018298
     30 C                    -0.092317
     31 S                     0.054054
     32 C                    -0.154002
     33 C                     0.398865
     34 F                    -0.205646
     35 C                     0.446891
     36 O                    -0.461330
     37 O                    -0.301066
     38 C                    -0.058202
     39 H                     0.121504
     40 H                     0.095395
     41 H                     0.095257
     42 H                     0.220569
  ----------------------------------------
  Sum of atomic charges =     0.000000

                    Cartesian Multipole Moments
 -----------------------------------------------------------------
    Charge (ESU x 10^10)
                -0.0000
    Dipole Moment (Debye)
         X       3.0472      Y       1.9820      Z       2.9839
       Tot       4.7029
    Quadrupole Moments (Debye-Ang)
        XX    -175.8643     XY       8.1483     YY    -176.0318
        XZ     -17.1345     YZ      -5.8312     ZZ    -196.3215

 Total job time:  289.33s(wall), 8628.77s(cpu)
        *  Thank you very much for using Q-Chem.  Have a nice day.  *
