 Q-Chem 5.4, Q-Chem, Inc., Pleasanton, CA (2021)
 Q-Chem 5.4.0 for Intel X86 EM64T Linux

User input:
--------------------------------------------------------------
$molecule
0 1
C	0.095966	-8.517702	-0.306235
C	-0.082807	-7.641575	0.754415
S	0.348635	-7.638634	-1.833702
C	-0.017401	-6.264785	0.383675
H	-0.259008	-7.966081	1.787757
C	0.231913	-6.072714	-1.020885
C	0.305044	-4.787049	-1.579097
C	-0.196549	-5.162801	1.268082
C	-0.127606	-3.874817	0.708796
C	0.124792	-3.683952	-0.696769
O	-0.397867	-5.499772	2.572378
O	0.506103	-4.459055	-2.889532
C	1.267335	-5.329063	-3.718420
H	1.502804	-4.755694	-4.635204
H	0.697471	-6.238095	-4.010790
H	2.215194	-5.637262	-3.226506
C	-0.999238	-4.572261	3.467415
H	-1.230649	-5.139743	4.388648
H	-1.940905	-4.153131	3.052323
H	-0.311543	-3.739531	3.730819
C	0.187323	-2.306654	-1.064366
S	-0.257128	-2.306501	1.521154
C	-0.000000	-1.435185	-0.000000
H	0.365903	-1.978138	-2.095939
H	0.092855	-9.614033	-0.309131
C	0.000000	0.000000	0.000000
S	0.382799	0.819795	1.507541
C	1.046687	2.245325	0.718873
C	0.382918	0.819389	-1.067872
C	0.968323	2.080267	-0.686410
S	0.282561	0.597432	-2.805516
C	1.017839	2.187324	-3.054530
C	1.314960	2.830306	-1.862551
F	1.875498	4.043751	-1.819088
C	1.208895	2.592573	-4.456084
O	0.890778	1.891482	-5.406510
O	1.772886	3.819715	-4.569225
C	1.986852	4.266207	-5.916207
H	2.445834	5.267032	-5.833064
H	1.028114	4.323448	-6.470168
H	2.661066	3.573494	-6.459293
H	1.436015	3.083584	1.306486
$end

$rem
JOBTYPE		SP
EXCHANGE	HF
CORRELATION	pRIMP2
BASIS		cc-pvtz
METHOD		rimp2
AUX_BASIS	rimp2-cc-pvtz
SOLVENT_METHOD	PCM
PURECART	11111
SYMMETRY	false
MEM_TOTAL	110000
SCF_CONVERGENCE = 6
THRESH=10
GUI = 2
$end

$solvent
dielectric 4.90
$end
--------------------------------------------------------------

             Standard Nuclear Orientation (Angstroms)
    I     Atom           X                Y                Z
 ----------------------------------------------------------------
    1      C       0.0959660000    -8.5177020000    -0.3062350000
    2      C      -0.0828070000    -7.6415750000     0.7544150000
    3      S       0.3486350000    -7.6386340000    -1.8337020000
    4      C      -0.0174010000    -6.2647850000     0.3836750000
    5      H      -0.2590080000    -7.9660810000     1.7877570000
    6      C       0.2319130000    -6.0727140000    -1.0208850000
    7      C       0.3050440000    -4.7870490000    -1.5790970000
    8      C      -0.1965490000    -5.1628010000     1.2680820000
    9      C      -0.1276060000    -3.8748170000     0.7087960000
   10      C       0.1247920000    -3.6839520000    -0.6967690000
   11      O      -0.3978670000    -5.4997720000     2.5723780000
   12      O       0.5061030000    -4.4590550000    -2.8895320000
   13      C       1.2673350000    -5.3290630000    -3.7184200000
   14      H       1.5028040000    -4.7556940000    -4.6352040000
   15      H       0.6974710000    -6.2380950000    -4.0107900000
   16      H       2.2151940000    -5.6372620000    -3.2265060000
   17      C      -0.9992380000    -4.5722610000     3.4674150000
   18      H      -1.2306490000    -5.1397430000     4.3886480000
   19      H      -1.9409050000    -4.1531310000     3.0523230000
   20      H      -0.3115430000    -3.7395310000     3.7308190000
   21      C       0.1873230000    -2.3066540000    -1.0643660000
   22      S      -0.2571280000    -2.3065010000     1.5211540000
   23      C       0.0000000000    -1.4351850000     0.0000000000
   24      H       0.3659030000    -1.9781380000    -2.0959390000
   25      H       0.0928550000    -9.6140330000    -0.3091310000
   26      C       0.0000000000     0.0000000000     0.0000000000
   27      S       0.3827990000     0.8197950000     1.5075410000
   28      C       1.0466870000     2.2453250000     0.7188730000
   29      C       0.3829180000     0.8193890000    -1.0678720000
   30      C       0.9683230000     2.0802670000    -0.6864100000
   31      S       0.2825610000     0.5974320000    -2.8055160000
   32      C       1.0178390000     2.1873240000    -3.0545300000
   33      C       1.3149600000     2.8303060000    -1.8625510000
   34      F       1.8754980000     4.0437510000    -1.8190880000
   35      C       1.2088950000     2.5925730000    -4.4560840000
   36      O       0.8907780000     1.8914820000    -5.4065100000
   37      O       1.7728860000     3.8197150000    -4.5692250000
   38      C       1.9868520000     4.2662070000    -5.9162070000
   39      H       2.4458340000     5.2670320000    -5.8330640000
   40      H       1.0281140000     4.3234480000    -6.4701680000
   41      H       2.6610660000     3.5734940000    -6.4592930000
   42      H       1.4360150000     3.0835840000     1.3064860000
 ----------------------------------------------------------------

   10   -2754.3046240881      7.32e-07  Convergence criterion met
 Total energy in the final basis set =    -2754.3046240881
        RIMP2         total energy =     -2759.3603889882 a.u.

                    Orbital Energies (a.u.)
 --------------------------------------------------------------

 Alpha MOs
 -- Occupied --
-92.0162 -92.0019 -91.9895 -91.9856 -26.3443 -20.6151 -20.5926 -20.5900
-20.5617 -11.4099 -11.3840 -11.3194 -11.3158 -11.3152 -11.3037 -11.2983
-11.2979 -11.2969 -11.2890 -11.2875 -11.2869 -11.2854 -11.2849 -11.2836
-11.2784 -11.2612 -11.2573 -11.2518 -11.2494  -9.0151  -9.0018  -8.9903
 -8.9856  -6.6958  -6.6952  -6.6947  -6.6828  -6.6821  -6.6810  -6.6713
 -6.6706  -6.6696  -6.6665  -6.6659  -6.6651  -1.6613  -1.4676  -1.4166
 -1.4128  -1.3703  -1.2244  -1.1940  -1.1658  -1.1378  -1.0855  -1.0514
 -1.0431  -1.0248  -1.0009  -0.9884  -0.9645  -0.9597  -0.9501  -0.9397
 -0.8960  -0.8692  -0.8509  -0.8093  -0.7989  -0.7883  -0.7855  -0.7637
 -0.7557  -0.7337  -0.7261  -0.7110  -0.7016  -0.6861  -0.6831  -0.6814
 -0.6742  -0.6592  -0.6589  -0.6518  -0.6305  -0.6193  -0.6166  -0.6029
 -0.5994  -0.5825  -0.5802  -0.5712  -0.5647  -0.5610  -0.5570  -0.5482
 -0.5353  -0.5305  -0.5238  -0.5186  -0.5162  -0.5106  -0.5055  -0.4957
 -0.4871  -0.4817  -0.4773  -0.4744  -0.4697  -0.4645  -0.4593  -0.4270
 -0.3957  -0.3837  -0.3613  -0.3485  -0.3280  -0.2893  -0.2492

          Ground-State Mulliken Net Atomic Charges

     Atom                 Charge (a.u.)
  ----------------------------------------
      1 C                    -0.191782
      2 C                    -0.254016
      3 S                    -0.022927
      4 C                    -0.018914
      5 H                     0.195908
      6 C                    -0.026459
      7 C                     0.241288
      8 C                     0.244563
      9 C                    -0.041530
     10 C                    -0.020518
     11 O                    -0.333096
     12 O                    -0.340933
     13 C                    -0.086294
     14 H                     0.123298
     15 H                     0.091280
     16 H                     0.093436
     17 C                    -0.088428
     18 H                     0.126052
     19 H                     0.095083
     20 H                     0.089275
     21 C                    -0.238249
     22 S                    -0.041749
     23 C                    -0.009900
     24 H                     0.188198
     25 H                     0.205963
     26 C                     0.018587
     27 S                     0.097889
     28 C                    -0.190578
     29 C                    -0.023401
     30 C                    -0.101562
     31 S                     0.023660
     32 C                    -0.163409
     33 C                     0.407778
     34 F                    -0.205630
     35 C                     0.444781
     36 O                    -0.460869
     37 O                    -0.300971
     38 C                    -0.058431
     39 H                     0.121532
     40 H                     0.095298
     41 H                     0.095166
     42 H                     0.220610
  ----------------------------------------
  Sum of atomic charges =     0.000000

                    Cartesian Multipole Moments
 -----------------------------------------------------------------
    Charge (ESU x 10^10)
                -0.0000
    Dipole Moment (Debye)
         X       1.5467      Y       1.5297      Z       3.1085
       Tot       3.7941
    Quadrupole Moments (Debye-Ang)
        XX    -195.2418     XY       5.0449     YY    -164.2685
        XZ     -12.3070     YZ      -7.2015     ZZ    -184.7550

 Total job time:  309.30s(wall), 10255.46s(cpu)
        *  Thank you very much for using Q-Chem.  Have a nice day.  *
