 Q-Chem 5.4, Q-Chem, Inc., Pleasanton, CA (2021)
 Q-Chem 5.4.0 for Intel X86 EM64T Linux

User input:
--------------------------------------------------------------
$molecule
0 1
C	0.172904	-8.517702	0.270358
C	-0.524688	-7.641575	-0.548363
S	1.180599	-7.638634	1.445750
C	-0.282727	-6.264785	-0.259951
H	-1.203014	-7.966081	-1.347559
C	0.632972	-6.072714	0.833868
C	1.013580	-4.787049	1.248701
C	-0.845068	-5.162801	-0.965673
C	-0.460946	-3.874817	-0.553357
C	0.453541	-3.683952	0.543470
O	-1.714812	-5.499772	-1.958276
O	1.888193	-4.459055	2.245053
C	2.033848	-5.329063	3.360989
H	2.584788	-4.755694	4.130667
H	2.624118	-6.238095	3.112380
H	1.047748	-5.637262	3.770895
C	-2.013896	-4.572261	-2.994272
H	-2.570853	-5.139743	-3.763700
H	-1.090625	-4.153131	-3.448815
H	-2.657717	-3.739531	-2.636780
C	0.694943	-2.306654	0.827659
S	-0.999993	-2.306501	-1.174750
C	0.000000	-1.435185	0.000000
H	1.370385	-1.978138	1.627541
H	0.177122	-9.614033	0.269836
C	0.000000	0.000000	0.000000
S	0.693394	0.581209	1.507541
C	1.897536	1.592607	0.718873
C	0.693330	0.580791	-1.067872
C	1.756758	1.476132	-0.686410
S	0.508573	0.422041	-2.805516
C	1.846879	1.552232	-3.054530
C	2.387897	2.009402	-1.862551
F	3.408741	2.872264	-1.819088
C	2.191300	1.838768	-4.456084
O	1.606694	1.337806	-5.406510
O	3.221062	2.712584	-4.569225
C	3.603677	3.026817	-5.916207
H	4.442623	3.739898	-5.833064
H	2.758956	3.483875	-6.470168
H	3.921969	2.114070	-6.459293
H	2.604650	2.187790	1.306486
$end

$rem
JOBTYPE		SP
EXCHANGE	HF
CORRELATION	pRIMP2
BASIS		cc-pvtz
METHOD		rimp2
AUX_BASIS	rimp2-cc-pvtz
SOLVENT_METHOD	PCM
PURECART	11111
SYMMETRY	false
MEM_TOTAL	110000
SCF_CONVERGENCE = 6
THRESH=10
GUI = 2
$end

$solvent
dielectric 4.90
$end
--------------------------------------------------------------

             Standard Nuclear Orientation (Angstroms)
    I     Atom           X                Y                Z
 ----------------------------------------------------------------
    1      C       0.1729040000    -8.5177020000     0.2703580000
    2      C      -0.5246880000    -7.6415750000    -0.5483630000
    3      S       1.1805990000    -7.6386340000     1.4457500000
    4      C      -0.2827270000    -6.2647850000    -0.2599510000
    5      H      -1.2030140000    -7.9660810000    -1.3475590000
    6      C       0.6329720000    -6.0727140000     0.8338680000
    7      C       1.0135800000    -4.7870490000     1.2487010000
    8      C      -0.8450680000    -5.1628010000    -0.9656730000
    9      C      -0.4609460000    -3.8748170000    -0.5533570000
   10      C       0.4535410000    -3.6839520000     0.5434700000
   11      O      -1.7148120000    -5.4997720000    -1.9582760000
   12      O       1.8881930000    -4.4590550000     2.2450530000
   13      C       2.0338480000    -5.3290630000     3.3609890000
   14      H       2.5847880000    -4.7556940000     4.1306670000
   15      H       2.6241180000    -6.2380950000     3.1123800000
   16      H       1.0477480000    -5.6372620000     3.7708950000
   17      C      -2.0138960000    -4.5722610000    -2.9942720000
   18      H      -2.5708530000    -5.1397430000    -3.7637000000
   19      H      -1.0906250000    -4.1531310000    -3.4488150000
   20      H      -2.6577170000    -3.7395310000    -2.6367800000
   21      C       0.6949430000    -2.3066540000     0.8276590000
   22      S      -0.9999930000    -2.3065010000    -1.1747500000
   23      C       0.0000000000    -1.4351850000     0.0000000000
   24      H       1.3703850000    -1.9781380000     1.6275410000
   25      H       0.1771220000    -9.6140330000     0.2698360000
   26      C       0.0000000000     0.0000000000     0.0000000000
   27      S       0.6933940000     0.5812090000     1.5075410000
   28      C       1.8975360000     1.5926070000     0.7188730000
   29      C       0.6933300000     0.5807910000    -1.0678720000
   30      C       1.7567580000     1.4761320000    -0.6864100000
   31      S       0.5085730000     0.4220410000    -2.8055160000
   32      C       1.8468790000     1.5522320000    -3.0545300000
   33      C       2.3878970000     2.0094020000    -1.8625510000
   34      F       3.4087410000     2.8722640000    -1.8190880000
   35      C       2.1913000000     1.8387680000    -4.4560840000
   36      O       1.6066940000     1.3378060000    -5.4065100000
   37      O       3.2210620000     2.7125840000    -4.5692250000
   38      C       3.6036770000     3.0268170000    -5.9162070000
   39      H       4.4426230000     3.7398980000    -5.8330640000
   40      H       2.7589560000     3.4838750000    -6.4701680000
   41      H       3.9219690000     2.1140700000    -6.4592930000
   42      H       2.6046500000     2.1877900000     1.3064860000
 ----------------------------------------------------------------

   10   -2754.2720715817      8.19e-07  Convergence criterion met
 Total energy in the final basis set =    -2754.2720715817
        RIMP2         total energy =     -2759.3327717811 a.u.

                    Orbital Energies (a.u.)
 --------------------------------------------------------------

 Alpha MOs
 -- Occupied --
-92.0143 -92.0069 -91.9849 -91.9837 -26.3457 -20.6154 -20.5907 -20.5880
-20.5617 -11.4103 -11.3859 -11.3290 -11.3180 -11.3172 -11.3113 -11.2979
-11.2979 -11.2893 -11.2881 -11.2856 -11.2846 -11.2815 -11.2812 -11.2803
-11.2755 -11.2577 -11.2532 -11.2479 -11.2415  -9.0135  -9.0067  -8.9857
 -8.9836  -6.6942  -6.6934  -6.6931  -6.6876  -6.6868  -6.6858  -6.6666
 -6.6659  -6.6650  -6.6646  -6.6640  -6.6631  -1.6627  -1.4679  -1.4147
 -1.4109  -1.3706  -1.2308  -1.1909  -1.1646  -1.1392  -1.0849  -1.0485
 -1.0447  -1.0268  -0.9979  -0.9871  -0.9656  -0.9567  -0.9481  -0.9410
 -0.8926  -0.8711  -0.8452  -0.8174  -0.7937  -0.7846  -0.7843  -0.7632
 -0.7557  -0.7306  -0.7274  -0.7124  -0.6983  -0.6862  -0.6829  -0.6801
 -0.6745  -0.6597  -0.6570  -0.6505  -0.6293  -0.6177  -0.6149  -0.6054
 -0.6020  -0.5899  -0.5767  -0.5669  -0.5655  -0.5652  -0.5532  -0.5484
 -0.5318  -0.5246  -0.5211  -0.5156  -0.5129  -0.5115  -0.5039  -0.4926
 -0.4878  -0.4814  -0.4759  -0.4734  -0.4676  -0.4621  -0.4568  -0.4200
 -0.3895  -0.3845  -0.3622  -0.3467  -0.3217  -0.2952  -0.2496

          Ground-State Mulliken Net Atomic Charges

     Atom                 Charge (a.u.)
  ----------------------------------------
      1 C                    -0.197368
      2 C                    -0.252948
      3 S                    -0.027830
      4 C                    -0.022012
      5 H                     0.195475
      6 C                    -0.023874
      7 C                     0.228931
      8 C                     0.245309
      9 C                    -0.041058
     10 C                    -0.010346
     11 O                    -0.333408
     12 O                    -0.342302
     13 C                    -0.085700
     14 H                     0.120949
     15 H                     0.090652
     16 H                     0.092833
     17 C                    -0.087649
     18 H                     0.124650
     19 H                     0.095077
     20 H                     0.089585
     21 C                    -0.292010
     22 S                    -0.031979
     23 C                     0.011008
     24 H                     0.192187
     25 H                     0.204812
     26 C                    -0.104923
     27 S                     0.101875
     28 C                    -0.136026
     29 C                     0.071352
     30 C                    -0.114789
     31 S                     0.045633
     32 C                    -0.156297
     33 C                     0.395399
     34 F                    -0.204492
     35 C                     0.448096
     36 O                    -0.462167
     37 O                    -0.301296
     38 C                    -0.058283
     39 H                     0.121475
     40 H                     0.095159
     41 H                     0.095317
     42 H                     0.220982
  ----------------------------------------
  Sum of atomic charges =     0.000000

                    Cartesian Multipole Moments
 -----------------------------------------------------------------
    Charge (ESU x 10^10)
                -0.0000
    Dipole Moment (Debye)
         X       2.5714      Y       2.1687      Z       2.4495
       Tot       4.1612
    Quadrupole Moments (Debye-Ang)
        XX    -187.0527     XY      10.5340     YY    -177.4643
        XZ       4.1865     YZ      -4.5764     ZZ    -185.2422

 Total job time:  299.31s(wall), 9264.16s(cpu)
        *  Thank you very much for using Q-Chem.  Have a nice day.  *
