 Q-Chem 5.4, Q-Chem, Inc., Pleasanton, CA (2021)
 Q-Chem 5.4.0 for Intel X86 EM64T Linux

User input:
--------------------------------------------------------------
$molecule
0 1
C	0.270358	-8.517702	-0.172904
C	-0.548363	-7.641575	0.524688
S	1.445750	-7.638634	-1.180599
C	-0.259951	-6.264785	0.282727
H	-1.347559	-7.966081	1.203014
C	0.833868	-6.072714	-0.632972
C	1.248701	-4.787049	-1.013580
C	-0.965673	-5.162801	0.845068
C	-0.553357	-3.874817	0.460946
C	0.543470	-3.683952	-0.453541
O	-1.958276	-5.499772	1.714812
O	2.245053	-4.459055	-1.888193
C	3.360989	-5.329063	-2.033848
H	4.130667	-4.755694	-2.584788
H	3.112380	-6.238095	-2.624118
H	3.770895	-5.637262	-1.047748
C	-2.994272	-4.572261	2.013896
H	-3.763700	-5.139743	2.570853
H	-3.448815	-4.153131	1.090625
H	-2.636780	-3.739531	2.657717
C	0.827659	-2.306654	-0.694943
S	-1.174750	-2.306501	0.999993
C	-0.000000	-1.435185	-0.000000
H	1.627541	-1.978138	-1.370385
H	0.269836	-9.614033	-0.177122
C	0.000000	0.000000	0.000000
S	0.382799	0.819795	1.507541
C	1.046687	2.245325	0.718873
C	0.382918	0.819389	-1.067872
C	0.968323	2.080267	-0.686410
S	0.282561	0.597432	-2.805516
C	1.017839	2.187324	-3.054530
C	1.314960	2.830306	-1.862551
F	1.875498	4.043751	-1.819088
C	1.208895	2.592573	-4.456084
O	0.890778	1.891482	-5.406510
O	1.772886	3.819715	-4.569225
C	1.986852	4.266207	-5.916207
H	2.445834	5.267032	-5.833064
H	1.028114	4.323448	-6.470168
H	2.661066	3.573494	-6.459293
H	1.436015	3.083584	1.306486
$end

$rem
JOBTYPE		SP
EXCHANGE	HF
CORRELATION	pRIMP2
BASIS		cc-pvtz
METHOD		rimp2
AUX_BASIS	rimp2-cc-pvtz
SOLVENT_METHOD	PCM
PURECART	11111
SYMMETRY	false
MEM_TOTAL	110000
SCF_CONVERGENCE = 6
THRESH=10
GUI = 2
$end

$solvent
dielectric 4.90
$end
--------------------------------------------------------------

             Standard Nuclear Orientation (Angstroms)
    I     Atom           X                Y                Z
 ----------------------------------------------------------------
    1      C       0.2703580000    -8.5177020000    -0.1729040000
    2      C      -0.5483630000    -7.6415750000     0.5246880000
    3      S       1.4457500000    -7.6386340000    -1.1805990000
    4      C      -0.2599510000    -6.2647850000     0.2827270000
    5      H      -1.3475590000    -7.9660810000     1.2030140000
    6      C       0.8338680000    -6.0727140000    -0.6329720000
    7      C       1.2487010000    -4.7870490000    -1.0135800000
    8      C      -0.9656730000    -5.1628010000     0.8450680000
    9      C      -0.5533570000    -3.8748170000     0.4609460000
   10      C       0.5434700000    -3.6839520000    -0.4535410000
   11      O      -1.9582760000    -5.4997720000     1.7148120000
   12      O       2.2450530000    -4.4590550000    -1.8881930000
   13      C       3.3609890000    -5.3290630000    -2.0338480000
   14      H       4.1306670000    -4.7556940000    -2.5847880000
   15      H       3.1123800000    -6.2380950000    -2.6241180000
   16      H       3.7708950000    -5.6372620000    -1.0477480000
   17      C      -2.9942720000    -4.5722610000     2.0138960000
   18      H      -3.7637000000    -5.1397430000     2.5708530000
   19      H      -3.4488150000    -4.1531310000     1.0906250000
   20      H      -2.6367800000    -3.7395310000     2.6577170000
   21      C       0.8276590000    -2.3066540000    -0.6949430000
   22      S      -1.1747500000    -2.3065010000     0.9999930000
   23      C       0.0000000000    -1.4351850000     0.0000000000
   24      H       1.6275410000    -1.9781380000    -1.3703850000
   25      H       0.2698360000    -9.6140330000    -0.1771220000
   26      C       0.0000000000     0.0000000000     0.0000000000
   27      S       0.3827990000     0.8197950000     1.5075410000
   28      C       1.0466870000     2.2453250000     0.7188730000
   29      C       0.3829180000     0.8193890000    -1.0678720000
   30      C       0.9683230000     2.0802670000    -0.6864100000
   31      S       0.2825610000     0.5974320000    -2.8055160000
   32      C       1.0178390000     2.1873240000    -3.0545300000
   33      C       1.3149600000     2.8303060000    -1.8625510000
   34      F       1.8754980000     4.0437510000    -1.8190880000
   35      C       1.2088950000     2.5925730000    -4.4560840000
   36      O       0.8907780000     1.8914820000    -5.4065100000
   37      O       1.7728860000     3.8197150000    -4.5692250000
   38      C       1.9868520000     4.2662070000    -5.9162070000
   39      H       2.4458340000     5.2670320000    -5.8330640000
   40      H       1.0281140000     4.3234480000    -6.4701680000
   41      H       2.6610660000     3.5734940000    -6.4592930000
   42      H       1.4360150000     3.0835840000     1.3064860000
 ----------------------------------------------------------------

   10   -2754.3056794101      7.52e-07  Convergence criterion met
 Total energy in the final basis set =    -2754.3056794101
        RIMP2         total energy =     -2759.3586192266 a.u.

                    Orbital Energies (a.u.)
 --------------------------------------------------------------

 Alpha MOs
 -- Occupied --
-92.0146 -91.9987 -91.9879 -91.9859 -26.3432 -20.6146 -20.5922 -20.5907
-20.5610 -11.4091 -11.3822 -11.3189 -11.3170 -11.3135 -11.3031 -11.2971
-11.2944 -11.2934 -11.2887 -11.2870 -11.2856 -11.2852 -11.2851 -11.2836
-11.2792 -11.2605 -11.2581 -11.2546 -11.2496  -9.0133  -8.9986  -8.9885
 -8.9859  -6.6940  -6.6934  -6.6929  -6.6796  -6.6789  -6.6778  -6.6695
 -6.6688  -6.6679  -6.6668  -6.6662  -6.6653  -1.6603  -1.4671  -1.4163
 -1.4135  -1.3697  -1.2223  -1.1938  -1.1651  -1.1362  -1.0845  -1.0514
 -1.0418  -1.0229  -1.0007  -0.9875  -0.9627  -0.9598  -0.9500  -0.9391
 -0.8953  -0.8677  -0.8500  -0.8082  -0.7973  -0.7875  -0.7861  -0.7640
 -0.7551  -0.7334  -0.7252  -0.7097  -0.7014  -0.6850  -0.6825  -0.6805
 -0.6737  -0.6589  -0.6577  -0.6522  -0.6299  -0.6196  -0.6168  -0.6048
 -0.5981  -0.5832  -0.5768  -0.5707  -0.5656  -0.5615  -0.5542  -0.5498
 -0.5316  -0.5302  -0.5239  -0.5158  -0.5151  -0.5077  -0.5058  -0.4955
 -0.4879  -0.4805  -0.4755  -0.4734  -0.4686  -0.4667  -0.4601  -0.4145
 -0.3948  -0.3858  -0.3578  -0.3503  -0.3223  -0.2922  -0.2540

          Ground-State Mulliken Net Atomic Charges

     Atom                 Charge (a.u.)
  ----------------------------------------
      1 C                    -0.189826
      2 C                    -0.253941
      3 S                    -0.022402
      4 C                    -0.017107
      5 H                     0.196163
      6 C                    -0.028481
      7 C                     0.240105
      8 C                     0.244942
      9 C                    -0.047022
     10 C                    -0.020534
     11 O                    -0.333457
     12 O                    -0.339545
     13 C                    -0.085867
     14 H                     0.122675
     15 H                     0.091215
     16 H                     0.093474
     17 C                    -0.087015
     18 H                     0.125173
     19 H                     0.094965
     20 H                     0.089194
     21 C                    -0.225578
     22 S                    -0.018139
     23 C                    -0.005529
     24 H                     0.202623
     25 H                     0.206174
     26 C                    -0.038073
     27 S                     0.112310
     28 C                    -0.186037
     29 C                    -0.049710
     30 C                    -0.084351
     31 S                     0.025074
     32 C                    -0.154680
     33 C                     0.396050
     34 F                    -0.206994
     35 C                     0.444936
     36 O                    -0.461050
     37 O                    -0.300900
     38 C                    -0.058438
     39 H                     0.121313
     40 H                     0.095215
     41 H                     0.095027
     42 H                     0.218048
  ----------------------------------------
  Sum of atomic charges =     0.000000

                    Cartesian Multipole Moments
 -----------------------------------------------------------------
    Charge (ESU x 10^10)
                 0.0000
    Dipole Moment (Debye)
         X       1.3974      Y       1.1392      Z       3.1540
       Tot       3.6329
    Quadrupole Moments (Debye-Ang)
        XX    -179.1369     XY       5.1037     YY    -163.4809
        XZ     -13.1006     YZ      -7.4819     ZZ    -201.3470

 Total job time:  304.26s(wall), 10070.17s(cpu)
        *  Thank you very much for using Q-Chem.  Have a nice day.  *
