 Q-Chem 5.4, Q-Chem, Inc., Pleasanton, CA (2021)
 Q-Chem 5.4.0 for Intel X86 EM64T Linux

User input:
--------------------------------------------------------------
$molecule
0 1
C	0.318247	-8.517702	0.041330
C	-0.757333	-7.641575	0.049453
S	1.866383	-7.638634	0.024919
C	-0.380867	-6.264785	0.049488
H	-1.805573	-7.966081	0.055368
C	1.045647	-6.072714	0.051115
C	1.608077	-4.787049	0.026203
C	-1.282948	-5.162801	0.026637
C	-0.720187	-3.874817	-0.002586
C	0.707853	-3.683952	0.001903
O	-2.602386	-5.499772	0.054867
O	2.933517	-4.459055	-0.003348
C	3.881999	-5.329063	0.602384
H	4.825744	-4.755694	0.675079
H	4.070972	-6.238095	-0.009592
H	3.562152	-5.637262	1.621263
C	-3.588253	-4.572261	-0.381947
H	-4.535674	-5.139743	-0.449872
H	-3.342986	-4.153131	-1.381388
H	-3.728239	-3.739531	0.341040
C	1.080725	-2.306654	-0.000348
S	-1.542694	-2.306501	0.010924
C	-0.000000	-1.435185	-0.000000
H	2.127635	-1.978138	-0.003612
H	0.320559	-9.614033	0.037764
C	0.000000	0.000000	0.000000
S	0.382799	0.819795	1.507541
C	1.046687	2.245325	0.718873
C	0.382918	0.819389	-1.067872
C	0.968323	2.080267	-0.686410
S	0.282561	0.597432	-2.805516
C	1.017839	2.187324	-3.054530
C	1.314960	2.830306	-1.862551
F	1.875498	4.043751	-1.819088
C	1.208895	2.592573	-4.456084
O	0.890778	1.891482	-5.406510
O	1.772886	3.819715	-4.569225
C	1.986852	4.266207	-5.916207
H	2.445834	5.267032	-5.833064
H	1.028114	4.323448	-6.470168
H	2.661066	3.573494	-6.459293
H	1.436015	3.083584	1.306486
$end

$rem
JOBTYPE		SP
EXCHANGE	HF
CORRELATION	pRIMP2
BASIS		cc-pvtz
METHOD		rimp2
AUX_BASIS	rimp2-cc-pvtz
SOLVENT_METHOD	PCM
PURECART	11111
SYMMETRY	false
MEM_TOTAL	110000
SCF_CONVERGENCE = 6
THRESH=10
GUI = 2
$end

$solvent
dielectric 4.90
$end
--------------------------------------------------------------

             Standard Nuclear Orientation (Angstroms)
    I     Atom           X                Y                Z
 ----------------------------------------------------------------
    1      C       0.3182470000    -8.5177020000     0.0413300000
    2      C      -0.7573330000    -7.6415750000     0.0494530000
    3      S       1.8663830000    -7.6386340000     0.0249190000
    4      C      -0.3808670000    -6.2647850000     0.0494880000
    5      H      -1.8055730000    -7.9660810000     0.0553680000
    6      C       1.0456470000    -6.0727140000     0.0511150000
    7      C       1.6080770000    -4.7870490000     0.0262030000
    8      C      -1.2829480000    -5.1628010000     0.0266370000
    9      C      -0.7201870000    -3.8748170000    -0.0025860000
   10      C       0.7078530000    -3.6839520000     0.0019030000
   11      O      -2.6023860000    -5.4997720000     0.0548670000
   12      O       2.9335170000    -4.4590550000    -0.0033480000
   13      C       3.8819990000    -5.3290630000     0.6023840000
   14      H       4.8257440000    -4.7556940000     0.6750790000
   15      H       4.0709720000    -6.2380950000    -0.0095920000
   16      H       3.5621520000    -5.6372620000     1.6212630000
   17      C      -3.5882530000    -4.5722610000    -0.3819470000
   18      H      -4.5356740000    -5.1397430000    -0.4498720000
   19      H      -3.3429860000    -4.1531310000    -1.3813880000
   20      H      -3.7282390000    -3.7395310000     0.3410400000
   21      C       1.0807250000    -2.3066540000    -0.0003480000
   22      S      -1.5426940000    -2.3065010000     0.0109240000
   23      C       0.0000000000    -1.4351850000     0.0000000000
   24      H       2.1276350000    -1.9781380000    -0.0036120000
   25      H       0.3205590000    -9.6140330000     0.0377640000
   26      C       0.0000000000     0.0000000000     0.0000000000
   27      S       0.3827990000     0.8197950000     1.5075410000
   28      C       1.0466870000     2.2453250000     0.7188730000
   29      C       0.3829180000     0.8193890000    -1.0678720000
   30      C       0.9683230000     2.0802670000    -0.6864100000
   31      S       0.2825610000     0.5974320000    -2.8055160000
   32      C       1.0178390000     2.1873240000    -3.0545300000
   33      C       1.3149600000     2.8303060000    -1.8625510000
   34      F       1.8754980000     4.0437510000    -1.8190880000
   35      C       1.2088950000     2.5925730000    -4.4560840000
   36      O       0.8907780000     1.8914820000    -5.4065100000
   37      O       1.7728860000     3.8197150000    -4.5692250000
   38      C       1.9868520000     4.2662070000    -5.9162070000
   39      H       2.4458340000     5.2670320000    -5.8330640000
   40      H       1.0281140000     4.3234480000    -6.4701680000
   41      H       2.6610660000     3.5734940000    -6.4592930000
   42      H       1.4360150000     3.0835840000     1.3064860000
 ----------------------------------------------------------------

   10   -2754.3028877686      7.69e-07  Convergence criterion met
 Total energy in the final basis set =    -2754.3028877686
        RIMP2         total energy =     -2759.3550278834 a.u.

                    Orbital Energies (a.u.)
 --------------------------------------------------------------

 Alpha MOs
 -- Occupied --
-92.0141 -91.9983 -91.9865 -91.9859 -26.3431 -20.6142 -20.5918 -20.5911
-20.5605 -11.4087 -11.3822 -11.3184 -11.3174 -11.3132 -11.3036 -11.2963
-11.2914 -11.2905 -11.2885 -11.2865 -11.2860 -11.2847 -11.2838 -11.2834
-11.2795 -11.2599 -11.2583 -11.2562 -11.2496  -9.0126  -8.9983  -8.9869
 -8.9859  -6.6933  -6.6927  -6.6922  -6.6793  -6.6786  -6.6775  -6.6679
 -6.6672  -6.6669  -6.6663  -6.6662  -6.6654  -1.6602  -1.4667  -1.4159
 -1.4139  -1.3693  -1.2213  -1.1934  -1.1646  -1.1354  -1.0838  -1.0512
 -1.0412  -1.0221  -1.0005  -0.9872  -0.9614  -0.9601  -0.9498  -0.9388
 -0.8948  -0.8671  -0.8493  -0.8099  -0.7934  -0.7885  -0.7858  -0.7643
 -0.7549  -0.7331  -0.7250  -0.7094  -0.7004  -0.6846  -0.6826  -0.6802
 -0.6734  -0.6588  -0.6570  -0.6523  -0.6296  -0.6197  -0.6166  -0.6051
 -0.5975  -0.5857  -0.5754  -0.5701  -0.5665  -0.5618  -0.5530  -0.5526
 -0.5305  -0.5278  -0.5229  -0.5158  -0.5142  -0.5087  -0.5036  -0.4939
 -0.4890  -0.4798  -0.4746  -0.4730  -0.4693  -0.4650  -0.4604  -0.4037
 -0.3972  -0.3866  -0.3585  -0.3463  -0.3129  -0.3007  -0.2580

          Ground-State Mulliken Net Atomic Charges

     Atom                 Charge (a.u.)
  ----------------------------------------
      1 C                    -0.188903
      2 C                    -0.254344
      3 S                    -0.023082
      4 C                    -0.015803
      5 H                     0.196371
      6 C                    -0.029286
      7 C                     0.241163
      8 C                     0.244078
      9 C                    -0.052888
     10 C                    -0.018931
     11 O                    -0.333591
     12 O                    -0.340031
     13 C                    -0.085655
     14 H                     0.122408
     15 H                     0.091134
     16 H                     0.093645
     17 C                    -0.086056
     18 H                     0.124430
     19 H                     0.094790
     20 H                     0.089446
     21 C                    -0.200755
     22 S                     0.000406
     23 C                    -0.040268
     24 H                     0.198821
     25 H                     0.206258
     26 C                    -0.062190
     27 S                     0.110940
     28 C                    -0.180721
     29 C                    -0.012812
     30 C                    -0.088558
     31 S                     0.016546
     32 C                    -0.155159
     33 C                     0.390482
     34 F                    -0.206479
     35 C                     0.446816
     36 O                    -0.461578
     37 O                    -0.301008
     38 C                    -0.058447
     39 H                     0.121173
     40 H                     0.095054
     41 H                     0.095018
     42 H                     0.217566
  ----------------------------------------
  Sum of atomic charges =     0.000000

                    Cartesian Multipole Moments
 -----------------------------------------------------------------
    Charge (ESU x 10^10)
                -0.0000
    Dipole Moment (Debye)
         X       1.2420      Y       1.0880      Z       3.2290
       Tot       3.6267
    Quadrupole Moments (Debye-Ang)
        XX    -175.5637     XY       5.7849     YY    -163.5964
        XZ       2.7066     YZ      -7.9580     ZZ    -205.1401

 Total job time:  304.73s(wall), 9862.92s(cpu)
        *  Thank you very much for using Q-Chem.  Have a nice day.  *
