 Q-Chem 5.4, Q-Chem, Inc., Pleasanton, CA (2021)
 Q-Chem 5.4.0 for Intel X86 EM64T Linux

User input:
--------------------------------------------------------------
$molecule
0 1
C	-0.296276	-8.517702	0.123330
C	0.631143	-7.641575	-0.421494
S	-1.628795	-7.638634	0.911611
C	0.305097	-6.264785	-0.233291
H	1.535988	-7.966081	-0.950737
C	-0.931114	-6.072714	0.478557
C	-1.405737	-4.787049	0.781346
C	1.097747	-5.162801	-0.664542
C	0.624993	-3.874817	-0.357854
C	-0.613970	-3.683952	0.352278
O	2.226300	-5.499772	-1.348709
O	-2.538827	-4.459055	1.469658
C	-3.663102	-5.329063	1.419319
H	-4.516756	-4.755694	1.828237
H	-3.520769	-6.238095	2.043793
H	-3.895546	-5.637262	0.377021
C	3.298492	-4.572261	-1.463351
H	4.152945	-5.139743	-1.878237
H	3.585804	-4.153131	-0.475176
H	3.058230	-3.739531	-2.159469
C	-0.935761	-2.306654	0.540664
S	1.330550	-2.306501	-0.780808
C	-0.000000	-1.435185	-0.000000
H	-1.840780	-1.978138	1.066946
H	-0.296494	-9.614033	0.127575
C	0.000000	0.000000	0.000000
S	0.157577	0.890937	1.507541
C	0.429889	2.439720	0.718873
C	0.157797	0.890576	-1.067872
C	0.396915	2.260004	-0.686410
S	0.118307	0.650207	-2.805516
C	0.417036	2.376229	-3.054530
C	0.537616	3.074202	-1.862551
F	0.764992	4.391378	-1.819088
C	0.496696	2.817118	-4.456084
O	0.370874	2.057582	-5.406510
O	0.723861	4.148418	-4.569225
C	0.814976	4.635075	-5.916207
H	0.999286	5.720591	-5.833064
H	-0.125909	4.442226	-6.470168
H	1.645504	4.140465	-6.459293
H	0.588993	3.350182	1.306486
$end

$rem
JOBTYPE		SP
EXCHANGE	HF
CORRELATION	pRIMP2
BASIS		cc-pvtz
METHOD		rimp2
AUX_BASIS	rimp2-cc-pvtz
SOLVENT_METHOD	PCM
PURECART	11111
SYMMETRY	false
MEM_TOTAL	110000
SCF_CONVERGENCE = 6
THRESH=10
GUI = 2
$end

$solvent
dielectric 4.90
$end
--------------------------------------------------------------

             Standard Nuclear Orientation (Angstroms)
    I     Atom           X                Y                Z
 ----------------------------------------------------------------
    1      C      -0.2962760000    -8.5177020000     0.1233300000
    2      C       0.6311430000    -7.6415750000    -0.4214940000
    3      S      -1.6287950000    -7.6386340000     0.9116110000
    4      C       0.3050970000    -6.2647850000    -0.2332910000
    5      H       1.5359880000    -7.9660810000    -0.9507370000
    6      C      -0.9311140000    -6.0727140000     0.4785570000
    7      C      -1.4057370000    -4.7870490000     0.7813460000
    8      C       1.0977470000    -5.1628010000    -0.6645420000
    9      C       0.6249930000    -3.8748170000    -0.3578540000
   10      C      -0.6139700000    -3.6839520000     0.3522780000
   11      O       2.2263000000    -5.4997720000    -1.3487090000
   12      O      -2.5388270000    -4.4590550000     1.4696580000
   13      C      -3.6631020000    -5.3290630000     1.4193190000
   14      H      -4.5167560000    -4.7556940000     1.8282370000
   15      H      -3.5207690000    -6.2380950000     2.0437930000
   16      H      -3.8955460000    -5.6372620000     0.3770210000
   17      C       3.2984920000    -4.5722610000    -1.4633510000
   18      H       4.1529450000    -5.1397430000    -1.8782370000
   19      H       3.5858040000    -4.1531310000    -0.4751760000
   20      H       3.0582300000    -3.7395310000    -2.1594690000
   21      C      -0.9357610000    -2.3066540000     0.5406640000
   22      S       1.3305500000    -2.3065010000    -0.7808080000
   23      C       0.0000000000    -1.4351850000     0.0000000000
   24      H      -1.8407800000    -1.9781380000     1.0669460000
   25      H      -0.2964940000    -9.6140330000     0.1275750000
   26      C       0.0000000000     0.0000000000     0.0000000000
   27      S       0.1575770000     0.8909370000     1.5075410000
   28      C       0.4298890000     2.4397200000     0.7188730000
   29      C       0.1577970000     0.8905760000    -1.0678720000
   30      C       0.3969150000     2.2600040000    -0.6864100000
   31      S       0.1183070000     0.6502070000    -2.8055160000
   32      C       0.4170360000     2.3762290000    -3.0545300000
   33      C       0.5376160000     3.0742020000    -1.8625510000
   34      F       0.7649920000     4.3913780000    -1.8190880000
   35      C       0.4966960000     2.8171180000    -4.4560840000
   36      O       0.3708740000     2.0575820000    -5.4065100000
   37      O       0.7238610000     4.1484180000    -4.5692250000
   38      C       0.8149760000     4.6350750000    -5.9162070000
   39      H       0.9992860000     5.7205910000    -5.8330640000
   40      H      -0.1259090000     4.4422260000    -6.4701680000
   41      H       1.6455040000     4.1404650000    -6.4592930000
   42      H       0.5889930000     3.3501820000     1.3064860000
 ----------------------------------------------------------------

   10   -2754.3139554596      7.13e-07  Convergence criterion met
 Total energy in the final basis set =    -2754.3139554596
        RIMP2         total energy =     -2759.3644643085 a.u.

                    Orbital Energies (a.u.)
 --------------------------------------------------------------

 Alpha MOs
 -- Occupied --
-92.0151 -91.9969 -91.9896 -91.9866 -26.3426 -20.6143 -20.5923 -20.5918
-20.5606 -11.4087 -11.3814 -11.3193 -11.3183 -11.3087 -11.2998 -11.2974
-11.2966 -11.2929 -11.2885 -11.2869 -11.2863 -11.2863 -11.2841 -11.2840
-11.2801 -11.2608 -11.2593 -11.2574 -11.2501  -9.0134  -8.9970  -8.9899
 -8.9865  -6.6941  -6.6935  -6.6930  -6.6780  -6.6773  -6.6761  -6.6709
 -6.6702  -6.6692  -6.6675  -6.6668  -6.6660  -1.6597  -1.4667  -1.4165
 -1.4146  -1.3694  -1.2204  -1.1945  -1.1654  -1.1352  -1.0847  -1.0521
 -1.0406  -1.0222  -1.0019  -0.9878  -0.9628  -0.9592  -0.9502  -0.9390
 -0.8959  -0.8668  -0.8514  -0.8116  -0.7916  -0.7881  -0.7867  -0.7652
 -0.7549  -0.7340  -0.7246  -0.7093  -0.6997  -0.6848  -0.6834  -0.6805
 -0.6734  -0.6592  -0.6573  -0.6528  -0.6305  -0.6202  -0.6171  -0.6046
 -0.5970  -0.5847  -0.5777  -0.5694  -0.5663  -0.5596  -0.5562  -0.5516
 -0.5320  -0.5302  -0.5242  -0.5163  -0.5151  -0.5081  -0.5057  -0.4961
 -0.4891  -0.4793  -0.4754  -0.4730  -0.4696  -0.4657  -0.4603  -0.4111
 -0.3983  -0.3856  -0.3571  -0.3491  -0.3208  -0.2924  -0.2573

          Ground-State Mulliken Net Atomic Charges

     Atom                 Charge (a.u.)
  ----------------------------------------
      1 C                    -0.187805
      2 C                    -0.254082
      3 S                    -0.022290
      4 C                    -0.014023
      5 H                     0.196505
      6 C                    -0.026773
      7 C                     0.243850
      8 C                     0.238845
      9 C                    -0.041239
     10 C                    -0.021722
     11 O                    -0.333184
     12 O                    -0.340015
     13 C                    -0.085695
     14 H                     0.122602
     15 H                     0.091025
     16 H                     0.094404
     17 C                    -0.086932
     18 H                     0.125026
     19 H                     0.094458
     20 H                     0.090670
     21 C                    -0.240828
     22 S                    -0.004092
     23 C                    -0.038362
     24 H                     0.197372
     25 H                     0.206531
     26 C                     0.009067
     27 S                     0.109004
     28 C                    -0.190341
     29 C                    -0.032363
     30 C                    -0.098228
     31 S                     0.013548
     32 C                    -0.153867
     33 C                     0.392733
     34 F                    -0.207210
     35 C                     0.445087
     36 O                    -0.461063
     37 O                    -0.300678
     38 C                    -0.058587
     39 H                     0.121226
     40 H                     0.095104
     41 H                     0.094958
     42 H                     0.217365
  ----------------------------------------
  Sum of atomic charges =     0.000000

                    Cartesian Multipole Moments
 -----------------------------------------------------------------
    Charge (ESU x 10^10)
                -0.0000
    Dipole Moment (Debye)
         X       0.4468      Y       0.8458      Z       2.7700
       Tot       2.9305
    Quadrupole Moments (Debye-Ang)
        XX    -178.4125     XY       3.6779     YY    -159.7780
        XZ      -8.2163     YZ      -6.1109     ZZ    -204.5759

 Total job time:  277.62s(wall), 9015.36s(cpu)
        *  Thank you very much for using Q-Chem.  Have a nice day.  *
