 Q-Chem 5.4, Q-Chem, Inc., Pleasanton, CA (2021)
 Q-Chem 5.4.0 for Intel X86 EM64T Linux

User input:
--------------------------------------------------------------
$molecule
0 1
C	0.313191	-8.517702	-0.070009
C	-0.694746	-7.641575	0.305494
S	1.762350	-7.638634	-0.614924
C	-0.340973	-6.264785	0.176768
H	-1.677747	-7.966081	0.669571
C	1.000069	-6.072714	-0.309600
C	1.520060	-4.787049	-0.525372
C	-1.196466	-5.162801	0.463825
C	-0.677639	-3.874817	0.243888
C	0.665815	-3.683952	-0.240312
O	-2.426678	-5.499772	0.941626
O	2.755460	-4.459055	-1.006468
C	3.853913	-5.329063	-0.761666
H	4.765607	-4.755694	-1.016135
H	3.822182	-6.238095	-1.401368
H	3.901833	-5.637262	0.305161
C	-3.502489	-4.572261	0.868342
H	-4.416005	-5.139743	1.128551
H	-3.613841	-4.153131	-0.154712
H	-3.386756	-3.739531	1.595605
C	1.015430	-2.306654	-0.369957
S	-1.445922	-2.306501	0.537898
C	0.000000	-1.435185	0.000000
H	1.998088	-1.978138	-0.731088
H	0.314143	-9.614033	-0.074151
C	0.000000	0.000000	0.000000
S	0.693394	0.581209	1.507541
C	1.897536	1.592607	0.718873
C	0.693330	0.580791	-1.067872
C	1.756758	1.476132	-0.686410
S	0.508573	0.422041	-2.805516
C	1.846879	1.552232	-3.054530
C	2.387897	2.009402	-1.862551
F	3.408741	2.872264	-1.819088
C	2.191300	1.838768	-4.456084
O	1.606694	1.337806	-5.406510
O	3.221062	2.712584	-4.569225
C	3.603677	3.026817	-5.916207
H	4.442623	3.739898	-5.833064
H	2.758956	3.483875	-6.470168
H	3.921969	2.114070	-6.459293
H	2.604650	2.187790	1.306486
$end

$rem
JOBTYPE		SP
EXCHANGE	HF
CORRELATION	pRIMP2
BASIS		cc-pvtz
METHOD		rimp2
AUX_BASIS	rimp2-cc-pvtz
SOLVENT_METHOD	PCM
PURECART	11111
SYMMETRY	false
MEM_TOTAL	110000
SCF_CONVERGENCE = 6
THRESH=10
GUI = 2
$end

$solvent
dielectric 4.90
$end
--------------------------------------------------------------

             Standard Nuclear Orientation (Angstroms)
    I     Atom           X                Y                Z
 ----------------------------------------------------------------
    1      C       0.3131910000    -8.5177020000    -0.0700090000
    2      C      -0.6947460000    -7.6415750000     0.3054940000
    3      S       1.7623500000    -7.6386340000    -0.6149240000
    4      C      -0.3409730000    -6.2647850000     0.1767680000
    5      H      -1.6777470000    -7.9660810000     0.6695710000
    6      C       1.0000690000    -6.0727140000    -0.3096000000
    7      C       1.5200600000    -4.7870490000    -0.5253720000
    8      C      -1.1964660000    -5.1628010000     0.4638250000
    9      C      -0.6776390000    -3.8748170000     0.2438880000
   10      C       0.6658150000    -3.6839520000    -0.2403120000
   11      O      -2.4266780000    -5.4997720000     0.9416260000
   12      O       2.7554600000    -4.4590550000    -1.0064680000
   13      C       3.8539130000    -5.3290630000    -0.7616660000
   14      H       4.7656070000    -4.7556940000    -1.0161350000
   15      H       3.8221820000    -6.2380950000    -1.4013680000
   16      H       3.9018330000    -5.6372620000     0.3051610000
   17      C      -3.5024890000    -4.5722610000     0.8683420000
   18      H      -4.4160050000    -5.1397430000     1.1285510000
   19      H      -3.6138410000    -4.1531310000    -0.1547120000
   20      H      -3.3867560000    -3.7395310000     1.5956050000
   21      C       1.0154300000    -2.3066540000    -0.3699570000
   22      S      -1.4459220000    -2.3065010000     0.5378980000
   23      C       0.0000000000    -1.4351850000     0.0000000000
   24      H       1.9980880000    -1.9781380000    -0.7310880000
   25      H       0.3141430000    -9.6140330000    -0.0741510000
   26      C       0.0000000000     0.0000000000     0.0000000000
   27      S       0.6933940000     0.5812090000     1.5075410000
   28      C       1.8975360000     1.5926070000     0.7188730000
   29      C       0.6933300000     0.5807910000    -1.0678720000
   30      C       1.7567580000     1.4761320000    -0.6864100000
   31      S       0.5085730000     0.4220410000    -2.8055160000
   32      C       1.8468790000     1.5522320000    -3.0545300000
   33      C       2.3878970000     2.0094020000    -1.8625510000
   34      F       3.4087410000     2.8722640000    -1.8190880000
   35      C       2.1913000000     1.8387680000    -4.4560840000
   36      O       1.6066940000     1.3378060000    -5.4065100000
   37      O       3.2210620000     2.7125840000    -4.5692250000
   38      C       3.6036770000     3.0268170000    -5.9162070000
   39      H       4.4426230000     3.7398980000    -5.8330640000
   40      H       2.7589560000     3.4838750000    -6.4701680000
   41      H       3.9219690000     2.1140700000    -6.4592930000
   42      H       2.6046500000     2.1877900000     1.3064860000
 ----------------------------------------------------------------

   11   -2754.2718103341      3.76e-07  Convergence criterion met
 Total energy in the final basis set =    -2754.2718103341
        RIMP2         total energy =     -2759.3309239345 a.u.

                    Orbital Energies (a.u.)
 --------------------------------------------------------------

 Alpha MOs
 -- Occupied --
-92.0132 -92.0043 -91.9843 -91.9819 -26.3451 -20.6151 -20.5908 -20.5892
-20.5614 -11.4098 -11.3851 -11.3279 -11.3167 -11.3144 -11.3139 -11.2976
-11.2913 -11.2891 -11.2865 -11.2857 -11.2851 -11.2818 -11.2809 -11.2772
-11.2750 -11.2578 -11.2552 -11.2485 -11.2477  -9.0123  -9.0040  -8.9843
 -8.9826  -6.6930  -6.6922  -6.6918  -6.6850  -6.6842  -6.6832  -6.6653
 -6.6647  -6.6638  -6.6636  -6.6628  -6.6620  -1.6621  -1.4676  -1.4148
 -1.4120  -1.3703  -1.2284  -1.1910  -1.1638  -1.1382  -1.0838  -1.0490
 -1.0440  -1.0246  -0.9979  -0.9866  -0.9631  -0.9585  -0.9488  -0.9395
 -0.8929  -0.8697  -0.8447  -0.8109  -0.7959  -0.7877  -0.7838  -0.7629
 -0.7555  -0.7314  -0.7269  -0.7117  -0.7002  -0.6856  -0.6818  -0.6802
 -0.6742  -0.6587  -0.6573  -0.6511  -0.6284  -0.6184  -0.6159  -0.6076
 -0.5996  -0.5861  -0.5730  -0.5697  -0.5656  -0.5618  -0.5537  -0.5480
 -0.5312  -0.5244  -0.5208  -0.5159  -0.5127  -0.5086  -0.5037  -0.4938
 -0.4870  -0.4829  -0.4749  -0.4734  -0.4674  -0.4630  -0.4586  -0.4049
 -0.3931  -0.3847  -0.3591  -0.3462  -0.3181  -0.2986  -0.2534

          Ground-State Mulliken Net Atomic Charges

     Atom                 Charge (a.u.)
  ----------------------------------------
      1 C                    -0.193280
      2 C                    -0.254266
      3 S                    -0.026311
      4 C                    -0.018888
      5 H                     0.195643
      6 C                    -0.026591
      7 C                     0.234873
      8 C                     0.243644
      9 C                    -0.047338
     10 C                    -0.019116
     11 O                    -0.333807
     12 O                    -0.341250
     13 C                    -0.085756
     14 H                     0.121558
     15 H                     0.091007
     16 H                     0.092999
     17 C                    -0.086761
     18 H                     0.124551
     19 H                     0.094284
     20 H                     0.089468
     21 C                    -0.243458
     22 S                    -0.023865
     23 C                    -0.000457
     24 H                     0.195585
     25 H                     0.205390
     26 C                    -0.117891
     27 S                     0.122056
     28 C                    -0.141851
     29 C                    -0.010340
     30 C                    -0.087802
     31 S                     0.052798
     32 C                    -0.152098
     33 C                     0.394690
     34 F                    -0.205422
     35 C                     0.447571
     36 O                    -0.461843
     37 O                    -0.301246
     38 C                    -0.058265
     39 H                     0.121313
     40 H                     0.095229
     41 H                     0.095239
     42 H                     0.220003
  ----------------------------------------
  Sum of atomic charges =     0.000000

                    Cartesian Multipole Moments
 -----------------------------------------------------------------
    Charge (ESU x 10^10)
                 0.0000
    Dipole Moment (Debye)
         X       2.9254      Y       1.6221      Z       2.9843
       Tot       4.4828
    Quadrupole Moments (Debye-Ang)
        XX    -167.7302     XY       8.3272     YY    -174.6642
        XZ      -8.0035     YZ      -5.9049     ZZ    -204.9467

 Total job time:  321.54s(wall), 9665.85s(cpu)
        *  Thank you very much for using Q-Chem.  Have a nice day.  *
