 Q-Chem 5.4, Q-Chem, Inc., Pleasanton, CA (2021)
 Q-Chem 5.4.0 for Intel X86 EM64T Linux

User input:
--------------------------------------------------------------
$molecule
0 1
C	0.014560	-8.517702	0.320589
C	-0.180211	-7.641575	-0.737240
S	0.299553	-7.638634	1.842356
C	-0.114873	-6.264785	-0.366488
H	-0.368061	-7.966081	-1.768528
C	0.131236	-6.072714	1.038637
C	0.253435	-4.787049	1.588197
C	-0.249014	-5.162801	-1.258831
C	-0.122513	-3.874817	-0.709695
C	0.121043	-3.683952	0.697430
O	-0.505933	-5.499772	-2.553323
O	0.512697	-4.459055	2.888369
C	0.080869	-5.329063	3.927625
H	0.173159	-4.755694	4.869656
H	0.716363	-6.238095	4.007459
H	-0.978072	-5.637262	3.789565
C	-0.246949	-4.572261	-3.600064
H	-0.344574	-5.139743	-4.544887
H	0.779898	-4.153131	-3.532074
H	-0.983261	-3.739531	-3.612378
C	0.188009	-2.306654	1.064246
S	-0.278644	-2.306501	-1.517360
C	0.000000	-1.435185	0.000000
H	0.373017	-1.978138	2.094685
H	0.018474	-9.614033	0.322246
C	0.000000	0.000000	0.000000
S	0.693394	0.581209	1.507541
C	1.897536	1.592607	0.718873
C	0.693330	0.580791	-1.067872
C	1.756758	1.476132	-0.686410
S	0.508573	0.422041	-2.805516
C	1.846879	1.552232	-3.054530
C	2.387897	2.009402	-1.862551
F	3.408741	2.872264	-1.819088
C	2.191300	1.838768	-4.456084
O	1.606694	1.337806	-5.406510
O	3.221062	2.712584	-4.569225
C	3.603677	3.026817	-5.916207
H	4.442623	3.739898	-5.833064
H	2.758956	3.483875	-6.470168
H	3.921969	2.114070	-6.459293
H	2.604650	2.187790	1.306486
$end

$rem
JOBTYPE		SP
EXCHANGE	HF
CORRELATION	pRIMP2
BASIS		cc-pvtz
METHOD		rimp2
AUX_BASIS	rimp2-cc-pvtz
SOLVENT_METHOD	PCM
PURECART	11111
SYMMETRY	false
MEM_TOTAL	110000
SCF_CONVERGENCE = 6
THRESH=10
GUI = 2
$end

$solvent
dielectric 4.90
$end
--------------------------------------------------------------

             Standard Nuclear Orientation (Angstroms)
    I     Atom           X                Y                Z
 ----------------------------------------------------------------
    1      C       0.0145600000    -8.5177020000     0.3205890000
    2      C      -0.1802110000    -7.6415750000    -0.7372400000
    3      S       0.2995530000    -7.6386340000     1.8423560000
    4      C      -0.1148730000    -6.2647850000    -0.3664880000
    5      H      -0.3680610000    -7.9660810000    -1.7685280000
    6      C       0.1312360000    -6.0727140000     1.0386370000
    7      C       0.2534350000    -4.7870490000     1.5881970000
    8      C      -0.2490140000    -5.1628010000    -1.2588310000
    9      C      -0.1225130000    -3.8748170000    -0.7096950000
   10      C       0.1210430000    -3.6839520000     0.6974300000
   11      O      -0.5059330000    -5.4997720000    -2.5533230000
   12      O       0.5126970000    -4.4590550000     2.8883690000
   13      C       0.0808690000    -5.3290630000     3.9276250000
   14      H       0.1731590000    -4.7556940000     4.8696560000
   15      H       0.7163630000    -6.2380950000     4.0074590000
   16      H      -0.9780720000    -5.6372620000     3.7895650000
   17      C      -0.2469490000    -4.5722610000    -3.6000640000
   18      H      -0.3445740000    -5.1397430000    -4.5448870000
   19      H       0.7798980000    -4.1531310000    -3.5320740000
   20      H      -0.9832610000    -3.7395310000    -3.6123780000
   21      C       0.1880090000    -2.3066540000     1.0642460000
   22      S      -0.2786440000    -2.3065010000    -1.5173600000
   23      C       0.0000000000    -1.4351850000     0.0000000000
   24      H       0.3730170000    -1.9781380000     2.0946850000
   25      H       0.0184740000    -9.6140330000     0.3222460000
   26      C       0.0000000000     0.0000000000     0.0000000000
   27      S       0.6933940000     0.5812090000     1.5075410000
   28      C       1.8975360000     1.5926070000     0.7188730000
   29      C       0.6933300000     0.5807910000    -1.0678720000
   30      C       1.7567580000     1.4761320000    -0.6864100000
   31      S       0.5085730000     0.4220410000    -2.8055160000
   32      C       1.8468790000     1.5522320000    -3.0545300000
   33      C       2.3878970000     2.0094020000    -1.8625510000
   34      F       3.4087410000     2.8722640000    -1.8190880000
   35      C       2.1913000000     1.8387680000    -4.4560840000
   36      O       1.6066940000     1.3378060000    -5.4065100000
   37      O       3.2210620000     2.7125840000    -4.5692250000
   38      C       3.6036770000     3.0268170000    -5.9162070000
   39      H       4.4426230000     3.7398980000    -5.8330640000
   40      H       2.7589560000     3.4838750000    -6.4701680000
   41      H       3.9219690000     2.1140700000    -6.4592930000
   42      H       2.6046500000     2.1877900000     1.3064860000
 ----------------------------------------------------------------

   10   -2754.2668410025      6.99e-07  Convergence criterion met
 Total energy in the final basis set =    -2754.2668410025
        RIMP2         total energy =     -2759.3297541655 a.u.

                    Orbital Energies (a.u.)
 --------------------------------------------------------------

 Alpha MOs
 -- Occupied --
-92.0143 -92.0083 -91.9843 -91.9826 -26.3466 -20.6161 -20.5904 -20.5867
-20.5627 -11.4112 -11.3872 -11.3327 -11.3195 -11.3168 -11.3087 -11.2993
-11.2992 -11.2898 -11.2898 -11.2853 -11.2838 -11.2833 -11.2806 -11.2785
-11.2738 -11.2574 -11.2511 -11.2471 -11.2367  -9.0137  -9.0083  -8.9854
 -8.9826  -6.6944  -6.6936  -6.6933  -6.6891  -6.6884  -6.6873  -6.6664
 -6.6657  -6.6647  -6.6636  -6.6629  -6.6621  -1.6635  -1.4687  -1.4142
 -1.4096  -1.3714  -1.2330  -1.1899  -1.1642  -1.1401  -1.0860  -1.0480
 -1.0444  -1.0285  -0.9977  -0.9871  -0.9667  -0.9556  -0.9475  -0.9419
 -0.8921  -0.8724  -0.8452  -0.8193  -0.7947  -0.7848  -0.7815  -0.7631
 -0.7560  -0.7299  -0.7283  -0.7132  -0.6976  -0.6871  -0.6837  -0.6797
 -0.6752  -0.6606  -0.6565  -0.6497  -0.6299  -0.6168  -0.6148  -0.6048
 -0.6021  -0.5855  -0.5799  -0.5689  -0.5650  -0.5618  -0.5532  -0.5491
 -0.5332  -0.5282  -0.5232  -0.5177  -0.5139  -0.5105  -0.5041  -0.4930
 -0.4850  -0.4820  -0.4776  -0.4740  -0.4678  -0.4608  -0.4556  -0.4267
 -0.3874  -0.3818  -0.3599  -0.3541  -0.3229  -0.2921  -0.2442

          Ground-State Mulliken Net Atomic Charges

     Atom                 Charge (a.u.)
  ----------------------------------------
      1 C                    -0.201050
      2 C                    -0.252176
      3 S                    -0.029841
      4 C                    -0.025783
      5 H                     0.195100
      6 C                    -0.021811
      7 C                     0.224081
      8 C                     0.245849
      9 C                    -0.042179
     10 C                    -0.004693
     11 O                    -0.333261
     12 O                    -0.342980
     13 C                    -0.085518
     14 H                     0.120603
     15 H                     0.090143
     16 H                     0.092586
     17 C                    -0.088001
     18 H                     0.124947
     19 H                     0.094584
     20 H                     0.089662
     21 C                    -0.301502
     22 S                    -0.042459
     23 C                     0.017460
     24 H                     0.182497
     25 H                     0.204257
     26 C                    -0.092386
     27 S                     0.103056
     28 C                    -0.124779
     29 C                     0.076070
     30 C                    -0.124343
     31 S                     0.051148
     32 C                    -0.161838
     33 C                     0.403691
     34 F                    -0.204030
     35 C                     0.448837
     36 O                    -0.461715
     37 O                    -0.301110
     38 C                    -0.058250
     39 H                     0.121693
     40 H                     0.095319
     41 H                     0.095339
     42 H                     0.222784
  ----------------------------------------
  Sum of atomic charges =     0.000000

                    Cartesian Multipole Moments
 -----------------------------------------------------------------
    Charge (ESU x 10^10)
                -0.0000
    Dipole Moment (Debye)
         X       2.9113      Y       2.8464      Z       1.9255
       Tot       4.5039
    Quadrupole Moments (Debye-Ang)
        XX    -191.3034     XY      10.5539     YY    -180.7580
        XZ      -7.2851     YZ      -3.0171     ZZ    -180.1300

 Total job time:  300.61s(wall), 8871.42s(cpu)
        *  Thank you very much for using Q-Chem.  Have a nice day.  *
