 Q-Chem 5.4, Q-Chem, Inc., Pleasanton, CA (2021)
 Q-Chem 5.4.0 for Intel X86 EM64T Linux

User input:
--------------------------------------------------------------
$molecule
0 1
C	0.270358	-8.517702	-0.172904
C	-0.548363	-7.641575	0.524688
S	1.445750	-7.638634	-1.180599
C	-0.259951	-6.264785	0.282727
H	-1.347559	-7.966081	1.203014
C	0.833868	-6.072714	-0.632972
C	1.248701	-4.787049	-1.013580
C	-0.965673	-5.162801	0.845068
C	-0.553357	-3.874817	0.460946
C	0.543470	-3.683952	-0.453541
O	-1.958276	-5.499772	1.714812
O	2.245053	-4.459055	-1.888193
C	3.360989	-5.329063	-2.033848
H	4.130667	-4.755694	-2.584788
H	3.112380	-6.238095	-2.624118
H	3.770895	-5.637262	-1.047748
C	-2.994272	-4.572261	2.013896
H	-3.763700	-5.139743	2.570853
H	-3.448815	-4.153131	1.090625
H	-2.636780	-3.739531	2.657717
C	0.827659	-2.306654	-0.694943
S	-1.174750	-2.306501	0.999993
C	-0.000000	-1.435185	-0.000000
H	1.627541	-1.978138	-1.370385
H	0.269836	-9.614033	-0.177122
C	0.000000	0.000000	0.000000
S	0.452792	0.783312	1.507541
C	1.238397	2.145556	0.718873
C	0.452875	0.782898	-1.067872
C	1.145945	1.987956	-0.686410
S	0.333556	0.570531	-2.805516
C	1.204604	2.090290	-3.054530
C	1.556633	2.704929	-1.862551
F	2.220797	3.864903	-1.819088
C	1.430252	2.477345	-4.456084
O	1.052242	1.806648	-5.406510
O	2.099050	3.650663	-4.569225
C	2.351116	4.076808	-5.916207
H	2.895579	5.033821	-5.833064
H	1.401015	4.217390	-6.470168
H	2.962391	3.327969	-6.459293
H	1.699302	2.946693	1.306486
$end

$rem
JOBTYPE		SP
EXCHANGE	HF
CORRELATION	pRIMP2
BASIS		cc-pvtz
METHOD		rimp2
AUX_BASIS	rimp2-cc-pvtz
SOLVENT_METHOD	PCM
PURECART	11111
SYMMETRY	false
MEM_TOTAL	110000
SCF_CONVERGENCE = 6
THRESH=10
GUI = 2
$end

$solvent
dielectric 4.90
$end
--------------------------------------------------------------

             Standard Nuclear Orientation (Angstroms)
    I     Atom           X                Y                Z
 ----------------------------------------------------------------
    1      C       0.2703580000    -8.5177020000    -0.1729040000
    2      C      -0.5483630000    -7.6415750000     0.5246880000
    3      S       1.4457500000    -7.6386340000    -1.1805990000
    4      C      -0.2599510000    -6.2647850000     0.2827270000
    5      H      -1.3475590000    -7.9660810000     1.2030140000
    6      C       0.8338680000    -6.0727140000    -0.6329720000
    7      C       1.2487010000    -4.7870490000    -1.0135800000
    8      C      -0.9656730000    -5.1628010000     0.8450680000
    9      C      -0.5533570000    -3.8748170000     0.4609460000
   10      C       0.5434700000    -3.6839520000    -0.4535410000
   11      O      -1.9582760000    -5.4997720000     1.7148120000
   12      O       2.2450530000    -4.4590550000    -1.8881930000
   13      C       3.3609890000    -5.3290630000    -2.0338480000
   14      H       4.1306670000    -4.7556940000    -2.5847880000
   15      H       3.1123800000    -6.2380950000    -2.6241180000
   16      H       3.7708950000    -5.6372620000    -1.0477480000
   17      C      -2.9942720000    -4.5722610000     2.0138960000
   18      H      -3.7637000000    -5.1397430000     2.5708530000
   19      H      -3.4488150000    -4.1531310000     1.0906250000
   20      H      -2.6367800000    -3.7395310000     2.6577170000
   21      C       0.8276590000    -2.3066540000    -0.6949430000
   22      S      -1.1747500000    -2.3065010000     0.9999930000
   23      C       0.0000000000    -1.4351850000     0.0000000000
   24      H       1.6275410000    -1.9781380000    -1.3703850000
   25      H       0.2698360000    -9.6140330000    -0.1771220000
   26      C       0.0000000000     0.0000000000     0.0000000000
   27      S       0.4527920000     0.7833120000     1.5075410000
   28      C       1.2383970000     2.1455560000     0.7188730000
   29      C       0.4528750000     0.7828980000    -1.0678720000
   30      C       1.1459450000     1.9879560000    -0.6864100000
   31      S       0.3335560000     0.5705310000    -2.8055160000
   32      C       1.2046040000     2.0902900000    -3.0545300000
   33      C       1.5566330000     2.7049290000    -1.8625510000
   34      F       2.2207970000     3.8649030000    -1.8190880000
   35      C       1.4302520000     2.4773450000    -4.4560840000
   36      O       1.0522420000     1.8066480000    -5.4065100000
   37      O       2.0990500000     3.6506630000    -4.5692250000
   38      C       2.3511160000     4.0768080000    -5.9162070000
   39      H       2.8955790000     5.0338210000    -5.8330640000
   40      H       1.4010150000     4.2173900000    -6.4701680000
   41      H       2.9623910000     3.3279690000    -6.4592930000
   42      H       1.6993020000     2.9466930000     1.3064860000
 ----------------------------------------------------------------

   10   -2754.3009344823      7.80e-07  Convergence criterion met
 Total energy in the final basis set =    -2754.3009344823
        RIMP2         total energy =     -2759.3550256888 a.u.

                    Orbital Energies (a.u.)
 --------------------------------------------------------------

 Alpha MOs
 -- Occupied --
-92.0145 -91.9995 -91.9871 -91.9856 -26.3435 -20.6147 -20.5920 -20.5903
-20.5611 -11.4093 -11.3826 -11.3186 -11.3164 -11.3157 -11.3047 -11.2973
-11.2939 -11.2913 -11.2888 -11.2868 -11.2855 -11.2854 -11.2845 -11.2833
-11.2788 -11.2600 -11.2576 -11.2532 -11.2494  -9.0132  -8.9995  -8.9877
 -8.9856  -6.6939  -6.6933  -6.6928  -6.6804  -6.6797  -6.6786  -6.6687
 -6.6680  -6.6670  -6.6666  -6.6659  -6.6651  -1.6606  -1.4672  -1.4160
 -1.4132  -1.3699  -1.2232  -1.1933  -1.1649  -1.1366  -1.0844  -1.0510
 -1.0422  -1.0233  -1.0002  -0.9873  -0.9628  -0.9596  -0.9498  -0.9392
 -0.8949  -0.8681  -0.8492  -0.8085  -0.7972  -0.7875  -0.7857  -0.7638
 -0.7552  -0.7331  -0.7254  -0.7101  -0.7012  -0.6851  -0.6822  -0.6807
 -0.6738  -0.6587  -0.6579  -0.6519  -0.6296  -0.6193  -0.6166  -0.6052
 -0.5985  -0.5832  -0.5762  -0.5706  -0.5655  -0.5615  -0.5545  -0.5494
 -0.5312  -0.5298  -0.5235  -0.5157  -0.5148  -0.5077  -0.5058  -0.4953
 -0.4876  -0.4809  -0.4754  -0.4736  -0.4685  -0.4662  -0.4597  -0.4141
 -0.3944  -0.3856  -0.3576  -0.3505  -0.3224  -0.2924  -0.2535

          Ground-State Mulliken Net Atomic Charges

     Atom                 Charge (a.u.)
  ----------------------------------------
      1 C                    -0.190585
      2 C                    -0.253936
      3 S                    -0.023013
      4 C                    -0.017674
      5 H                     0.196067
      6 C                    -0.028098
      7 C                     0.239450
      8 C                     0.245149
      9 C                    -0.045883
     10 C                    -0.020529
     11 O                    -0.333495
     12 O                    -0.339760
     13 C                    -0.085848
     14 H                     0.122518
     15 H                     0.091170
     16 H                     0.093357
     17 C                    -0.087092
     18 H                     0.125163
     19 H                     0.094877
     20 H                     0.089187
     21 C                    -0.229606
     22 S                    -0.021596
     23 C                    -0.002770
     24 H                     0.202289
     25 H                     0.206024
     26 C                    -0.046280
     27 S                     0.114909
     28 C                    -0.181601
     29 C                    -0.050755
     30 C                    -0.081420
     31 S                     0.030182
     32 C                    -0.154419
     33 C                     0.396349
     34 F                    -0.206800
     35 C                     0.445032
     36 O                    -0.461087
     37 O                    -0.300940
     38 C                    -0.058389
     39 H                     0.121362
     40 H                     0.095207
     41 H                     0.095060
     42 H                     0.218224
  ----------------------------------------
  Sum of atomic charges =     0.000000

                    Cartesian Multipole Moments
 -----------------------------------------------------------------
    Charge (ESU x 10^10)
                 0.0000
    Dipole Moment (Debye)
         X       1.6841      Y       1.2664      Z       3.1255
       Tot       3.7694
    Quadrupole Moments (Debye-Ang)
        XX    -177.9952     XY       6.0784     YY    -165.3872
        XZ     -13.6020     YZ      -7.2095     ZZ    -201.2091

 Total job time:  281.37s(wall), 8727.75s(cpu)
        *  Thank you very much for using Q-Chem.  Have a nice day.  *
