 Q-Chem 5.4, Q-Chem, Inc., Pleasanton, CA (2021)
 Q-Chem 5.4.0 for Intel X86 EM64T Linux

User input:
--------------------------------------------------------------
$molecule
0 1
C	0.014560	-8.517702	0.320589
C	-0.180211	-7.641575	-0.737240
S	0.299553	-7.638634	1.842356
C	-0.114873	-6.264785	-0.366488
H	-0.368061	-7.966081	-1.768528
C	0.131236	-6.072714	1.038637
C	0.253435	-4.787049	1.588197
C	-0.249014	-5.162801	-1.258831
C	-0.122513	-3.874817	-0.709695
C	0.121043	-3.683952	0.697430
O	-0.505933	-5.499772	-2.553323
O	0.512697	-4.459055	2.888369
C	0.080869	-5.329063	3.927625
H	0.173159	-4.755694	4.869656
H	0.716363	-6.238095	4.007459
H	-0.978072	-5.637262	3.789565
C	-0.246949	-4.572261	-3.600064
H	-0.344574	-5.139743	-4.544887
H	0.779898	-4.153131	-3.532074
H	-0.983261	-3.739531	-3.612378
C	0.188009	-2.306654	1.064246
S	-0.278644	-2.306501	-1.517360
C	-0.000000	-1.435185	-0.000000
H	0.373017	-1.978138	2.094685
H	0.018474	-9.614033	0.322246
C	0.000000	0.000000	0.000000
S	0.309893	0.850039	1.507541
C	0.847011	2.328006	0.718873
C	0.310046	0.849645	-1.067872
C	0.783331	2.156746	-0.686410
S	0.229416	0.619785	-2.805516
C	0.823328	2.267711	-3.054530
C	1.063278	2.934142	-1.862551
F	1.515925	4.191824	-1.819088
C	0.978337	2.688069	-4.456084
O	0.722535	1.961921	-5.406510
O	1.433229	3.959697	-4.569225
C	1.607467	4.423139	-5.916207
H	1.977475	5.460158	-5.833064
H	0.647388	4.396602	-6.470168
H	2.339490	3.791823	-6.459293
H	1.161798	3.197007	1.306486
$end

$rem
JOBTYPE		SP
EXCHANGE	HF
CORRELATION	pRIMP2
BASIS		cc-pvtz
METHOD		rimp2
AUX_BASIS	rimp2-cc-pvtz
SOLVENT_METHOD	PCM
PURECART	11111
SYMMETRY	false
MEM_TOTAL	110000
SCF_CONVERGENCE = 6
THRESH=10
GUI = 2
$end

$solvent
dielectric 4.90
$end
--------------------------------------------------------------

             Standard Nuclear Orientation (Angstroms)
    I     Atom           X                Y                Z
 ----------------------------------------------------------------
    1      C       0.0145600000    -8.5177020000     0.3205890000
    2      C      -0.1802110000    -7.6415750000    -0.7372400000
    3      S       0.2995530000    -7.6386340000     1.8423560000
    4      C      -0.1148730000    -6.2647850000    -0.3664880000
    5      H      -0.3680610000    -7.9660810000    -1.7685280000
    6      C       0.1312360000    -6.0727140000     1.0386370000
    7      C       0.2534350000    -4.7870490000     1.5881970000
    8      C      -0.2490140000    -5.1628010000    -1.2588310000
    9      C      -0.1225130000    -3.8748170000    -0.7096950000
   10      C       0.1210430000    -3.6839520000     0.6974300000
   11      O      -0.5059330000    -5.4997720000    -2.5533230000
   12      O       0.5126970000    -4.4590550000     2.8883690000
   13      C       0.0808690000    -5.3290630000     3.9276250000
   14      H       0.1731590000    -4.7556940000     4.8696560000
   15      H       0.7163630000    -6.2380950000     4.0074590000
   16      H      -0.9780720000    -5.6372620000     3.7895650000
   17      C      -0.2469490000    -4.5722610000    -3.6000640000
   18      H      -0.3445740000    -5.1397430000    -4.5448870000
   19      H       0.7798980000    -4.1531310000    -3.5320740000
   20      H      -0.9832610000    -3.7395310000    -3.6123780000
   21      C       0.1880090000    -2.3066540000     1.0642460000
   22      S      -0.2786440000    -2.3065010000    -1.5173600000
   23      C       0.0000000000    -1.4351850000     0.0000000000
   24      H       0.3730170000    -1.9781380000     2.0946850000
   25      H       0.0184740000    -9.6140330000     0.3222460000
   26      C       0.0000000000     0.0000000000     0.0000000000
   27      S       0.3098930000     0.8500390000     1.5075410000
   28      C       0.8470110000     2.3280060000     0.7188730000
   29      C       0.3100460000     0.8496450000    -1.0678720000
   30      C       0.7833310000     2.1567460000    -0.6864100000
   31      S       0.2294160000     0.6197850000    -2.8055160000
   32      C       0.8233280000     2.2677110000    -3.0545300000
   33      C       1.0632780000     2.9341420000    -1.8625510000
   34      F       1.5159250000     4.1918240000    -1.8190880000
   35      C       0.9783370000     2.6880690000    -4.4560840000
   36      O       0.7225350000     1.9619210000    -5.4065100000
   37      O       1.4332290000     3.9596970000    -4.5692250000
   38      C       1.6074670000     4.4231390000    -5.9162070000
   39      H       1.9774750000     5.4601580000    -5.8330640000
   40      H       0.6473880000     4.3966020000    -6.4701680000
   41      H       2.3394900000     3.7918230000    -6.4592930000
   42      H       1.1617980000     3.1970070000     1.3064860000
 ----------------------------------------------------------------

   10   -2754.3087464057      7.34e-07  Convergence criterion met
 Total energy in the final basis set =    -2754.3087464057
        RIMP2         total energy =     -2759.3638109342 a.u.

                    Orbital Energies (a.u.)
 --------------------------------------------------------------

 Alpha MOs
 -- Occupied --
-92.0151 -92.0003 -91.9904 -91.9856 -26.3440 -20.6150 -20.5921 -20.5905
-20.5615 -11.4098 -11.3835 -11.3196 -11.3155 -11.3143 -11.3040 -11.2995
-11.2983 -11.2978 -11.2890 -11.2865 -11.2864 -11.2858 -11.2854 -11.2837
-11.2781 -11.2617 -11.2569 -11.2517 -11.2494  -9.0138  -9.0004  -8.9911
 -8.9855  -6.6946  -6.6940  -6.6935  -6.6814  -6.6806  -6.6795  -6.6720
 -6.6714  -6.6704  -6.6665  -6.6659  -6.6650  -1.6610  -1.4675  -1.4162
 -1.4133  -1.3702  -1.2241  -1.1941  -1.1656  -1.1373  -1.0860  -1.0515
 -1.0423  -1.0250  -1.0016  -0.9880  -0.9647  -0.9582  -0.9495  -0.9415
 -0.8953  -0.8689  -0.8510  -0.8160  -0.7924  -0.7876  -0.7852  -0.7648
 -0.7557  -0.7334  -0.7259  -0.7108  -0.6987  -0.6860  -0.6832  -0.6821
 -0.6741  -0.6591  -0.6583  -0.6521  -0.6306  -0.6193  -0.6163  -0.6031
 -0.5987  -0.5861  -0.5785  -0.5689  -0.5678  -0.5622  -0.5559  -0.5531
 -0.5324  -0.5290  -0.5231  -0.5201  -0.5179  -0.5115  -0.5060  -0.4943
 -0.4868  -0.4793  -0.4772  -0.4747  -0.4699  -0.4640  -0.4588  -0.4272
 -0.3922  -0.3857  -0.3615  -0.3522  -0.3241  -0.2917  -0.2476

          Ground-State Mulliken Net Atomic Charges

     Atom                 Charge (a.u.)
  ----------------------------------------
      1 C                    -0.192353
      2 C                    -0.252990
      3 S                    -0.024171
      4 C                    -0.018391
      5 H                     0.196206
      6 C                    -0.025811
      7 C                     0.234681
      8 C                     0.244643
      9 C                    -0.036227
     10 C                    -0.015930
     11 O                    -0.332879
     12 O                    -0.341351
     13 C                    -0.085576
     14 H                     0.121930
     15 H                     0.091005
     16 H                     0.093718
     17 C                    -0.088982
     18 H                     0.125765
     19 H                     0.095664
     20 H                     0.090330
     21 C                    -0.270003
     22 S                    -0.040519
     23 C                     0.013251
     24 H                     0.186408
     25 H                     0.205889
     26 C                     0.016613
     27 S                     0.086722
     28 C                    -0.173433
     29 C                     0.012843
     30 C                    -0.121240
     31 S                     0.011134
     32 C                    -0.166222
     33 C                     0.408440
     34 F                    -0.205923
     35 C                     0.445370
     36 O                    -0.461142
     37 O                    -0.300991
     38 C                    -0.058469
     39 H                     0.121457
     40 H                     0.095174
     41 H                     0.095158
     42 H                     0.220203
  ----------------------------------------
  Sum of atomic charges =     0.000000

                    Cartesian Multipole Moments
 -----------------------------------------------------------------
    Charge (ESU x 10^10)
                 0.0000
    Dipole Moment (Debye)
         X       0.7898      Y       1.5742      Z       2.6300
       Tot       3.1652
    Quadrupole Moments (Debye-Ang)
        XX    -200.2042     XY       6.7644     YY    -163.8545
        XZ      -4.0696     YZ      -6.6329     ZZ    -180.9048

 Total job time:  280.02s(wall), 8736.63s(cpu)
        *  Thank you very much for using Q-Chem.  Have a nice day.  *
