 Q-Chem 5.4, Q-Chem, Inc., Pleasanton, CA (2021)
 Q-Chem 5.4.0 for Intel X86 EM64T Linux

User input:
--------------------------------------------------------------
$molecule
0 1
C	-0.194917	-8.517702	0.254945
C	0.335839	-7.641575	-0.680596
S	-0.954772	-7.638634	1.603876
C	0.147576	-6.264785	-0.354585
H	0.854836	-7.966081	-1.591356
C	-0.567090	-6.072714	0.879999
C	-0.826731	-4.787049	1.379534
C	0.618405	-5.162801	-1.124384
C	0.362333	-3.874817	-0.622407
C	-0.355575	-3.683952	0.612067
O	1.253677	-5.499772	-2.281166
O	-1.463859	-4.459055	2.542174
C	-2.462679	-5.329063	3.060718
H	-2.997507	-4.755694	3.841678
H	-2.027179	-6.238095	3.530361
H	-3.185132	-5.637262	2.274283
C	2.124902	-4.572261	-2.916545
H	2.657438	-5.139743	-3.703073
H	2.867810	-4.153131	-2.204417
H	1.568770	-3.739531	-3.399269
C	-0.540061	-2.306654	0.936109
S	0.761887	-2.306501	-1.341474
C	-0.000000	-1.435185	-0.000000
H	-1.060690	-1.978138	1.844392
H	-0.192984	-9.614033	0.258730
C	0.000000	0.000000	0.000000
S	0.452792	0.783312	1.507541
C	1.238397	2.145556	0.718873
C	0.452875	0.782898	-1.067872
C	1.145945	1.987956	-0.686410
S	0.333556	0.570531	-2.805516
C	1.204604	2.090290	-3.054530
C	1.556633	2.704929	-1.862551
F	2.220797	3.864903	-1.819088
C	1.430252	2.477345	-4.456084
O	1.052242	1.806648	-5.406510
O	2.099050	3.650663	-4.569225
C	2.351116	4.076808	-5.916207
H	2.895579	5.033821	-5.833064
H	1.401015	4.217390	-6.470168
H	2.962391	3.327969	-6.459293
H	1.699302	2.946693	1.306486
$end

$rem
JOBTYPE		SP
EXCHANGE	HF
CORRELATION	pRIMP2
BASIS		cc-pvtz
METHOD		rimp2
AUX_BASIS	rimp2-cc-pvtz
SOLVENT_METHOD	PCM
PURECART	11111
SYMMETRY	false
MEM_TOTAL	110000
SCF_CONVERGENCE = 6
THRESH=10
GUI = 2
$end

$solvent
dielectric 4.90
$end
--------------------------------------------------------------

             Standard Nuclear Orientation (Angstroms)
    I     Atom           X                Y                Z
 ----------------------------------------------------------------
    1      C      -0.1949170000    -8.5177020000     0.2549450000
    2      C       0.3358390000    -7.6415750000    -0.6805960000
    3      S      -0.9547720000    -7.6386340000     1.6038760000
    4      C       0.1475760000    -6.2647850000    -0.3545850000
    5      H       0.8548360000    -7.9660810000    -1.5913560000
    6      C      -0.5670900000    -6.0727140000     0.8799990000
    7      C      -0.8267310000    -4.7870490000     1.3795340000
    8      C       0.6184050000    -5.1628010000    -1.1243840000
    9      C       0.3623330000    -3.8748170000    -0.6224070000
   10      C      -0.3555750000    -3.6839520000     0.6120670000
   11      O       1.2536770000    -5.4997720000    -2.2811660000
   12      O      -1.4638590000    -4.4590550000     2.5421740000
   13      C      -2.4626790000    -5.3290630000     3.0607180000
   14      H      -2.9975070000    -4.7556940000     3.8416780000
   15      H      -2.0271790000    -6.2380950000     3.5303610000
   16      H      -3.1851320000    -5.6372620000     2.2742830000
   17      C       2.1249020000    -4.5722610000    -2.9165450000
   18      H       2.6574380000    -5.1397430000    -3.7030730000
   19      H       2.8678100000    -4.1531310000    -2.2044170000
   20      H       1.5687700000    -3.7395310000    -3.3992690000
   21      C      -0.5400610000    -2.3066540000     0.9361090000
   22      S       0.7618870000    -2.3065010000    -1.3414740000
   23      C       0.0000000000    -1.4351850000     0.0000000000
   24      H      -1.0606900000    -1.9781380000     1.8443920000
   25      H      -0.1929840000    -9.6140330000     0.2587300000
   26      C       0.0000000000     0.0000000000     0.0000000000
   27      S       0.4527920000     0.7833120000     1.5075410000
   28      C       1.2383970000     2.1455560000     0.7188730000
   29      C       0.4528750000     0.7828980000    -1.0678720000
   30      C       1.1459450000     1.9879560000    -0.6864100000
   31      S       0.3335560000     0.5705310000    -2.8055160000
   32      C       1.2046040000     2.0902900000    -3.0545300000
   33      C       1.5566330000     2.7049290000    -1.8625510000
   34      F       2.2207970000     3.8649030000    -1.8190880000
   35      C       1.4302520000     2.4773450000    -4.4560840000
   36      O       1.0522420000     1.8066480000    -5.4065100000
   37      O       2.0990500000     3.6506630000    -4.5692250000
   38      C       2.3511160000     4.0768080000    -5.9162070000
   39      H       2.8955790000     5.0338210000    -5.8330640000
   40      H       1.4010150000     4.2173900000    -6.4701680000
   41      H       2.9623910000     3.3279690000    -6.4592930000
   42      H       1.6993020000     2.9466930000     1.3064860000
 ----------------------------------------------------------------

   10   -2754.2986576995      7.41e-07  Convergence criterion met
 Total energy in the final basis set =    -2754.2986576995
        RIMP2         total energy =     -2759.3556962777 a.u.

                    Orbital Energies (a.u.)
 --------------------------------------------------------------

 Alpha MOs
 -- Occupied --
-92.0150 -92.0007 -91.9880 -91.9852 -26.3439 -20.6150 -20.5916 -20.5900
-20.5615 -11.4097 -11.3834 -11.3186 -11.3163 -11.3148 -11.3050 -11.2976
-11.2954 -11.2936 -11.2890 -11.2863 -11.2862 -11.2854 -11.2831 -11.2831
-11.2778 -11.2600 -11.2564 -11.2498 -11.2491  -9.0137  -9.0008  -8.9886
 -8.9852  -6.6944  -6.6938  -6.6933  -6.6818  -6.6810  -6.6799  -6.6696
 -6.6689  -6.6679  -6.6661  -6.6655  -6.6647  -1.6610  -1.4675  -1.4156
 -1.4128  -1.3702  -1.2248  -1.1929  -1.1647  -1.1372  -1.0852  -1.0507
 -1.0422  -1.0247  -1.0005  -0.9872  -0.9644  -0.9577  -0.9493  -0.9406
 -0.8947  -0.8689  -0.8492  -0.8151  -0.7925  -0.7866  -0.7843  -0.7644
 -0.7554  -0.7326  -0.7258  -0.7105  -0.6985  -0.6858  -0.6827  -0.6815
 -0.6741  -0.6588  -0.6579  -0.6517  -0.6299  -0.6189  -0.6161  -0.6050
 -0.5984  -0.5826  -0.5786  -0.5686  -0.5662  -0.5589  -0.5567  -0.5512
 -0.5324  -0.5296  -0.5235  -0.5172  -0.5158  -0.5104  -0.5064  -0.4956
 -0.4870  -0.4805  -0.4761  -0.4743  -0.4701  -0.4627  -0.4584  -0.4208
 -0.3953  -0.3835  -0.3568  -0.3517  -0.3254  -0.2891  -0.2497

          Ground-State Mulliken Net Atomic Charges

     Atom                 Charge (a.u.)
  ----------------------------------------
      1 C                    -0.192783
      2 C                    -0.253573
      3 S                    -0.024552
      4 C                    -0.019986
      5 H                     0.196014
      6 C                    -0.025142
      7 C                     0.231905
      8 C                     0.243169
      9 C                    -0.046429
     10 C                    -0.005013
     11 O                    -0.333071
     12 O                    -0.340859
     13 C                    -0.085569
     14 H                     0.121771
     15 H                     0.090726
     16 H                     0.093735
     17 C                    -0.089453
     18 H                     0.125652
     19 H                     0.094297
     20 H                     0.091254
     21 C                    -0.278928
     22 S                    -0.022819
     23 C                     0.016435
     24 H                     0.190996
     25 H                     0.205740
     26 C                     0.008047
     27 S                     0.116909
     28 C                    -0.184926
     29 C                    -0.060763
     30 C                    -0.086270
     31 S                     0.031361
     32 C                    -0.160927
     33 C                     0.405938
     34 F                    -0.206603
     35 C                     0.444267
     36 O                    -0.461148
     37 O                    -0.300873
     38 C                    -0.058396
     39 H                     0.121500
     40 H                     0.095248
     41 H                     0.095030
     42 H                     0.218089
  ----------------------------------------
  Sum of atomic charges =     0.000000

                    Cartesian Multipole Moments
 -----------------------------------------------------------------
    Charge (ESU x 10^10)
                -0.0000
    Dipole Moment (Debye)
         X       1.5677      Y       1.5918      Z       2.4877
       Tot       3.3436
    Quadrupole Moments (Debye-Ang)
        XX    -186.2003     XY       8.0967     YY    -167.1411
        XZ     -16.1582     YZ      -5.1740     ZZ    -192.5705

 Total job time:  296.63s(wall), 9487.25s(cpu)
        *  Thank you very much for using Q-Chem.  Have a nice day.  *
