 Q-Chem 5.4, Q-Chem, Inc., Pleasanton, CA (2021)
 Q-Chem 5.4.0 for Intel X86 EM64T Linux

User input:
--------------------------------------------------------------
$molecule
0 1
C	0.123330	-8.517702	0.296276
C	-0.421494	-7.641575	-0.631143
S	0.911611	-7.638634	1.628795
C	-0.233291	-6.264785	-0.305097
H	-0.950737	-7.966081	-1.535988
C	0.478557	-6.072714	0.931114
C	0.781346	-4.787049	1.405737
C	-0.664542	-5.162801	-1.097747
C	-0.357854	-3.874817	-0.624993
C	0.352278	-3.683952	0.613970
O	-1.348709	-5.499772	-2.226300
O	1.469658	-4.459055	2.538827
C	1.419319	-5.329063	3.663102
H	1.828237	-4.755694	4.516756
H	2.043793	-6.238095	3.520769
H	0.377021	-5.637262	3.895546
C	-1.463351	-4.572261	-3.298492
H	-1.878237	-5.139743	-4.152945
H	-0.475176	-4.153131	-3.585804
H	-2.159469	-3.739531	-3.058230
C	0.540664	-2.306654	0.935761
S	-0.780808	-2.306501	-1.330550
C	-0.000000	-1.435185	-0.000000
H	1.066946	-1.978138	1.840780
H	0.127575	-9.614033	0.296494
C	0.000000	0.000000	0.000000
S	0.309893	0.850039	1.507541
C	0.847011	2.328006	0.718873
C	0.310046	0.849645	-1.067872
C	0.783331	2.156746	-0.686410
S	0.229416	0.619785	-2.805516
C	0.823328	2.267711	-3.054530
C	1.063278	2.934142	-1.862551
F	1.515925	4.191824	-1.819088
C	0.978337	2.688069	-4.456084
O	0.722535	1.961921	-5.406510
O	1.433229	3.959697	-4.569225
C	1.607467	4.423139	-5.916207
H	1.977475	5.460158	-5.833064
H	0.647388	4.396602	-6.470168
H	2.339490	3.791823	-6.459293
H	1.161798	3.197007	1.306486
$end

$rem
JOBTYPE		SP
EXCHANGE	HF
CORRELATION	pRIMP2
BASIS		cc-pvtz
METHOD		rimp2
AUX_BASIS	rimp2-cc-pvtz
SOLVENT_METHOD	PCM
PURECART	11111
SYMMETRY	false
MEM_TOTAL	110000
SCF_CONVERGENCE = 6
THRESH=10
GUI = 2
$end

$solvent
dielectric 4.90
$end
--------------------------------------------------------------

             Standard Nuclear Orientation (Angstroms)
    I     Atom           X                Y                Z
 ----------------------------------------------------------------
    1      C       0.1233300000    -8.5177020000     0.2962760000
    2      C      -0.4214940000    -7.6415750000    -0.6311430000
    3      S       0.9116110000    -7.6386340000     1.6287950000
    4      C      -0.2332910000    -6.2647850000    -0.3050970000
    5      H      -0.9507370000    -7.9660810000    -1.5359880000
    6      C       0.4785570000    -6.0727140000     0.9311140000
    7      C       0.7813460000    -4.7870490000     1.4057370000
    8      C      -0.6645420000    -5.1628010000    -1.0977470000
    9      C      -0.3578540000    -3.8748170000    -0.6249930000
   10      C       0.3522780000    -3.6839520000     0.6139700000
   11      O      -1.3487090000    -5.4997720000    -2.2263000000
   12      O       1.4696580000    -4.4590550000     2.5388270000
   13      C       1.4193190000    -5.3290630000     3.6631020000
   14      H       1.8282370000    -4.7556940000     4.5167560000
   15      H       2.0437930000    -6.2380950000     3.5207690000
   16      H       0.3770210000    -5.6372620000     3.8955460000
   17      C      -1.4633510000    -4.5722610000    -3.2984920000
   18      H      -1.8782370000    -5.1397430000    -4.1529450000
   19      H      -0.4751760000    -4.1531310000    -3.5858040000
   20      H      -2.1594690000    -3.7395310000    -3.0582300000
   21      C       0.5406640000    -2.3066540000     0.9357610000
   22      S      -0.7808080000    -2.3065010000    -1.3305500000
   23      C       0.0000000000    -1.4351850000     0.0000000000
   24      H       1.0669460000    -1.9781380000     1.8407800000
   25      H       0.1275750000    -9.6140330000     0.2964940000
   26      C       0.0000000000     0.0000000000     0.0000000000
   27      S       0.3098930000     0.8500390000     1.5075410000
   28      C       0.8470110000     2.3280060000     0.7188730000
   29      C       0.3100460000     0.8496450000    -1.0678720000
   30      C       0.7833310000     2.1567460000    -0.6864100000
   31      S       0.2294160000     0.6197850000    -2.8055160000
   32      C       0.8233280000     2.2677110000    -3.0545300000
   33      C       1.0632780000     2.9341420000    -1.8625510000
   34      F       1.5159250000     4.1918240000    -1.8190880000
   35      C       0.9783370000     2.6880690000    -4.4560840000
   36      O       0.7225350000     1.9619210000    -5.4065100000
   37      O       1.4332290000     3.9596970000    -4.5692250000
   38      C       1.6074670000     4.4231390000    -5.9162070000
   39      H       1.9774750000     5.4601580000    -5.8330640000
   40      H       0.6473880000     4.3966020000    -6.4701680000
   41      H       2.3394900000     3.7918230000    -6.4592930000
   42      H       1.1617980000     3.1970070000     1.3064860000
 ----------------------------------------------------------------

   10   -2754.3099930676      7.05e-07  Convergence criterion met
 Total energy in the final basis set =    -2754.3099930676
        RIMP2         total energy =     -2759.3637442558 a.u.

                    Orbital Energies (a.u.)
 --------------------------------------------------------------

 Alpha MOs
 -- Occupied --
-92.0153 -91.9994 -91.9902 -91.9859 -26.3436 -20.6148 -20.5922 -20.5909
-20.5612 -11.4094 -11.3828 -11.3196 -11.3163 -11.3127 -11.3034 -11.2985
-11.2975 -11.2972 -11.2888 -11.2865 -11.2860 -11.2858 -11.2856 -11.2839
-11.2787 -11.2614 -11.2576 -11.2533 -11.2496  -9.0139  -8.9994  -8.9908
 -8.9858  -6.6947  -6.6941  -6.6935  -6.6804  -6.6797  -6.6785  -6.6718
 -6.6711  -6.6701  -6.6668  -6.6662  -6.6653  -1.6606  -1.4672  -1.4163
 -1.4137  -1.3699  -1.2231  -1.1943  -1.1657  -1.1367  -1.0856  -1.0516
 -1.0420  -1.0241  -1.0015  -0.9880  -0.9642  -0.9585  -0.9497  -0.9407
 -0.8954  -0.8682  -0.8509  -0.8148  -0.7921  -0.7873  -0.7863  -0.7648
 -0.7554  -0.7335  -0.7254  -0.7104  -0.6990  -0.6856  -0.6832  -0.6816
 -0.6738  -0.6591  -0.6581  -0.6523  -0.6304  -0.6196  -0.6164  -0.6034
 -0.5985  -0.5873  -0.5771  -0.5687  -0.5677  -0.5630  -0.5551  -0.5530
 -0.5317  -0.5287  -0.5223  -0.5181  -0.5171  -0.5108  -0.5059  -0.4944
 -0.4880  -0.4791  -0.4768  -0.4739  -0.4699  -0.4651  -0.4598  -0.4230
 -0.3936  -0.3859  -0.3605  -0.3504  -0.3236  -0.2919  -0.2507

          Ground-State Mulliken Net Atomic Charges

     Atom                 Charge (a.u.)
  ----------------------------------------
      1 C                    -0.191228
      2 C                    -0.253015
      3 S                    -0.023394
      4 C                    -0.017406
      5 H                     0.196264
      6 C                    -0.027121
      7 C                     0.236970
      8 C                     0.244493
      9 C                    -0.041813
     10 C                    -0.020952
     11 O                    -0.333147
     12 O                    -0.340900
     13 C                    -0.085540
     14 H                     0.122124
     15 H                     0.091004
     16 H                     0.093708
     17 C                    -0.088278
     18 H                     0.125300
     19 H                     0.095855
     20 H                     0.089957
     21 C                    -0.256945
     22 S                    -0.021373
     23 C                    -0.003664
     24 H                     0.193095
     25 H                     0.206044
     26 C                    -0.015522
     27 S                     0.087918
     28 C                    -0.171757
     29 C                     0.026249
     30 C                    -0.119144
     31 S                     0.012151
     32 C                    -0.159996
     33 C                     0.400259
     34 F                    -0.206225
     35 C                     0.445765
     36 O                    -0.460977
     37 O                    -0.300915
     38 C                    -0.058459
     39 H                     0.121351
     40 H                     0.095081
     41 H                     0.095116
     42 H                     0.219066
  ----------------------------------------
  Sum of atomic charges =     0.000000

                    Cartesian Multipole Moments
 -----------------------------------------------------------------
    Charge (ESU x 10^10)
                 0.0000
    Dipole Moment (Debye)
         X       0.6960      Y       1.3367      Z       2.8328
       Tot       3.2087
    Quadrupole Moments (Debye-Ang)
        XX    -198.2808     XY       6.6360     YY    -163.1342
        XZ       4.3875     YZ      -7.3146     ZZ    -183.0547

 Total job time:  291.78s(wall), 8927.00s(cpu)
        *  Thank you very much for using Q-Chem.  Have a nice day.  *
