 Q-Chem 5.4, Q-Chem, Inc., Pleasanton, CA (2021)
 Q-Chem 5.4.0 for Intel X86 EM64T Linux

User input:
--------------------------------------------------------------
$molecule
0 1
C	0.095966	-8.517702	-0.306235
C	-0.082807	-7.641575	0.754415
S	0.348635	-7.638634	-1.833702
C	-0.017401	-6.264785	0.383675
H	-0.259008	-7.966081	1.787757
C	0.231913	-6.072714	-1.020885
C	0.305044	-4.787049	-1.579097
C	-0.196549	-5.162801	1.268082
C	-0.127606	-3.874817	0.708796
C	0.124792	-3.683952	-0.696769
O	-0.397867	-5.499772	2.572378
O	0.506103	-4.459055	-2.889532
C	1.267335	-5.329063	-3.718420
H	1.502804	-4.755694	-4.635204
H	0.697471	-6.238095	-4.010790
H	2.215194	-5.637262	-3.226506
C	-0.999238	-4.572261	3.467415
H	-1.230649	-5.139743	4.388648
H	-1.940905	-4.153131	3.052323
H	-0.311543	-3.739531	3.730819
C	0.187323	-2.306654	-1.064366
S	-0.257128	-2.306501	1.521154
C	-0.000000	-1.435185	-0.000000
H	0.365903	-1.978138	-2.095939
H	0.092855	-9.614033	-0.309131
C	0.000000	0.000000	0.000000
S	0.783786	0.451972	1.507541
C	2.145261	1.238908	0.718873
C	0.783650	0.451572	-1.067872
C	1.986396	1.148648	-0.686410
S	0.574133	0.327317	-2.805516
C	2.088363	1.207943	-3.054530
C	2.700548	1.564221	-1.862551
F	3.855718	2.236706	-1.819088
C	2.477307	1.430318	-4.456084
O	1.814592	1.038482	-5.406510
O	3.643162	2.112042	-4.569225
C	4.074530	2.355061	-5.916207
H	5.024556	2.911627	-5.833064
H	3.322010	2.951860	-6.470168
H	4.229490	1.400910	-6.459293
H	2.944986	1.702260	1.306486
$end

$rem
JOBTYPE		SP
EXCHANGE	HF
CORRELATION	pRIMP2
BASIS		cc-pvtz
METHOD		rimp2
AUX_BASIS	rimp2-cc-pvtz
SOLVENT_METHOD	PCM
PURECART	11111
SYMMETRY	false
MEM_TOTAL	110000
SCF_CONVERGENCE = 6
THRESH=10
GUI = 2
$end

$solvent
dielectric 4.90
$end
--------------------------------------------------------------

             Standard Nuclear Orientation (Angstroms)
    I     Atom           X                Y                Z
 ----------------------------------------------------------------
    1      C       0.0959660000    -8.5177020000    -0.3062350000
    2      C      -0.0828070000    -7.6415750000     0.7544150000
    3      S       0.3486350000    -7.6386340000    -1.8337020000
    4      C      -0.0174010000    -6.2647850000     0.3836750000
    5      H      -0.2590080000    -7.9660810000     1.7877570000
    6      C       0.2319130000    -6.0727140000    -1.0208850000
    7      C       0.3050440000    -4.7870490000    -1.5790970000
    8      C      -0.1965490000    -5.1628010000     1.2680820000
    9      C      -0.1276060000    -3.8748170000     0.7087960000
   10      C       0.1247920000    -3.6839520000    -0.6967690000
   11      O      -0.3978670000    -5.4997720000     2.5723780000
   12      O       0.5061030000    -4.4590550000    -2.8895320000
   13      C       1.2673350000    -5.3290630000    -3.7184200000
   14      H       1.5028040000    -4.7556940000    -4.6352040000
   15      H       0.6974710000    -6.2380950000    -4.0107900000
   16      H       2.2151940000    -5.6372620000    -3.2265060000
   17      C      -0.9992380000    -4.5722610000     3.4674150000
   18      H      -1.2306490000    -5.1397430000     4.3886480000
   19      H      -1.9409050000    -4.1531310000     3.0523230000
   20      H      -0.3115430000    -3.7395310000     3.7308190000
   21      C       0.1873230000    -2.3066540000    -1.0643660000
   22      S      -0.2571280000    -2.3065010000     1.5211540000
   23      C       0.0000000000    -1.4351850000     0.0000000000
   24      H       0.3659030000    -1.9781380000    -2.0959390000
   25      H       0.0928550000    -9.6140330000    -0.3091310000
   26      C       0.0000000000     0.0000000000     0.0000000000
   27      S       0.7837860000     0.4519720000     1.5075410000
   28      C       2.1452610000     1.2389080000     0.7188730000
   29      C       0.7836500000     0.4515720000    -1.0678720000
   30      C       1.9863960000     1.1486480000    -0.6864100000
   31      S       0.5741330000     0.3273170000    -2.8055160000
   32      C       2.0883630000     1.2079430000    -3.0545300000
   33      C       2.7005480000     1.5642210000    -1.8625510000
   34      F       3.8557180000     2.2367060000    -1.8190880000
   35      C       2.4773070000     1.4303180000    -4.4560840000
   36      O       1.8145920000     1.0384820000    -5.4065100000
   37      O       3.6431620000     2.1120420000    -4.5692250000
   38      C       4.0745300000     2.3550610000    -5.9162070000
   39      H       5.0245560000     2.9116270000    -5.8330640000
   40      H       3.3220100000     2.9518600000    -6.4701680000
   41      H       4.2294900000     1.4009100000    -6.4592930000
   42      H       2.9449860000     1.7022600000     1.3064860000
 ----------------------------------------------------------------

   10   -2754.2428083234      9.33e-07  Convergence criterion met
 Total energy in the final basis set =    -2754.2428083234
        RIMP2         total energy =     -2759.3099096550 a.u.

                    Orbital Energies (a.u.)
 --------------------------------------------------------------

 Alpha MOs
 -- Occupied --
-92.0166 -92.0123 -91.9826 -91.9820 -26.3476 -20.6163 -20.5903 -20.5853
-20.5629 -11.4117 -11.3887 -11.3397 -11.3245 -11.3158 -11.3072 -11.3000
-11.2981 -11.2913 -11.2899 -11.2860 -11.2827 -11.2798 -11.2768 -11.2740
-11.2730 -11.2558 -11.2500 -11.2466 -11.2308  -9.0164  -9.0121  -8.9839
 -8.9819  -6.6970  -6.6961  -6.6959  -6.6929  -6.6922  -6.6912  -6.6649
 -6.6641  -6.6632  -6.6629  -6.6623  -6.6615  -1.6645  -1.4690  -1.4141
 -1.4082  -1.3717  -1.2374  -1.1889  -1.1653  -1.1409  -1.0863  -1.0483
 -1.0453  -1.0294  -0.9958  -0.9882  -0.9672  -0.9572  -0.9477  -0.9391
 -0.8927  -0.8737  -0.8444  -0.8126  -0.7992  -0.7871  -0.7813  -0.7610
 -0.7565  -0.7299  -0.7291  -0.7154  -0.6992  -0.6875  -0.6837  -0.6795
 -0.6754  -0.6614  -0.6564  -0.6488  -0.6296  -0.6164  -0.6159  -0.6061
 -0.6028  -0.5825  -0.5780  -0.5702  -0.5638  -0.5606  -0.5565  -0.5421
 -0.5342  -0.5309  -0.5215  -0.5149  -0.5143  -0.5091  -0.5036  -0.4959
 -0.4879  -0.4809  -0.4774  -0.4744  -0.4673  -0.4582  -0.4552  -0.4245
 -0.3914  -0.3791  -0.3630  -0.3443  -0.3291  -0.2892  -0.2444

          Ground-State Mulliken Net Atomic Charges

     Atom                 Charge (a.u.)
  ----------------------------------------
      1 C                    -0.202518
      2 C                    -0.253192
      3 S                    -0.030079
      4 C                    -0.027517
      5 H                     0.194535
      6 C                    -0.022027
      7 C                     0.227883
      8 C                     0.248565
      9 C                    -0.053261
     10 C                    -0.007790
     11 O                    -0.333650
     12 O                    -0.343482
     13 C                    -0.086347
     14 H                     0.121743
     15 H                     0.090520
     16 H                     0.091528
     17 C                    -0.087742
     18 H                     0.125127
     19 H                     0.094539
     20 H                     0.088490
     21 C                    -0.283922
     22 S                    -0.049423
     23 C                     0.003383
     24 H                     0.189158
     25 H                     0.203904
     26 C                    -0.149277
     27 S                     0.121501
     28 C                    -0.114912
     29 C                     0.079254
     30 C                    -0.113147
     31 S                     0.076239
     32 C                    -0.159068
     33 C                     0.398147
     34 F                    -0.203556
     35 C                     0.450620
     36 O                    -0.461676
     37 O                    -0.301165
     38 C                    -0.058034
     39 H                     0.121741
     40 H                     0.095481
     41 H                     0.095371
     42 H                     0.224055
  ----------------------------------------
  Sum of atomic charges =     0.000000

                    Cartesian Multipole Moments
 -----------------------------------------------------------------
    Charge (ESU x 10^10)
                -0.0000
    Dipole Moment (Debye)
         X       4.1344      Y       2.8472      Z       3.0556
       Tot       5.8767
    Quadrupole Moments (Debye-Ang)
        XX    -183.9379     XY       7.3042     YY    -185.5921
        XZ     -15.0096     YZ      -5.4805     ZZ    -183.5139

 Total job time:  14830.07s(wall), 11261.49s(cpu)
        *  Thank you very much for using Q-Chem.  Have a nice day.  *
