 Q-Chem 5.4, Q-Chem, Inc., Pleasanton, CA (2021)
 Q-Chem 5.4.0 for Intel X86 EM64T Linux

User input:
--------------------------------------------------------------
$molecule
0 1
C	0.236226	-8.517702	-0.217225
C	-0.448921	-7.641575	0.611939
S	1.218777	-7.638634	-1.413715
C	-0.206907	-6.264785	0.323572
H	-1.118185	-7.966081	1.418739
C	0.711285	-6.072714	-0.768156
C	1.053725	-4.787049	-1.215016
C	-0.804258	-5.162801	0.999917
C	-0.464908	-3.874817	0.550033
C	0.456457	-3.683952	-0.541024
O	-1.630752	-5.499772	2.028811
O	1.883064	-4.459055	-2.249357
C	2.956754	-5.329063	-2.586579
H	3.619069	-4.755694	-3.262802
H	2.609423	-6.238095	-3.124711
H	3.531667	-5.637262	-1.686639
C	-2.599073	-4.572261	2.503251
H	-3.260097	-5.139743	3.185356
H	-3.207034	-4.153131	1.672937
H	-2.135214	-3.739531	3.075213
C	0.694410	-2.306654	-0.828107
S	-0.983256	-2.306501	1.188794
C	-0.000000	-1.435185	-0.000000
H	1.364851	-1.978138	-1.632185
H	0.234980	-9.614033	-0.221288
C	0.000000	0.000000	0.000000
S	0.382799	0.819795	1.507541
C	1.046687	2.245325	0.718873
C	0.382918	0.819389	-1.067872
C	0.968323	2.080267	-0.686410
S	0.282561	0.597432	-2.805516
C	1.017839	2.187324	-3.054530
C	1.314960	2.830306	-1.862551
F	1.875498	4.043751	-1.819088
C	1.208895	2.592573	-4.456084
O	0.890778	1.891482	-5.406510
O	1.772886	3.819715	-4.569225
C	1.986852	4.266207	-5.916207
H	2.445834	5.267032	-5.833064
H	1.028114	4.323448	-6.470168
H	2.661066	3.573494	-6.459293
H	1.436015	3.083584	1.306486
$end

$rem
JOBTYPE		SP
EXCHANGE	HF
CORRELATION	pRIMP2
BASIS		cc-pvtz
METHOD		rimp2
AUX_BASIS	rimp2-cc-pvtz
SOLVENT_METHOD	PCM
PURECART	11111
SYMMETRY	false
MEM_TOTAL	110000
SCF_CONVERGENCE = 6
THRESH=10
GUI = 2
$end

$solvent
dielectric 4.90
$end
--------------------------------------------------------------

             Standard Nuclear Orientation (Angstroms)
    I     Atom           X                Y                Z
 ----------------------------------------------------------------
    1      C       0.2362260000    -8.5177020000    -0.2172250000
    2      C      -0.4489210000    -7.6415750000     0.6119390000
    3      S       1.2187770000    -7.6386340000    -1.4137150000
    4      C      -0.2069070000    -6.2647850000     0.3235720000
    5      H      -1.1181850000    -7.9660810000     1.4187390000
    6      C       0.7112850000    -6.0727140000    -0.7681560000
    7      C       1.0537250000    -4.7870490000    -1.2150160000
    8      C      -0.8042580000    -5.1628010000     0.9999170000
    9      C      -0.4649080000    -3.8748170000     0.5500330000
   10      C       0.4564570000    -3.6839520000    -0.5410240000
   11      O      -1.6307520000    -5.4997720000     2.0288110000
   12      O       1.8830640000    -4.4590550000    -2.2493570000
   13      C       2.9567540000    -5.3290630000    -2.5865790000
   14      H       3.6190690000    -4.7556940000    -3.2628020000
   15      H       2.6094230000    -6.2380950000    -3.1247110000
   16      H       3.5316670000    -5.6372620000    -1.6866390000
   17      C      -2.5990730000    -4.5722610000     2.5032510000
   18      H      -3.2600970000    -5.1397430000     3.1853560000
   19      H      -3.2070340000    -4.1531310000     1.6729370000
   20      H      -2.1352140000    -3.7395310000     3.0752130000
   21      C       0.6944100000    -2.3066540000    -0.8281070000
   22      S      -0.9832560000    -2.3065010000     1.1887940000
   23      C       0.0000000000    -1.4351850000     0.0000000000
   24      H       1.3648510000    -1.9781380000    -1.6321850000
   25      H       0.2349800000    -9.6140330000    -0.2212880000
   26      C       0.0000000000     0.0000000000     0.0000000000
   27      S       0.3827990000     0.8197950000     1.5075410000
   28      C       1.0466870000     2.2453250000     0.7188730000
   29      C       0.3829180000     0.8193890000    -1.0678720000
   30      C       0.9683230000     2.0802670000    -0.6864100000
   31      S       0.2825610000     0.5974320000    -2.8055160000
   32      C       1.0178390000     2.1873240000    -3.0545300000
   33      C       1.3149600000     2.8303060000    -1.8625510000
   34      F       1.8754980000     4.0437510000    -1.8190880000
   35      C       1.2088950000     2.5925730000    -4.4560840000
   36      O       0.8907780000     1.8914820000    -5.4065100000
   37      O       1.7728860000     3.8197150000    -4.5692250000
   38      C       1.9868520000     4.2662070000    -5.9162070000
   39      H       2.4458340000     5.2670320000    -5.8330640000
   40      H       1.0281140000     4.3234480000    -6.4701680000
   41      H       2.6610660000     3.5734940000    -6.4592930000
   42      H       1.4360150000     3.0835840000     1.3064860000
 ----------------------------------------------------------------

   10   -2754.3059538477      7.46e-07  Convergence criterion met
 Total energy in the final basis set =    -2754.3059538477
        RIMP2         total energy =     -2759.3595840090 a.u.

                    Orbital Energies (a.u.)
 --------------------------------------------------------------

 Alpha MOs
 -- Occupied --
-92.0151 -91.9993 -91.9885 -91.9859 -26.3434 -20.6147 -20.5924 -20.5905
-20.5612 -11.4094 -11.3825 -11.3191 -11.3167 -11.3137 -11.3031 -11.2975
-11.2956 -11.2946 -11.2888 -11.2871 -11.2856 -11.2854 -11.2854 -11.2837
-11.2790 -11.2607 -11.2580 -11.2538 -11.2496  -9.0138  -8.9993  -8.9891
 -8.9858  -6.6945  -6.6939  -6.6934  -6.6803  -6.6795  -6.6784  -6.6701
 -6.6694  -6.6685  -6.6668  -6.6662  -6.6653  -1.6605  -1.4672  -1.4164
 -1.4133  -1.3699  -1.2229  -1.1939  -1.1654  -1.1367  -1.0849  -1.0514
 -1.0422  -1.0234  -1.0008  -0.9878  -0.9632  -0.9597  -0.9501  -0.9393
 -0.8955  -0.8681  -0.8502  -0.8083  -0.7980  -0.7875  -0.7861  -0.7640
 -0.7553  -0.7335  -0.7254  -0.7100  -0.7015  -0.6852  -0.6827  -0.6808
 -0.6738  -0.6589  -0.6581  -0.6521  -0.6301  -0.6195  -0.6168  -0.6045
 -0.5984  -0.5826  -0.5776  -0.5708  -0.5653  -0.5616  -0.5549  -0.5492
 -0.5327  -0.5304  -0.5240  -0.5160  -0.5157  -0.5074  -0.5069  -0.4958
 -0.4877  -0.4809  -0.4760  -0.4737  -0.4687  -0.4666  -0.4599  -0.4184
 -0.3948  -0.3853  -0.3586  -0.3503  -0.3243  -0.2909  -0.2525

          Ground-State Mulliken Net Atomic Charges

     Atom                 Charge (a.u.)
  ----------------------------------------
      1 C                    -0.190354
      2 C                    -0.253764
      3 S                    -0.022598
      4 C                    -0.017874
      5 H                     0.196115
      6 C                    -0.028214
      7 C                     0.239887
      8 C                     0.244913
      9 C                    -0.044293
     10 C                    -0.021861
     11 O                    -0.333409
     12 O                    -0.339536
     13 C                    -0.085903
     14 H                     0.122843
     15 H                     0.091080
     16 H                     0.093469
     17 C                    -0.087281
     18 H                     0.125441
     19 H                     0.095122
     20 H                     0.089096
     21 C                    -0.231105
     22 S                    -0.025439
     23 C                     0.000660
     24 H                     0.201629
     25 H                     0.206140
     26 C                    -0.025444
     27 S                     0.112151
     28 C                    -0.190990
     29 C                    -0.049351
     30 C                    -0.086766
     31 S                     0.025212
     32 C                    -0.156913
     33 C                     0.400377
     34 F                    -0.206927
     35 C                     0.444173
     36 O                    -0.460918
     37 O                    -0.300877
     38 C                    -0.058426
     39 H                     0.121380
     40 H                     0.095260
     41 H                     0.095051
     42 H                     0.218244
  ----------------------------------------
  Sum of atomic charges =     0.000000

                    Cartesian Multipole Moments
 -----------------------------------------------------------------
    Charge (ESU x 10^10)
                 0.0000
    Dipole Moment (Debye)
         X       1.4178      Y       1.2179      Z       3.1396
       Tot       3.6539
    Quadrupole Moments (Debye-Ang)
        XX    -183.0186     XY       5.0826     YY    -163.6376
        XZ     -15.1054     YZ      -7.4304     ZZ    -197.3340

 Total job time:  295.50s(wall), 9775.07s(cpu)
        *  Thank you very much for using Q-Chem.  Have a nice day.  *
