 Q-Chem 5.4, Q-Chem, Inc., Pleasanton, CA (2021)
 Q-Chem 5.4.0 for Intel X86 EM64T Linux

User input:
--------------------------------------------------------------
$molecule
0 1
C	0.123330	-8.517702	0.296276
C	-0.421494	-7.641575	-0.631143
S	0.911611	-7.638634	1.628795
C	-0.233291	-6.264785	-0.305097
H	-0.950737	-7.966081	-1.535988
C	0.478557	-6.072714	0.931114
C	0.781346	-4.787049	1.405737
C	-0.664542	-5.162801	-1.097747
C	-0.357854	-3.874817	-0.624993
C	0.352278	-3.683952	0.613970
O	-1.348709	-5.499772	-2.226300
O	1.469658	-4.459055	2.538827
C	1.419319	-5.329063	3.663102
H	1.828237	-4.755694	4.516756
H	2.043793	-6.238095	3.520769
H	0.377021	-5.637262	3.895546
C	-1.463351	-4.572261	-3.298492
H	-1.878237	-5.139743	-4.152945
H	-0.475176	-4.153131	-3.585804
H	-2.159469	-3.739531	-3.058230
C	0.540664	-2.306654	0.935761
S	-0.780808	-2.306501	-1.330550
C	0.000000	-1.435185	0.000000
H	1.066946	-1.978138	1.840780
H	0.127575	-9.614033	0.296494
C	0.000000	0.000000	0.000000
S	0.000474	0.904764	1.507541
C	-0.000295	2.477305	0.718873
C	0.000752	0.904447	-1.067872
C	-0.001560	2.294593	-0.686410
S	0.003602	0.660872	-2.805516
C	-0.001928	2.412546	-3.054530
C	-0.004381	3.120854	-1.862551
F	-0.009185	4.457503	-1.819088
C	-0.000038	2.860570	-4.456084
O	0.007944	2.090724	-5.406510
O	-0.007501	4.211092	-4.569225
C	-0.002278	4.706177	-5.916207
H	-0.009265	5.807207	-5.833064
H	-0.895381	4.352875	-6.470168
H	0.901521	4.363301	-6.459293
H	-0.001708	3.401562	1.306486
$end

$rem
JOBTYPE		SP
EXCHANGE	HF
CORRELATION	pRIMP2
BASIS		cc-pvtz
METHOD		rimp2
AUX_BASIS	rimp2-cc-pvtz
SOLVENT_METHOD	PCM
PURECART	11111
SYMMETRY	false
MEM_TOTAL	110000
SCF_CONVERGENCE = 6
THRESH=10
GUI = 2
$end

$solvent
dielectric 4.90
$end
--------------------------------------------------------------

             Standard Nuclear Orientation (Angstroms)
    I     Atom           X                Y                Z
 ----------------------------------------------------------------
    1      C       0.1233300000    -8.5177020000     0.2962760000
    2      C      -0.4214940000    -7.6415750000    -0.6311430000
    3      S       0.9116110000    -7.6386340000     1.6287950000
    4      C      -0.2332910000    -6.2647850000    -0.3050970000
    5      H      -0.9507370000    -7.9660810000    -1.5359880000
    6      C       0.4785570000    -6.0727140000     0.9311140000
    7      C       0.7813460000    -4.7870490000     1.4057370000
    8      C      -0.6645420000    -5.1628010000    -1.0977470000
    9      C      -0.3578540000    -3.8748170000    -0.6249930000
   10      C       0.3522780000    -3.6839520000     0.6139700000
   11      O      -1.3487090000    -5.4997720000    -2.2263000000
   12      O       1.4696580000    -4.4590550000     2.5388270000
   13      C       1.4193190000    -5.3290630000     3.6631020000
   14      H       1.8282370000    -4.7556940000     4.5167560000
   15      H       2.0437930000    -6.2380950000     3.5207690000
   16      H       0.3770210000    -5.6372620000     3.8955460000
   17      C      -1.4633510000    -4.5722610000    -3.2984920000
   18      H      -1.8782370000    -5.1397430000    -4.1529450000
   19      H      -0.4751760000    -4.1531310000    -3.5858040000
   20      H      -2.1594690000    -3.7395310000    -3.0582300000
   21      C       0.5406640000    -2.3066540000     0.9357610000
   22      S      -0.7808080000    -2.3065010000    -1.3305500000
   23      C       0.0000000000    -1.4351850000     0.0000000000
   24      H       1.0669460000    -1.9781380000     1.8407800000
   25      H       0.1275750000    -9.6140330000     0.2964940000
   26      C       0.0000000000     0.0000000000     0.0000000000
   27      S       0.0004740000     0.9047640000     1.5075410000
   28      C      -0.0002950000     2.4773050000     0.7188730000
   29      C       0.0007520000     0.9044470000    -1.0678720000
   30      C      -0.0015600000     2.2945930000    -0.6864100000
   31      S       0.0036020000     0.6608720000    -2.8055160000
   32      C      -0.0019280000     2.4125460000    -3.0545300000
   33      C      -0.0043810000     3.1208540000    -1.8625510000
   34      F      -0.0091850000     4.4575030000    -1.8190880000
   35      C      -0.0000380000     2.8605700000    -4.4560840000
   36      O       0.0079440000     2.0907240000    -5.4065100000
   37      O      -0.0075010000     4.2110920000    -4.5692250000
   38      C      -0.0022780000     4.7061770000    -5.9162070000
   39      H      -0.0092650000     5.8072070000    -5.8330640000
   40      H      -0.8953810000     4.3528750000    -6.4701680000
   41      H       0.9015210000     4.3633010000    -6.4592930000
   42      H      -0.0017080000     3.4015620000     1.3064860000
 ----------------------------------------------------------------

   10   -2754.3168611372      7.48e-07  Convergence criterion met
 Total energy in the final basis set =    -2754.3168611372
        RIMP2         total energy =     -2759.3689781192 a.u.

                    Orbital Energies (a.u.)
 --------------------------------------------------------------

 Alpha MOs
 -- Occupied --
-92.0154 -91.9978 -91.9911 -91.9865 -26.3430 -20.6146 -20.5925 -20.5917
-20.5611 -11.4092 -11.3820 -11.3200 -11.3177 -11.3091 -11.3015 -11.2997
-11.2970 -11.2969 -11.2887 -11.2867 -11.2867 -11.2864 -11.2851 -11.2845
-11.2796 -11.2621 -11.2588 -11.2562 -11.2501  -9.0138  -8.9978  -8.9916
 -8.9864  -6.6946  -6.6940  -6.6935  -6.6788  -6.6781  -6.6770  -6.6725
 -6.6719  -6.6709  -6.6674  -6.6668  -6.6659  -1.6601  -1.4671  -1.4166
 -1.4144  -1.3698  -1.2216  -1.1950  -1.1661  -1.1360  -1.0858  -1.0524
 -1.0412  -1.0234  -1.0024  -0.9883  -0.9640  -0.9587  -0.9501  -0.9404
 -0.8961  -0.8676  -0.8521  -0.8141  -0.7919  -0.7877  -0.7867  -0.7653
 -0.7553  -0.7343  -0.7249  -0.7100  -0.6991  -0.6855  -0.6836  -0.6813
 -0.6737  -0.6593  -0.6579  -0.6528  -0.6308  -0.6201  -0.6169  -0.6035
 -0.5973  -0.5854  -0.5779  -0.5695  -0.5677  -0.5621  -0.5564  -0.5529
 -0.5322  -0.5297  -0.5227  -0.5188  -0.5177  -0.5105  -0.5061  -0.4947
 -0.4882  -0.4790  -0.4769  -0.4741  -0.4704  -0.4654  -0.4601  -0.4221
 -0.3952  -0.3859  -0.3597  -0.3506  -0.3247  -0.2906  -0.2515

          Ground-State Mulliken Net Atomic Charges

     Atom                 Charge (a.u.)
  ----------------------------------------
      1 C                    -0.189314
      2 C                    -0.253258
      3 S                    -0.022324
      4 C                    -0.015326
      5 H                     0.196498
      6 C                    -0.027819
      7 C                     0.241448
      8 C                     0.241141
      9 C                    -0.041989
     10 C                    -0.020849
     11 O                    -0.333045
     12 O                    -0.340552
     13 C                    -0.085692
     14 H                     0.122423
     15 H                     0.091257
     16 H                     0.093943
     17 C                    -0.088605
     18 H                     0.125463
     19 H                     0.095996
     20 H                     0.090143
     21 C                    -0.261407
     22 S                    -0.021844
     23 C                     0.015095
     24 H                     0.192130
     25 H                     0.206373
     26 C                     0.014087
     27 S                     0.094908
     28 C                    -0.186433
     29 C                    -0.008747
     30 C                    -0.117307
     31 S                     0.004632
     32 C                    -0.159229
     33 C                     0.401933
     34 F                    -0.207146
     35 C                     0.443839
     36 O                    -0.461046
     37 O                    -0.300543
     38 C                    -0.058711
     39 H                     0.121393
     40 H                     0.095056
     41 H                     0.095084
     42 H                     0.218345
  ----------------------------------------
  Sum of atomic charges =     0.000000

                    Cartesian Multipole Moments
 -----------------------------------------------------------------
    Charge (ESU x 10^10)
                 0.0000
    Dipole Moment (Debye)
         X      -0.3148      Y       1.0070      Z       2.9715
       Tot       3.1532
    Quadrupole Moments (Debye-Ang)
        XX    -200.1873     XY       1.2937     YY    -159.6091
        XZ       7.0481     YZ      -8.0313     ZZ    -183.1713

 Total job time:  308.11s(wall), 9313.38s(cpu)
        *  Thank you very much for using Q-Chem.  Have a nice day.  *
