 Q-Chem 5.4, Q-Chem, Inc., Pleasanton, CA (2021)
 Q-Chem 5.4.0 for Intel X86 EM64T Linux

User input:
--------------------------------------------------------------
$molecule
0 1
C	0.014560	-8.517702	0.320589
C	-0.180211	-7.641575	-0.737240
S	0.299553	-7.638634	1.842356
C	-0.114873	-6.264785	-0.366488
H	-0.368061	-7.966081	-1.768528
C	0.131236	-6.072714	1.038637
C	0.253435	-4.787049	1.588197
C	-0.249014	-5.162801	-1.258831
C	-0.122513	-3.874817	-0.709695
C	0.121043	-3.683952	0.697430
O	-0.505933	-5.499772	-2.553323
O	0.512697	-4.459055	2.888369
C	0.080869	-5.329063	3.927625
H	0.173159	-4.755694	4.869656
H	0.716363	-6.238095	4.007459
H	-0.978072	-5.637262	3.789565
C	-0.246949	-4.572261	-3.600064
H	-0.344574	-5.139743	-4.544887
H	0.779898	-4.153131	-3.532074
H	-0.983261	-3.739531	-3.612378
C	0.188009	-2.306654	1.064246
S	-0.278644	-2.306501	-1.517360
C	-0.000000	-1.435185	-0.000000
H	0.373017	-1.978138	2.094685
H	0.018474	-9.614033	0.322246
C	0.000000	0.000000	0.000000
S	0.783786	0.451972	1.507541
C	2.145261	1.238908	0.718873
C	0.783650	0.451572	-1.067872
C	1.986396	1.148648	-0.686410
S	0.574133	0.327317	-2.805516
C	2.088363	1.207943	-3.054530
C	2.700548	1.564221	-1.862551
F	3.855718	2.236706	-1.819088
C	2.477307	1.430318	-4.456084
O	1.814592	1.038482	-5.406510
O	3.643162	2.112042	-4.569225
C	4.074530	2.355061	-5.916207
H	5.024556	2.911627	-5.833064
H	3.322010	2.951860	-6.470168
H	4.229490	1.400910	-6.459293
H	2.944986	1.702260	1.306486
$end

$rem
JOBTYPE		SP
EXCHANGE	HF
CORRELATION	pRIMP2
BASIS		cc-pvtz
METHOD		rimp2
AUX_BASIS	rimp2-cc-pvtz
SOLVENT_METHOD	PCM
PURECART	11111
SYMMETRY	false
MEM_TOTAL	110000
SCF_CONVERGENCE = 6
THRESH=10
GUI = 2
$end

$solvent
dielectric 4.90
$end
--------------------------------------------------------------

             Standard Nuclear Orientation (Angstroms)
    I     Atom           X                Y                Z
 ----------------------------------------------------------------
    1      C       0.0145600000    -8.5177020000     0.3205890000
    2      C      -0.1802110000    -7.6415750000    -0.7372400000
    3      S       0.2995530000    -7.6386340000     1.8423560000
    4      C      -0.1148730000    -6.2647850000    -0.3664880000
    5      H      -0.3680610000    -7.9660810000    -1.7685280000
    6      C       0.1312360000    -6.0727140000     1.0386370000
    7      C       0.2534350000    -4.7870490000     1.5881970000
    8      C      -0.2490140000    -5.1628010000    -1.2588310000
    9      C      -0.1225130000    -3.8748170000    -0.7096950000
   10      C       0.1210430000    -3.6839520000     0.6974300000
   11      O      -0.5059330000    -5.4997720000    -2.5533230000
   12      O       0.5126970000    -4.4590550000     2.8883690000
   13      C       0.0808690000    -5.3290630000     3.9276250000
   14      H       0.1731590000    -4.7556940000     4.8696560000
   15      H       0.7163630000    -6.2380950000     4.0074590000
   16      H      -0.9780720000    -5.6372620000     3.7895650000
   17      C      -0.2469490000    -4.5722610000    -3.6000640000
   18      H      -0.3445740000    -5.1397430000    -4.5448870000
   19      H       0.7798980000    -4.1531310000    -3.5320740000
   20      H      -0.9832610000    -3.7395310000    -3.6123780000
   21      C       0.1880090000    -2.3066540000     1.0642460000
   22      S      -0.2786440000    -2.3065010000    -1.5173600000
   23      C       0.0000000000    -1.4351850000     0.0000000000
   24      H       0.3730170000    -1.9781380000     2.0946850000
   25      H       0.0184740000    -9.6140330000     0.3222460000
   26      C       0.0000000000     0.0000000000     0.0000000000
   27      S       0.7837860000     0.4519720000     1.5075410000
   28      C       2.1452610000     1.2389080000     0.7188730000
   29      C       0.7836500000     0.4515720000    -1.0678720000
   30      C       1.9863960000     1.1486480000    -0.6864100000
   31      S       0.5741330000     0.3273170000    -2.8055160000
   32      C       2.0883630000     1.2079430000    -3.0545300000
   33      C       2.7005480000     1.5642210000    -1.8625510000
   34      F       3.8557180000     2.2367060000    -1.8190880000
   35      C       2.4773070000     1.4303180000    -4.4560840000
   36      O       1.8145920000     1.0384820000    -5.4065100000
   37      O       3.6431620000     2.1120420000    -4.5692250000
   38      C       4.0745300000     2.3550610000    -5.9162070000
   39      H       5.0245560000     2.9116270000    -5.8330640000
   40      H       3.3220100000     2.9518600000    -6.4701680000
   41      H       4.2294900000     1.4009100000    -6.4592930000
   42      H       2.9449860000     1.7022600000     1.3064860000
 ----------------------------------------------------------------

   10   -2754.2431980010      7.91e-07  Convergence criterion met
 Total energy in the final basis set =    -2754.2431980010
        RIMP2         total energy =     -2759.3096958369 a.u.

                    Orbital Energies (a.u.)
 --------------------------------------------------------------

 Alpha MOs
 -- Occupied --
-92.0141 -92.0120 -91.9815 -91.9814 -26.3477 -20.6165 -20.5897 -20.5853
-20.5632 -11.4119 -11.3889 -11.3409 -11.3270 -11.3156 -11.3061 -11.3000
-11.3000 -11.2912 -11.2901 -11.2849 -11.2831 -11.2794 -11.2757 -11.2754
-11.2722 -11.2556 -11.2489 -11.2462 -11.2309  -9.0139  -9.0119  -8.9829
 -8.9815  -6.6945  -6.6936  -6.6934  -6.6927  -6.6920  -6.6910  -6.6638
 -6.6631  -6.6625  -6.6621  -6.6619  -6.6610  -1.6646  -1.4692  -1.4135
 -1.4082  -1.3720  -1.2382  -1.1885  -1.1647  -1.1410  -1.0871  -1.0476
 -1.0443  -1.0304  -0.9965  -0.9874  -0.9678  -0.9545  -0.9468  -0.9418
 -0.8911  -0.8742  -0.8429  -0.8210  -0.7959  -0.7839  -0.7801  -0.7629
 -0.7558  -0.7293  -0.7288  -0.7144  -0.6974  -0.6876  -0.6842  -0.6787
 -0.6757  -0.6618  -0.6557  -0.6488  -0.6304  -0.6161  -0.6149  -0.6058
 -0.6030  -0.5852  -0.5810  -0.5697  -0.5647  -0.5605  -0.5523  -0.5473
 -0.5338  -0.5289  -0.5234  -0.5169  -0.5119  -0.5099  -0.5034  -0.4928
 -0.4846  -0.4823  -0.4780  -0.4741  -0.4656  -0.4593  -0.4543  -0.4261
 -0.3856  -0.3793  -0.3592  -0.3545  -0.3231  -0.2920  -0.2433

          Ground-State Mulliken Net Atomic Charges

     Atom                 Charge (a.u.)
  ----------------------------------------
      1 C                    -0.204373
      2 C                    -0.251822
      3 S                    -0.031982
      4 C                    -0.028583
      5 H                     0.194682
      6 C                    -0.019974
      7 C                     0.219269
      8 C                     0.245952
      9 C                    -0.045073
     10 C                     0.002169
     11 O                    -0.333443
     12 O                    -0.343734
     13 C                    -0.085546
     14 H                     0.120085
     15 H                     0.089822
     16 H                     0.092188
     17 C                    -0.087592
     18 H                     0.124713
     19 H                     0.093980
     20 H                     0.089534
     21 C                    -0.320623
     22 S                    -0.046661
     23 C                     0.026830
     24 H                     0.180588
     25 H                     0.203639
     26 C                    -0.145665
     27 S                     0.111808
     28 C                    -0.102339
     29 C                     0.110625
     30 C                    -0.131211
     31 S                     0.069412
     32 C                    -0.160567
     33 C                     0.401847
     34 F                    -0.203327
     35 C                     0.449908
     36 O                    -0.462024
     37 O                    -0.301125
     38 C                    -0.058106
     39 H                     0.121834
     40 H                     0.095416
     41 H                     0.095374
     42 H                     0.224096
  ----------------------------------------
  Sum of atomic charges =     0.000000

                    Cartesian Multipole Moments
 -----------------------------------------------------------------
    Charge (ESU x 10^10)
                -0.0000
    Dipole Moment (Debye)
         X       3.7419      Y       3.0794      Z       1.6472
       Tot       5.1184
    Quadrupole Moments (Debye-Ang)
        XX    -187.6944     XY       9.8949     YY    -187.3613
        XZ      -8.0119     YZ      -1.4911     ZZ    -179.5910

 Total job time:  329.47s(wall), 10351.55s(cpu)
        *  Thank you very much for using Q-Chem.  Have a nice day.  *
