 Q-Chem 5.4, Q-Chem, Inc., Pleasanton, CA (2021)
 Q-Chem 5.4.0 for Intel X86 EM64T Linux

User input:
--------------------------------------------------------------
$molecule
0 1
C	-0.194917	-8.517702	0.254945
C	0.335839	-7.641575	-0.680596
S	-0.954772	-7.638634	1.603876
C	0.147576	-6.264785	-0.354585
H	0.854836	-7.966081	-1.591356
C	-0.567090	-6.072714	0.879999
C	-0.826731	-4.787049	1.379534
C	0.618405	-5.162801	-1.124384
C	0.362333	-3.874817	-0.622407
C	-0.355575	-3.683952	0.612067
O	1.253677	-5.499772	-2.281166
O	-1.463859	-4.459055	2.542174
C	-2.462679	-5.329063	3.060718
H	-2.997507	-4.755694	3.841678
H	-2.027179	-6.238095	3.530361
H	-3.185132	-5.637262	2.274283
C	2.124902	-4.572261	-2.916545
H	2.657438	-5.139743	-3.703073
H	2.867810	-4.153131	-2.204417
H	1.568770	-3.739531	-3.399269
C	-0.540061	-2.306654	0.936109
S	0.761887	-2.306501	-1.341474
C	-0.000000	-1.435185	-0.000000
H	-1.060690	-1.978138	1.844392
H	-0.192984	-9.614033	0.258730
C	0.000000	0.000000	0.000000
S	0.157577	0.890937	1.507541
C	0.429889	2.439720	0.718873
C	0.157797	0.890576	-1.067872
C	0.396915	2.260004	-0.686410
S	0.118307	0.650207	-2.805516
C	0.417036	2.376229	-3.054530
C	0.537616	3.074202	-1.862551
F	0.764992	4.391378	-1.819088
C	0.496696	2.817118	-4.456084
O	0.370874	2.057582	-5.406510
O	0.723861	4.148418	-4.569225
C	0.814976	4.635075	-5.916207
H	0.999286	5.720591	-5.833064
H	-0.125909	4.442226	-6.470168
H	1.645504	4.140465	-6.459293
H	0.588993	3.350182	1.306486
$end

$rem
JOBTYPE		SP
EXCHANGE	HF
CORRELATION	pRIMP2
BASIS		cc-pvtz
METHOD		rimp2
AUX_BASIS	rimp2-cc-pvtz
SOLVENT_METHOD	PCM
PURECART	11111
SYMMETRY	false
MEM_TOTAL	110000
SCF_CONVERGENCE = 6
THRESH=10
GUI = 2
$end

$solvent
dielectric 4.90
$end
--------------------------------------------------------------

             Standard Nuclear Orientation (Angstroms)
    I     Atom           X                Y                Z
 ----------------------------------------------------------------
    1      C      -0.1949170000    -8.5177020000     0.2549450000
    2      C       0.3358390000    -7.6415750000    -0.6805960000
    3      S      -0.9547720000    -7.6386340000     1.6038760000
    4      C       0.1475760000    -6.2647850000    -0.3545850000
    5      H       0.8548360000    -7.9660810000    -1.5913560000
    6      C      -0.5670900000    -6.0727140000     0.8799990000
    7      C      -0.8267310000    -4.7870490000     1.3795340000
    8      C       0.6184050000    -5.1628010000    -1.1243840000
    9      C       0.3623330000    -3.8748170000    -0.6224070000
   10      C      -0.3555750000    -3.6839520000     0.6120670000
   11      O       1.2536770000    -5.4997720000    -2.2811660000
   12      O      -1.4638590000    -4.4590550000     2.5421740000
   13      C      -2.4626790000    -5.3290630000     3.0607180000
   14      H      -2.9975070000    -4.7556940000     3.8416780000
   15      H      -2.0271790000    -6.2380950000     3.5303610000
   16      H      -3.1851320000    -5.6372620000     2.2742830000
   17      C       2.1249020000    -4.5722610000    -2.9165450000
   18      H       2.6574380000    -5.1397430000    -3.7030730000
   19      H       2.8678100000    -4.1531310000    -2.2044170000
   20      H       1.5687700000    -3.7395310000    -3.3992690000
   21      C      -0.5400610000    -2.3066540000     0.9361090000
   22      S       0.7618870000    -2.3065010000    -1.3414740000
   23      C       0.0000000000    -1.4351850000     0.0000000000
   24      H      -1.0606900000    -1.9781380000     1.8443920000
   25      H      -0.1929840000    -9.6140330000     0.2587300000
   26      C       0.0000000000     0.0000000000     0.0000000000
   27      S       0.1575770000     0.8909370000     1.5075410000
   28      C       0.4298890000     2.4397200000     0.7188730000
   29      C       0.1577970000     0.8905760000    -1.0678720000
   30      C       0.3969150000     2.2600040000    -0.6864100000
   31      S       0.1183070000     0.6502070000    -2.8055160000
   32      C       0.4170360000     2.3762290000    -3.0545300000
   33      C       0.5376160000     3.0742020000    -1.8625510000
   34      F       0.7649920000     4.3913780000    -1.8190880000
   35      C       0.4966960000     2.8171180000    -4.4560840000
   36      O       0.3708740000     2.0575820000    -5.4065100000
   37      O       0.7238610000     4.1484180000    -4.5692250000
   38      C       0.8149760000     4.6350750000    -5.9162070000
   39      H       0.9992860000     5.7205910000    -5.8330640000
   40      H      -0.1259090000     4.4422260000    -6.4701680000
   41      H       1.6455040000     4.1404650000    -6.4592930000
   42      H       0.5889930000     3.3501820000     1.3064860000
 ----------------------------------------------------------------

   10   -2754.3146767632      7.56e-07  Convergence criterion met
 Total energy in the final basis set =    -2754.3146767632
        RIMP2         total energy =     -2759.3674661278 a.u.

                    Orbital Energies (a.u.)
 --------------------------------------------------------------

 Alpha MOs
 -- Occupied --
-92.0153 -91.9981 -91.9906 -91.9863 -26.3431 -20.6146 -20.5924 -20.5914
-20.5611 -11.4092 -11.3822 -11.3198 -11.3174 -11.3098 -11.3009 -11.2997
-11.2971 -11.2964 -11.2887 -11.2867 -11.2862 -11.2862 -11.2852 -11.2843
-11.2794 -11.2618 -11.2585 -11.2555 -11.2499  -9.0138  -8.9982  -8.9911
 -8.9863  -6.6945  -6.6939  -6.6934  -6.6791  -6.6784  -6.6773  -6.6721
 -6.6714  -6.6704  -6.6672  -6.6666  -6.6658  -1.6602  -1.4671  -1.4165
 -1.4142  -1.3698  -1.2219  -1.1947  -1.1659  -1.1361  -1.0857  -1.0522
 -1.0413  -1.0236  -1.0022  -0.9881  -0.9640  -0.9586  -0.9500  -0.9404
 -0.8959  -0.8677  -0.8517  -0.8142  -0.7919  -0.7875  -0.7863  -0.7652
 -0.7553  -0.7341  -0.7250  -0.7100  -0.6990  -0.6855  -0.6835  -0.6814
 -0.6737  -0.6592  -0.6580  -0.6526  -0.6307  -0.6200  -0.6169  -0.6038
 -0.5973  -0.5843  -0.5785  -0.5696  -0.5674  -0.5587  -0.5580  -0.5533
 -0.5323  -0.5296  -0.5247  -0.5180  -0.5166  -0.5103  -0.5067  -0.4959
 -0.4879  -0.4786  -0.4767  -0.4741  -0.4699  -0.4647  -0.4596  -0.4227
 -0.3955  -0.3853  -0.3591  -0.3509  -0.3250  -0.2899  -0.2513

          Ground-State Mulliken Net Atomic Charges

     Atom                 Charge (a.u.)
  ----------------------------------------
      1 C                    -0.189579
      2 C                    -0.253641
      3 S                    -0.022616
      4 C                    -0.017266
      5 H                     0.196440
      6 C                    -0.027003
      7 C                     0.240711
      8 C                     0.242567
      9 C                    -0.041227
     10 C                    -0.012039
     11 O                    -0.332927
     12 O                    -0.340414
     13 C                    -0.085681
     14 H                     0.122275
     15 H                     0.091123
     16 H                     0.094192
     17 C                    -0.089107
     18 H                     0.125808
     19 H                     0.094847
     20 H                     0.091288
     21 C                    -0.268378
     22 S                    -0.026480
     23 C                     0.015485
     24 H                     0.191602
     25 H                     0.206314
     26 C                     0.036915
     27 S                     0.104288
     28 C                    -0.192958
     29 C                    -0.051702
     30 C                    -0.101735
     31 S                     0.010308
     32 C                    -0.161062
     33 C                     0.404873
     34 F                    -0.207206
     35 C                     0.442910
     36 O                    -0.461008
     37 O                    -0.300663
     38 C                    -0.058638
     39 H                     0.121381
     40 H                     0.095195
     41 H                     0.095014
     42 H                     0.217793
  ----------------------------------------
  Sum of atomic charges =     0.000000

                    Cartesian Multipole Moments
 -----------------------------------------------------------------
    Charge (ESU x 10^10)
                 0.0000
    Dipole Moment (Debye)
         X       0.3815      Y       1.0662      Z       2.7096
       Tot       2.9367
    Quadrupole Moments (Debye-Ang)
        XX    -189.7898     XY       3.8851     YY    -160.4548
        XZ     -13.9300     YZ      -6.4986     ZZ    -192.9944

 Total job time:  296.54s(wall), 9377.55s(cpu)
        *  Thank you very much for using Q-Chem.  Have a nice day.  *
