 Q-Chem 5.4, Q-Chem, Inc., Pleasanton, CA (2021)
 Q-Chem 5.4.0 for Intel X86 EM64T Linux

User input:
--------------------------------------------------------------
$molecule
0 1
C	-0.296276	-8.517702	0.123330
C	0.631143	-7.641575	-0.421494
S	-1.628795	-7.638634	0.911611
C	0.305097	-6.264785	-0.233291
H	1.535988	-7.966081	-0.950737
C	-0.931114	-6.072714	0.478557
C	-1.405737	-4.787049	0.781346
C	1.097747	-5.162801	-0.664542
C	0.624993	-3.874817	-0.357854
C	-0.613970	-3.683952	0.352278
O	2.226300	-5.499772	-1.348709
O	-2.538827	-4.459055	1.469658
C	-3.663102	-5.329063	1.419319
H	-4.516756	-4.755694	1.828237
H	-3.520769	-6.238095	2.043793
H	-3.895546	-5.637262	0.377021
C	3.298492	-4.572261	-1.463351
H	4.152945	-5.139743	-1.878237
H	3.585804	-4.153131	-0.475176
H	3.058230	-3.739531	-2.159469
C	-0.935761	-2.306654	0.540664
S	1.330550	-2.306501	-0.780808
C	-0.000000	-1.435185	-0.000000
H	-1.840780	-1.978138	1.066946
H	-0.296494	-9.614033	0.127575
C	0.000000	0.000000	0.000000
S	0.309893	0.850039	1.507541
C	0.847011	2.328006	0.718873
C	0.310046	0.849645	-1.067872
C	0.783331	2.156746	-0.686410
S	0.229416	0.619785	-2.805516
C	0.823328	2.267711	-3.054530
C	1.063278	2.934142	-1.862551
F	1.515925	4.191824	-1.819088
C	0.978337	2.688069	-4.456084
O	0.722535	1.961921	-5.406510
O	1.433229	3.959697	-4.569225
C	1.607467	4.423139	-5.916207
H	1.977475	5.460158	-5.833064
H	0.647388	4.396602	-6.470168
H	2.339490	3.791823	-6.459293
H	1.161798	3.197007	1.306486
$end

$rem
JOBTYPE		SP
EXCHANGE	HF
CORRELATION	pRIMP2
BASIS		cc-pvtz
METHOD		rimp2
AUX_BASIS	rimp2-cc-pvtz
SOLVENT_METHOD	PCM
PURECART	11111
SYMMETRY	false
MEM_TOTAL	110000
SCF_CONVERGENCE = 6
THRESH=10
GUI = 2
$end

$solvent
dielectric 4.90
$end
--------------------------------------------------------------

             Standard Nuclear Orientation (Angstroms)
    I     Atom           X                Y                Z
 ----------------------------------------------------------------
    1      C      -0.2962760000    -8.5177020000     0.1233300000
    2      C       0.6311430000    -7.6415750000    -0.4214940000
    3      S      -1.6287950000    -7.6386340000     0.9116110000
    4      C       0.3050970000    -6.2647850000    -0.2332910000
    5      H       1.5359880000    -7.9660810000    -0.9507370000
    6      C      -0.9311140000    -6.0727140000     0.4785570000
    7      C      -1.4057370000    -4.7870490000     0.7813460000
    8      C       1.0977470000    -5.1628010000    -0.6645420000
    9      C       0.6249930000    -3.8748170000    -0.3578540000
   10      C      -0.6139700000    -3.6839520000     0.3522780000
   11      O       2.2263000000    -5.4997720000    -1.3487090000
   12      O      -2.5388270000    -4.4590550000     1.4696580000
   13      C      -3.6631020000    -5.3290630000     1.4193190000
   14      H      -4.5167560000    -4.7556940000     1.8282370000
   15      H      -3.5207690000    -6.2380950000     2.0437930000
   16      H      -3.8955460000    -5.6372620000     0.3770210000
   17      C       3.2984920000    -4.5722610000    -1.4633510000
   18      H       4.1529450000    -5.1397430000    -1.8782370000
   19      H       3.5858040000    -4.1531310000    -0.4751760000
   20      H       3.0582300000    -3.7395310000    -2.1594690000
   21      C      -0.9357610000    -2.3066540000     0.5406640000
   22      S       1.3305500000    -2.3065010000    -0.7808080000
   23      C       0.0000000000    -1.4351850000     0.0000000000
   24      H      -1.8407800000    -1.9781380000     1.0669460000
   25      H      -0.2964940000    -9.6140330000     0.1275750000
   26      C       0.0000000000     0.0000000000     0.0000000000
   27      S       0.3098930000     0.8500390000     1.5075410000
   28      C       0.8470110000     2.3280060000     0.7188730000
   29      C       0.3100460000     0.8496450000    -1.0678720000
   30      C       0.7833310000     2.1567460000    -0.6864100000
   31      S       0.2294160000     0.6197850000    -2.8055160000
   32      C       0.8233280000     2.2677110000    -3.0545300000
   33      C       1.0632780000     2.9341420000    -1.8625510000
   34      F       1.5159250000     4.1918240000    -1.8190880000
   35      C       0.9783370000     2.6880690000    -4.4560840000
   36      O       0.7225350000     1.9619210000    -5.4065100000
   37      O       1.4332290000     3.9596970000    -4.5692250000
   38      C       1.6074670000     4.4231390000    -5.9162070000
   39      H       1.9774750000     5.4601580000    -5.8330640000
   40      H       0.6473880000     4.3966020000    -6.4701680000
   41      H       2.3394900000     3.7918230000    -6.4592930000
   42      H       1.1617980000     3.1970070000     1.3064860000
 ----------------------------------------------------------------

   10   -2754.3087539817      7.34e-07  Convergence criterion met
 Total energy in the final basis set =    -2754.3087539817
        RIMP2         total energy =     -2759.3607031203 a.u.

                    Orbital Energies (a.u.)
 --------------------------------------------------------------

 Alpha MOs
 -- Occupied --
-92.0148 -91.9979 -91.9888 -91.9863 -26.3429 -20.6144 -20.5921 -20.5915
-20.5607 -11.4089 -11.3818 -11.3190 -11.3177 -11.3109 -11.3011 -11.2968
-11.2949 -11.2921 -11.2886 -11.2867 -11.2861 -11.2856 -11.2843 -11.2838
-11.2797 -11.2602 -11.2588 -11.2556 -11.2499  -9.0132  -8.9979  -8.9892
 -8.9862  -6.6939  -6.6933  -6.6928  -6.6789  -6.6781  -6.6770  -6.6701
 -6.6694  -6.6685  -6.6672  -6.6665  -6.6657  -1.6600  -1.4669  -1.4162
 -1.4142  -1.3695  -1.2214  -1.1940  -1.1651  -1.1356  -1.0845  -1.0517
 -1.0410  -1.0225  -1.0014  -0.9874  -0.9629  -0.9590  -0.9501  -0.9390
 -0.8956  -0.8672  -0.8505  -0.8119  -0.7917  -0.7874  -0.7863  -0.7649
 -0.7550  -0.7336  -0.7249  -0.7094  -0.6995  -0.6848  -0.6830  -0.6807
 -0.6735  -0.6590  -0.6574  -0.6525  -0.6301  -0.6199  -0.6169  -0.6050
 -0.5973  -0.5845  -0.5776  -0.5688  -0.5657  -0.5602  -0.5559  -0.5498
 -0.5323  -0.5304  -0.5238  -0.5160  -0.5149  -0.5082  -0.5057  -0.4961
 -0.4889  -0.4797  -0.4752  -0.4731  -0.4694  -0.4654  -0.4601  -0.4101
 -0.3987  -0.3850  -0.3561  -0.3497  -0.3210  -0.2923  -0.2568

          Ground-State Mulliken Net Atomic Charges

     Atom                 Charge (a.u.)
  ----------------------------------------
      1 C                    -0.188428
      2 C                    -0.254301
      3 S                    -0.022901
      4 C                    -0.014572
      5 H                     0.196369
      6 C                    -0.026182
      7 C                     0.240011
      8 C                     0.239874
      9 C                    -0.041958
     10 C                    -0.013404
     11 O                    -0.333272
     12 O                    -0.340048
     13 C                    -0.085667
     14 H                     0.122470
     15 H                     0.090961
     16 H                     0.094289
     17 C                    -0.087297
     18 H                     0.125077
     19 H                     0.094317
     20 H                     0.090700
     21 C                    -0.246877
     22 S                    -0.003521
     23 C                    -0.036888
     24 H                     0.196693
     25 H                     0.206393
     26 C                     0.015619
     27 S                     0.112975
     28 C                    -0.188994
     29 C                    -0.067508
     30 C                    -0.081845
     31 S                     0.022032
     32 C                    -0.153732
     33 C                     0.392881
     34 F                    -0.207003
     35 C                     0.445503
     36 O                    -0.461087
     37 O                    -0.300856
     38 C                    -0.058388
     39 H                     0.121240
     40 H                     0.095126
     41 H                     0.094969
     42 H                     0.217230
  ----------------------------------------
  Sum of atomic charges =     0.000000

                    Cartesian Multipole Moments
 -----------------------------------------------------------------
    Charge (ESU x 10^10)
                 0.0000
    Dipole Moment (Debye)
         X       0.9858      Y       0.9727      Z       2.7106
       Tot       3.0439
    Quadrupole Moments (Debye-Ang)
        XX    -177.1024     XY       6.0274     YY    -161.8653
        XZ      -9.4303     YZ      -5.7098     ZZ    -204.3498

 Total job time:  402.06s(wall), 14451.79s(cpu)
        *  Thank you very much for using Q-Chem.  Have a nice day.  *
