 Q-Chem 5.4, Q-Chem, Inc., Pleasanton, CA (2021)
 Q-Chem 5.4.0 for Intel X86 EM64T Linux

User input:
--------------------------------------------------------------
$molecule
0 1
C	0.041330	-8.517702	-0.318247
C	0.049453	-7.641575	0.757333
S	0.024919	-7.638634	-1.866383
C	0.049488	-6.264785	0.380867
H	0.055368	-7.966081	1.805573
C	0.051115	-6.072714	-1.045647
C	0.026203	-4.787049	-1.608077
C	0.026637	-5.162801	1.282948
C	-0.002586	-3.874817	0.720187
C	0.001903	-3.683952	-0.707853
O	0.054867	-5.499772	2.602386
O	-0.003348	-4.459055	-2.933517
C	0.602384	-5.329063	-3.881999
H	0.675079	-4.755694	-4.825744
H	-0.009592	-6.238095	-4.070972
H	1.621263	-5.637262	-3.562152
C	-0.381947	-4.572261	3.588253
H	-0.449872	-5.139743	4.535674
H	-1.381388	-4.153131	3.342986
H	0.341040	-3.739531	3.728239
C	-0.000348	-2.306654	-1.080725
S	0.010924	-2.306501	1.542694
C	-0.000000	-1.435185	-0.000000
H	-0.003612	-1.978138	-2.127635
H	0.037764	-9.614033	-0.320559
C	0.000000	0.000000	0.000000
S	0.382799	0.819795	1.507541
C	1.046687	2.245325	0.718873
C	0.382918	0.819389	-1.067872
C	0.968323	2.080267	-0.686410
S	0.282561	0.597432	-2.805516
C	1.017839	2.187324	-3.054530
C	1.314960	2.830306	-1.862551
F	1.875498	4.043751	-1.819088
C	1.208895	2.592573	-4.456084
O	0.890778	1.891482	-5.406510
O	1.772886	3.819715	-4.569225
C	1.986852	4.266207	-5.916207
H	2.445834	5.267032	-5.833064
H	1.028114	4.323448	-6.470168
H	2.661066	3.573494	-6.459293
H	1.436015	3.083584	1.306486
$end

$rem
JOBTYPE		SP
EXCHANGE	HF
CORRELATION	pRIMP2
BASIS		cc-pvtz
METHOD		rimp2
AUX_BASIS	rimp2-cc-pvtz
SOLVENT_METHOD	PCM
PURECART	11111
SYMMETRY	false
MEM_TOTAL	110000
SCF_CONVERGENCE = 6
THRESH=10
GUI = 2
$end

$solvent
dielectric 4.90
$end
--------------------------------------------------------------

             Standard Nuclear Orientation (Angstroms)
    I     Atom           X                Y                Z
 ----------------------------------------------------------------
    1      C       0.0413300000    -8.5177020000    -0.3182470000
    2      C       0.0494530000    -7.6415750000     0.7573330000
    3      S       0.0249190000    -7.6386340000    -1.8663830000
    4      C       0.0494880000    -6.2647850000     0.3808670000
    5      H       0.0553680000    -7.9660810000     1.8055730000
    6      C       0.0511150000    -6.0727140000    -1.0456470000
    7      C       0.0262030000    -4.7870490000    -1.6080770000
    8      C       0.0266370000    -5.1628010000     1.2829480000
    9      C      -0.0025860000    -3.8748170000     0.7201870000
   10      C       0.0019030000    -3.6839520000    -0.7078530000
   11      O       0.0548670000    -5.4997720000     2.6023860000
   12      O      -0.0033480000    -4.4590550000    -2.9335170000
   13      C       0.6023840000    -5.3290630000    -3.8819990000
   14      H       0.6750790000    -4.7556940000    -4.8257440000
   15      H      -0.0095920000    -6.2380950000    -4.0709720000
   16      H       1.6212630000    -5.6372620000    -3.5621520000
   17      C      -0.3819470000    -4.5722610000     3.5882530000
   18      H      -0.4498720000    -5.1397430000     4.5356740000
   19      H      -1.3813880000    -4.1531310000     3.3429860000
   20      H       0.3410400000    -3.7395310000     3.7282390000
   21      C      -0.0003480000    -2.3066540000    -1.0807250000
   22      S       0.0109240000    -2.3065010000     1.5426940000
   23      C       0.0000000000    -1.4351850000     0.0000000000
   24      H      -0.0036120000    -1.9781380000    -2.1276350000
   25      H       0.0377640000    -9.6140330000    -0.3205590000
   26      C       0.0000000000     0.0000000000     0.0000000000
   27      S       0.3827990000     0.8197950000     1.5075410000
   28      C       1.0466870000     2.2453250000     0.7188730000
   29      C       0.3829180000     0.8193890000    -1.0678720000
   30      C       0.9683230000     2.0802670000    -0.6864100000
   31      S       0.2825610000     0.5974320000    -2.8055160000
   32      C       1.0178390000     2.1873240000    -3.0545300000
   33      C       1.3149600000     2.8303060000    -1.8625510000
   34      F       1.8754980000     4.0437510000    -1.8190880000
   35      C       1.2088950000     2.5925730000    -4.4560840000
   36      O       0.8907780000     1.8914820000    -5.4065100000
   37      O       1.7728860000     3.8197150000    -4.5692250000
   38      C       1.9868520000     4.2662070000    -5.9162070000
   39      H       2.4458340000     5.2670320000    -5.8330640000
   40      H       1.0281140000     4.3234480000    -6.4701680000
   41      H       2.6610660000     3.5734940000    -6.4592930000
   42      H       1.4360150000     3.0835840000     1.3064860000
 ----------------------------------------------------------------

   10   -2754.3044376875      7.26e-07  Convergence criterion met
 Total energy in the final basis set =    -2754.3044376875
        RIMP2         total energy =     -2759.3603613901 a.u.

                    Orbital Energies (a.u.)
 --------------------------------------------------------------

 Alpha MOs
 -- Occupied --
-92.0163 -92.0022 -91.9899 -91.9855 -26.3445 -20.6152 -20.5926 -20.5898
-20.5617 -11.4100 -11.3842 -11.3194 -11.3155 -11.3154 -11.3040 -11.2983
-11.2980 -11.2971 -11.2890 -11.2875 -11.2871 -11.2852 -11.2848 -11.2835
-11.2782 -11.2613 -11.2571 -11.2515 -11.2494  -9.0152  -9.0021  -8.9906
 -8.9855  -6.6960  -6.6954  -6.6948  -6.6831  -6.6824  -6.6813  -6.6716
 -6.6709  -6.6700  -6.6664  -6.6658  -6.6650  -1.6615  -1.4677  -1.4166
 -1.4126  -1.3704  -1.2246  -1.1940  -1.1659  -1.1380  -1.0855  -1.0513
 -1.0432  -1.0249  -1.0009  -0.9884  -0.9646  -0.9597  -0.9501  -0.9397
 -0.8960  -0.8693  -0.8510  -0.8095  -0.7989  -0.7883  -0.7854  -0.7637
 -0.7558  -0.7336  -0.7263  -0.7112  -0.7016  -0.6862  -0.6831  -0.6815
 -0.6742  -0.6592  -0.6589  -0.6517  -0.6304  -0.6192  -0.6165  -0.6024
 -0.5996  -0.5841  -0.5798  -0.5712  -0.5647  -0.5607  -0.5571  -0.5479
 -0.5355  -0.5305  -0.5234  -0.5190  -0.5166  -0.5113  -0.5051  -0.4954
 -0.4870  -0.4818  -0.4773  -0.4745  -0.4699  -0.4640  -0.4594  -0.4277
 -0.3959  -0.3834  -0.3616  -0.3481  -0.3282  -0.2894  -0.2489

          Ground-State Mulliken Net Atomic Charges

     Atom                 Charge (a.u.)
  ----------------------------------------
      1 C                    -0.191933
      2 C                    -0.254339
      3 S                    -0.023175
      4 C                    -0.018816
      5 H                     0.195966
      6 C                    -0.026418
      7 C                     0.242330
      8 C                     0.244133
      9 C                    -0.042212
     10 C                    -0.019816
     11 O                    -0.332896
     12 O                    -0.341432
     13 C                    -0.086415
     14 H                     0.123402
     15 H                     0.091284
     16 H                     0.093446
     17 C                    -0.088780
     18 H                     0.126080
     19 H                     0.094940
     20 H                     0.089406
     21 C                    -0.239531
     22 S                    -0.042010
     23 C                    -0.018049
     24 H                     0.187792
     25 H                     0.205896
     26 C                     0.019719
     27 S                     0.090942
     28 C                    -0.183839
     29 C                    -0.002535
     30 C                    -0.108818
     31 S                     0.018670
     32 C                    -0.162467
     33 C                     0.406511
     34 F                    -0.205336
     35 C                     0.445664
     36 O                    -0.461026
     37 O                    -0.301054
     38 C                    -0.058447
     39 H                     0.121545
     40 H                     0.095281
     41 H                     0.095202
     42 H                     0.221135
  ----------------------------------------
  Sum of atomic charges =     0.000000

                    Cartesian Multipole Moments
 -----------------------------------------------------------------
    Charge (ESU x 10^10)
                -0.0000
    Dipole Moment (Debye)
         X       1.5972      Y       1.5960      Z       3.0954
       Tot       3.8314
    Quadrupole Moments (Debye-Ang)
        XX    -197.8638     XY       5.0288     YY    -164.5321
        XZ      -8.8401     YZ      -7.0821     ZZ    -182.0928

 Total job time:  585.95s(wall), 10089.08s(cpu)
        *  Thank you very much for using Q-Chem.  Have a nice day.  *
