 Q-Chem 5.4, Q-Chem, Inc., Pleasanton, CA (2021)
 Q-Chem 5.4.0 for Intel X86 EM64T Linux

User input:
--------------------------------------------------------------
$molecule
0 1
C	0.095966	-8.517702	-0.306235
C	-0.082807	-7.641575	0.754415
S	0.348635	-7.638634	-1.833702
C	-0.017401	-6.264785	0.383675
H	-0.259008	-7.966081	1.787757
C	0.231913	-6.072714	-1.020885
C	0.305044	-4.787049	-1.579097
C	-0.196549	-5.162801	1.268082
C	-0.127606	-3.874817	0.708796
C	0.124792	-3.683952	-0.696769
O	-0.397867	-5.499772	2.572378
O	0.506103	-4.459055	-2.889532
C	1.267335	-5.329063	-3.718420
H	1.502804	-4.755694	-4.635204
H	0.697471	-6.238095	-4.010790
H	2.215194	-5.637262	-3.226506
C	-0.999238	-4.572261	3.467415
H	-1.230649	-5.139743	4.388648
H	-1.940905	-4.153131	3.052323
H	-0.311543	-3.739531	3.730819
C	0.187323	-2.306654	-1.064366
S	-0.257128	-2.306501	1.521154
C	-0.000000	-1.435185	-0.000000
H	0.365903	-1.978138	-2.095939
H	0.092855	-9.614033	-0.309131
C	0.000000	0.000000	0.000000
S	0.079327	0.901280	1.507541
C	0.215617	2.467903	0.718873
C	0.079577	0.900940	-1.067872
C	0.198433	2.285998	-0.686410
S	0.061187	0.658044	-2.805516
C	0.208347	2.403534	-3.054530
C	0.267636	3.109360	-1.862551
F	0.379347	4.441341	-1.819088
C	0.249278	2.849688	-4.456084
O	0.190132	2.082076	-5.406510
O	0.359548	4.195721	-4.569225
C	0.407901	4.688467	-5.916207
H	0.496901	5.785916	-5.833064
H	-0.512596	4.414348	-6.470168
H	1.278377	4.268124	-6.459293
H	0.294764	3.388767	1.306486
$end

$rem
JOBTYPE		SP
EXCHANGE	HF
CORRELATION	pRIMP2
BASIS		cc-pvtz
METHOD		rimp2
AUX_BASIS	rimp2-cc-pvtz
SOLVENT_METHOD	PCM
PURECART	11111
SYMMETRY	false
MEM_TOTAL	110000
SCF_CONVERGENCE = 6
THRESH=10
GUI = 2
$end

$solvent
dielectric 4.90
$end
--------------------------------------------------------------

             Standard Nuclear Orientation (Angstroms)
    I     Atom           X                Y                Z
 ----------------------------------------------------------------
    1      C       0.0959660000    -8.5177020000    -0.3062350000
    2      C      -0.0828070000    -7.6415750000     0.7544150000
    3      S       0.3486350000    -7.6386340000    -1.8337020000
    4      C      -0.0174010000    -6.2647850000     0.3836750000
    5      H      -0.2590080000    -7.9660810000     1.7877570000
    6      C       0.2319130000    -6.0727140000    -1.0208850000
    7      C       0.3050440000    -4.7870490000    -1.5790970000
    8      C      -0.1965490000    -5.1628010000     1.2680820000
    9      C      -0.1276060000    -3.8748170000     0.7087960000
   10      C       0.1247920000    -3.6839520000    -0.6967690000
   11      O      -0.3978670000    -5.4997720000     2.5723780000
   12      O       0.5061030000    -4.4590550000    -2.8895320000
   13      C       1.2673350000    -5.3290630000    -3.7184200000
   14      H       1.5028040000    -4.7556940000    -4.6352040000
   15      H       0.6974710000    -6.2380950000    -4.0107900000
   16      H       2.2151940000    -5.6372620000    -3.2265060000
   17      C      -0.9992380000    -4.5722610000     3.4674150000
   18      H      -1.2306490000    -5.1397430000     4.3886480000
   19      H      -1.9409050000    -4.1531310000     3.0523230000
   20      H      -0.3115430000    -3.7395310000     3.7308190000
   21      C       0.1873230000    -2.3066540000    -1.0643660000
   22      S      -0.2571280000    -2.3065010000     1.5211540000
   23      C       0.0000000000    -1.4351850000     0.0000000000
   24      H       0.3659030000    -1.9781380000    -2.0959390000
   25      H       0.0928550000    -9.6140330000    -0.3091310000
   26      C       0.0000000000     0.0000000000     0.0000000000
   27      S       0.0793270000     0.9012800000     1.5075410000
   28      C       0.2156170000     2.4679030000     0.7188730000
   29      C       0.0795770000     0.9009400000    -1.0678720000
   30      C       0.1984330000     2.2859980000    -0.6864100000
   31      S       0.0611870000     0.6580440000    -2.8055160000
   32      C       0.2083470000     2.4035340000    -3.0545300000
   33      C       0.2676360000     3.1093600000    -1.8625510000
   34      F       0.3793470000     4.4413410000    -1.8190880000
   35      C       0.2492780000     2.8496880000    -4.4560840000
   36      O       0.1901320000     2.0820760000    -5.4065100000
   37      O       0.3595480000     4.1957210000    -4.5692250000
   38      C       0.4079010000     4.6884670000    -5.9162070000
   39      H       0.4969010000     5.7859160000    -5.8330640000
   40      H      -0.5125960000     4.4143480000    -6.4701680000
   41      H       1.2783770000     4.2681240000    -6.4592930000
   42      H       0.2947640000     3.3887670000     1.3064860000
 ----------------------------------------------------------------

   10   -2754.3161580993      7.63e-07  Convergence criterion met
 Total energy in the final basis set =    -2754.3161580993
        RIMP2         total energy =     -2759.3689020808 a.u.

                    Orbital Energies (a.u.)
 --------------------------------------------------------------

 Alpha MOs
 -- Occupied --
-92.0165 -91.9997 -91.9914 -91.9865 -26.3436 -20.6149 -20.5931 -20.5911
-20.5614 -11.4096 -11.3830 -11.3203 -11.3177 -11.3102 -11.3022 -11.2995
-11.2979 -11.2978 -11.2888 -11.2879 -11.2873 -11.2860 -11.2855 -11.2845
-11.2796 -11.2625 -11.2589 -11.2565 -11.2501  -9.0151  -8.9997  -8.9920
 -8.9864  -6.6959  -6.6954  -6.6948  -6.6807  -6.6799  -6.6788  -6.6730
 -6.6724  -6.6714  -6.6674  -6.6667  -6.6659  -1.6606  -1.4674  -1.4172
 -1.4138  -1.3701  -1.2223  -1.1954  -1.1666  -1.1370  -1.0860  -1.0526
 -1.0422  -1.0239  -1.0023  -0.9889  -0.9644  -0.9600  -0.9507  -0.9396
 -0.8969  -0.8683  -0.8527  -0.8085  -0.7994  -0.7885  -0.7863  -0.7645
 -0.7555  -0.7348  -0.7255  -0.7102  -0.7023  -0.6861  -0.6838  -0.6810
 -0.6739  -0.6596  -0.6589  -0.6525  -0.6311  -0.6200  -0.6172  -0.6021
 -0.5984  -0.5846  -0.5800  -0.5713  -0.5649  -0.5617  -0.5550  -0.5508
 -0.5360  -0.5304  -0.5244  -0.5199  -0.5169  -0.5109  -0.5059  -0.4960
 -0.4877  -0.4816  -0.4773  -0.4741  -0.4697  -0.4656  -0.4600  -0.4276
 -0.3967  -0.3845  -0.3614  -0.3488  -0.3280  -0.2892  -0.2505

          Ground-State Mulliken Net Atomic Charges

     Atom                 Charge (a.u.)
  ----------------------------------------
      1 C                    -0.189272
      2 C                    -0.254178
      3 S                    -0.021284
      4 C                    -0.017183
      5 H                     0.196210
      6 C                    -0.027647
      7 C                     0.246970
      8 C                     0.242445
      9 C                    -0.038551
     10 C                    -0.033343
     11 O                    -0.332971
     12 O                    -0.340283
     13 C                    -0.086529
     14 H                     0.123577
     15 H                     0.091719
     16 H                     0.093869
     17 C                    -0.088764
     18 H                     0.126254
     19 H                     0.095242
     20 H                     0.089447
     21 C                    -0.209363
     22 S                    -0.042041
     23 C                    -0.012780
     24 H                     0.188660
     25 H                     0.206419
     26 C                     0.003109
     27 S                     0.080418
     28 C                    -0.191180
     29 C                     0.028184
     30 C                    -0.127312
     31 S                     0.005945
     32 C                    -0.163340
     33 C                     0.409213
     34 F                    -0.206738
     35 C                     0.442860
     36 O                    -0.461128
     37 O                    -0.300641
     38 C                    -0.058739
     39 H                     0.121518
     40 H                     0.095307
     41 H                     0.095131
     42 H                     0.220768
  ----------------------------------------
  Sum of atomic charges =     0.000000

                    Cartesian Multipole Moments
 -----------------------------------------------------------------
    Charge (ESU x 10^10)
                 0.0000
    Dipole Moment (Debye)
         X       0.4592      Y       1.1027      Z       3.1442
       Tot       3.3635
    Quadrupole Moments (Debye-Ang)
        XX    -198.1512     XY      -0.0040     YY    -159.0603
        XZ      -9.8539     YZ      -7.6182     ZZ    -184.9176

 Total job time:  464.81s(wall), 9312.41s(cpu)
        *  Thank you very much for using Q-Chem.  Have a nice day.  *
