 Q-Chem 5.4, Q-Chem, Inc., Pleasanton, CA (2021)
 Q-Chem 5.4.0 for Intel X86 EM64T Linux

User input:
--------------------------------------------------------------
$molecule
0 1
C	0.172904	-8.517702	0.270358
C	-0.524688	-7.641575	-0.548363
S	1.180599	-7.638634	1.445750
C	-0.282727	-6.264785	-0.259951
H	-1.203014	-7.966081	-1.347559
C	0.632972	-6.072714	0.833868
C	1.013580	-4.787049	1.248701
C	-0.845068	-5.162801	-0.965673
C	-0.460946	-3.874817	-0.553357
C	0.453541	-3.683952	0.543470
O	-1.714812	-5.499772	-1.958276
O	1.888193	-4.459055	2.245053
C	2.033848	-5.329063	3.360989
H	2.584788	-4.755694	4.130667
H	2.624118	-6.238095	3.112380
H	1.047748	-5.637262	3.770895
C	-2.013896	-4.572261	-2.994272
H	-2.570853	-5.139743	-3.763700
H	-1.090625	-4.153131	-3.448815
H	-2.657717	-3.739531	-2.636780
C	0.694943	-2.306654	0.827659
S	-0.999993	-2.306501	-1.174750
C	-0.000000	-1.435185	-0.000000
H	1.370385	-1.978138	1.627541
H	0.177122	-9.614033	0.269836
C	0.000000	0.000000	0.000000
S	0.783786	0.451972	1.507541
C	2.145261	1.238908	0.718873
C	0.783650	0.451572	-1.067872
C	1.986396	1.148648	-0.686410
S	0.574133	0.327317	-2.805516
C	2.088363	1.207943	-3.054530
C	2.700548	1.564221	-1.862551
F	3.855718	2.236706	-1.819088
C	2.477307	1.430318	-4.456084
O	1.814592	1.038482	-5.406510
O	3.643162	2.112042	-4.569225
C	4.074530	2.355061	-5.916207
H	5.024556	2.911627	-5.833064
H	3.322010	2.951860	-6.470168
H	4.229490	1.400910	-6.459293
H	2.944986	1.702260	1.306486
$end

$rem
JOBTYPE		SP
EXCHANGE	HF
CORRELATION	pRIMP2
BASIS		cc-pvtz
METHOD		rimp2
AUX_BASIS	rimp2-cc-pvtz
SOLVENT_METHOD	PCM
PURECART	11111
SYMMETRY	false
MEM_TOTAL	110000
SCF_CONVERGENCE = 6
THRESH=10
GUI = 2
$end

$solvent
dielectric 4.90
$end
--------------------------------------------------------------

             Standard Nuclear Orientation (Angstroms)
    I     Atom           X                Y                Z
 ----------------------------------------------------------------
    1      C       0.1729040000    -8.5177020000     0.2703580000
    2      C      -0.5246880000    -7.6415750000    -0.5483630000
    3      S       1.1805990000    -7.6386340000     1.4457500000
    4      C      -0.2827270000    -6.2647850000    -0.2599510000
    5      H      -1.2030140000    -7.9660810000    -1.3475590000
    6      C       0.6329720000    -6.0727140000     0.8338680000
    7      C       1.0135800000    -4.7870490000     1.2487010000
    8      C      -0.8450680000    -5.1628010000    -0.9656730000
    9      C      -0.4609460000    -3.8748170000    -0.5533570000
   10      C       0.4535410000    -3.6839520000     0.5434700000
   11      O      -1.7148120000    -5.4997720000    -1.9582760000
   12      O       1.8881930000    -4.4590550000     2.2450530000
   13      C       2.0338480000    -5.3290630000     3.3609890000
   14      H       2.5847880000    -4.7556940000     4.1306670000
   15      H       2.6241180000    -6.2380950000     3.1123800000
   16      H       1.0477480000    -5.6372620000     3.7708950000
   17      C      -2.0138960000    -4.5722610000    -2.9942720000
   18      H      -2.5708530000    -5.1397430000    -3.7637000000
   19      H      -1.0906250000    -4.1531310000    -3.4488150000
   20      H      -2.6577170000    -3.7395310000    -2.6367800000
   21      C       0.6949430000    -2.3066540000     0.8276590000
   22      S      -0.9999930000    -2.3065010000    -1.1747500000
   23      C       0.0000000000    -1.4351850000     0.0000000000
   24      H       1.3703850000    -1.9781380000     1.6275410000
   25      H       0.1771220000    -9.6140330000     0.2698360000
   26      C       0.0000000000     0.0000000000     0.0000000000
   27      S       0.7837860000     0.4519720000     1.5075410000
   28      C       2.1452610000     1.2389080000     0.7188730000
   29      C       0.7836500000     0.4515720000    -1.0678720000
   30      C       1.9863960000     1.1486480000    -0.6864100000
   31      S       0.5741330000     0.3273170000    -2.8055160000
   32      C       2.0883630000     1.2079430000    -3.0545300000
   33      C       2.7005480000     1.5642210000    -1.8625510000
   34      F       3.8557180000     2.2367060000    -1.8190880000
   35      C       2.4773070000     1.4303180000    -4.4560840000
   36      O       1.8145920000     1.0384820000    -5.4065100000
   37      O       3.6431620000     2.1120420000    -4.5692250000
   38      C       4.0745300000     2.3550610000    -5.9162070000
   39      H       5.0245560000     2.9116270000    -5.8330640000
   40      H       3.3220100000     2.9518600000    -6.4701680000
   41      H       4.2294900000     1.4009100000    -6.4592930000
   42      H       2.9449860000     1.7022600000     1.3064860000
 ----------------------------------------------------------------

   10   -2754.2506070330      8.69e-07  Convergence criterion met
 Total energy in the final basis set =    -2754.2506070330
        RIMP2         total energy =     -2759.3148820304 a.u.

                    Orbital Energies (a.u.)
 --------------------------------------------------------------

 Alpha MOs
 -- Occupied --
-92.0138 -92.0106 -91.9828 -91.9825 -26.3466 -20.6156 -20.5902 -20.5870
-20.5619 -11.4107 -11.3874 -11.3368 -11.3252 -11.3163 -11.3093 -11.2988
-11.2982 -11.2894 -11.2891 -11.2851 -11.2841 -11.2806 -11.2782 -11.2742
-11.2735 -11.2562 -11.2515 -11.2472 -11.2363  -9.0134  -9.0102  -8.9834
 -8.9828  -6.6940  -6.6930  -6.6929  -6.6910  -6.6903  -6.6893  -6.6644
 -6.6638  -6.6637  -6.6631  -6.6628  -6.6623  -1.6636  -1.4682  -1.4140
 -1.4099  -1.3709  -1.2357  -1.1897  -1.1652  -1.1402  -1.0856  -1.0476
 -1.0457  -1.0284  -0.9966  -0.9873  -0.9667  -0.9558  -0.9475  -0.9411
 -0.8918  -0.8726  -0.8428  -0.8191  -0.7946  -0.7837  -0.7832  -0.7629
 -0.7557  -0.7297  -0.7283  -0.7136  -0.6982  -0.6865  -0.6832  -0.6793
 -0.6748  -0.6607  -0.6564  -0.6499  -0.6296  -0.6171  -0.6150  -0.6066
 -0.6030  -0.5906  -0.5779  -0.5675  -0.5649  -0.5643  -0.5526  -0.5463
 -0.5321  -0.5236  -0.5211  -0.5156  -0.5116  -0.5112  -0.5029  -0.4920
 -0.4877  -0.4818  -0.4762  -0.4734  -0.4654  -0.4608  -0.4545  -0.4199
 -0.3872  -0.3839  -0.3632  -0.3447  -0.3227  -0.2957  -0.2486

          Ground-State Mulliken Net Atomic Charges

     Atom                 Charge (a.u.)
  ----------------------------------------
      1 C                    -0.199883
      2 C                    -0.252872
      3 S                    -0.029756
      4 C                    -0.023880
      5 H                     0.195151
      6 C                    -0.022206
      7 C                     0.224462
      8 C                     0.245108
      9 C                    -0.041274
     10 C                    -0.006179
     11 O                    -0.333546
     12 O                    -0.343106
     13 C                    -0.085737
     14 H                     0.120442
     15 H                     0.090474
     16 H                     0.092554
     17 C                    -0.087550
     18 H                     0.124490
     19 H                     0.094744
     20 H                     0.089521
     21 C                    -0.308638
     22 S                    -0.040039
     23 C                     0.024024
     24 H                     0.189953
     25 H                     0.204325
     26 C                    -0.148827
     27 S                     0.111864
     28 C                    -0.121947
     29 C                     0.100402
     30 C                    -0.120335
     31 S                     0.062010
     32 C                    -0.158002
     33 C                     0.396322
     34 F                    -0.203867
     35 C                     0.449194
     36 O                    -0.462755
     37 O                    -0.301404
     38 C                    -0.058174
     39 H                     0.121559
     40 H                     0.095201
     41 H                     0.095355
     42 H                     0.222821
  ----------------------------------------
  Sum of atomic charges =     0.000000

                    Cartesian Multipole Moments
 -----------------------------------------------------------------
    Charge (ESU x 10^10)
                -0.0000
    Dipole Moment (Debye)
         X       3.2938      Y       2.2905      Z       2.2609
       Tot       4.6052
    Quadrupole Moments (Debye-Ang)
        XX    -183.7733     XY      10.0295     YY    -183.1845
        XZ       3.4164     YZ      -3.2378     ZZ    -184.7135

 Total job time:  321.19s(wall), 10931.78s(cpu)
        *  Thank you very much for using Q-Chem.  Have a nice day.  *
