 Q-Chem 5.4, Q-Chem, Inc., Pleasanton, CA (2021)
 Q-Chem 5.4.0 for Intel X86 EM64T Linux

User input:
--------------------------------------------------------------
$molecule
0 1
C	-0.284919	-8.517702	-0.147685
C	0.728574	-7.641575	0.212552
S	-1.745304	-7.638634	-0.661757
C	0.374824	-6.264785	0.083761
H	1.715621	-7.966081	0.565513
C	-0.965104	-6.072714	-0.405665
C	-1.502136	-4.787049	-0.574617
C	1.214687	-5.162801	0.413763
C	0.675870	-3.874817	0.248748
C	-0.664513	-3.683952	-0.243888
O	2.464209	-5.499772	0.838511
O	-2.757750	-4.459055	-1.000176
C	-3.441858	-5.329063	-1.893778
H	-4.303826	-4.755694	-2.284868
H	-3.828743	-6.238095	-1.383341
H	-2.792824	-5.637262	-2.741817
C	3.241222	-4.572261	1.586168
H	4.108274	-5.139743	1.974033
H	2.668916	-4.153131	2.441448
H	3.620041	-3.739531	0.954660
C	-1.015668	-2.306654	-0.369302
S	1.453394	-2.306501	0.517367
C	-0.000000	-1.435185	-0.000000
H	-2.000559	-1.978138	-0.724300
H	-0.288311	-9.614033	-0.145124
C	0.000000	0.000000	0.000000
S	0.157577	0.890937	1.507541
C	0.429889	2.439720	0.718873
C	0.157797	0.890576	-1.067872
C	0.396915	2.260004	-0.686410
S	0.118307	0.650207	-2.805516
C	0.417036	2.376229	-3.054530
C	0.537616	3.074202	-1.862551
F	0.764992	4.391378	-1.819088
C	0.496696	2.817118	-4.456084
O	0.370874	2.057582	-5.406510
O	0.723861	4.148418	-4.569225
C	0.814976	4.635075	-5.916207
H	0.999286	5.720591	-5.833064
H	-0.125909	4.442226	-6.470168
H	1.645504	4.140465	-6.459293
H	0.588993	3.350182	1.306486
$end

$rem
JOBTYPE		SP
EXCHANGE	HF
CORRELATION	pRIMP2
BASIS		cc-pvtz
METHOD		rimp2
AUX_BASIS	rimp2-cc-pvtz
SOLVENT_METHOD	PCM
PURECART	11111
SYMMETRY	false
MEM_TOTAL	110000
SCF_CONVERGENCE = 6
THRESH=10
GUI = 2
$end

$solvent
dielectric 4.90
$end
--------------------------------------------------------------

             Standard Nuclear Orientation (Angstroms)
    I     Atom           X                Y                Z
 ----------------------------------------------------------------
    1      C      -0.2849190000    -8.5177020000    -0.1476850000
    2      C       0.7285740000    -7.6415750000     0.2125520000
    3      S      -1.7453040000    -7.6386340000    -0.6617570000
    4      C       0.3748240000    -6.2647850000     0.0837610000
    5      H       1.7156210000    -7.9660810000     0.5655130000
    6      C      -0.9651040000    -6.0727140000    -0.4056650000
    7      C      -1.5021360000    -4.7870490000    -0.5746170000
    8      C       1.2146870000    -5.1628010000     0.4137630000
    9      C       0.6758700000    -3.8748170000     0.2487480000
   10      C      -0.6645130000    -3.6839520000    -0.2438880000
   11      O       2.4642090000    -5.4997720000     0.8385110000
   12      O      -2.7577500000    -4.4590550000    -1.0001760000
   13      C      -3.4418580000    -5.3290630000    -1.8937780000
   14      H      -4.3038260000    -4.7556940000    -2.2848680000
   15      H      -3.8287430000    -6.2380950000    -1.3833410000
   16      H      -2.7928240000    -5.6372620000    -2.7418170000
   17      C       3.2412220000    -4.5722610000     1.5861680000
   18      H       4.1082740000    -5.1397430000     1.9740330000
   19      H       2.6689160000    -4.1531310000     2.4414480000
   20      H       3.6200410000    -3.7395310000     0.9546600000
   21      C      -1.0156680000    -2.3066540000    -0.3693020000
   22      S       1.4533940000    -2.3065010000     0.5173670000
   23      C       0.0000000000    -1.4351850000     0.0000000000
   24      H      -2.0005590000    -1.9781380000    -0.7243000000
   25      H      -0.2883110000    -9.6140330000    -0.1451240000
   26      C       0.0000000000     0.0000000000     0.0000000000
   27      S       0.1575770000     0.8909370000     1.5075410000
   28      C       0.4298890000     2.4397200000     0.7188730000
   29      C       0.1577970000     0.8905760000    -1.0678720000
   30      C       0.3969150000     2.2600040000    -0.6864100000
   31      S       0.1183070000     0.6502070000    -2.8055160000
   32      C       0.4170360000     2.3762290000    -3.0545300000
   33      C       0.5376160000     3.0742020000    -1.8625510000
   34      F       0.7649920000     4.3913780000    -1.8190880000
   35      C       0.4966960000     2.8171180000    -4.4560840000
   36      O       0.3708740000     2.0575820000    -5.4065100000
   37      O       0.7238610000     4.1484180000    -4.5692250000
   38      C       0.8149760000     4.6350750000    -5.9162070000
   39      H       0.9992860000     5.7205910000    -5.8330640000
   40      H      -0.1259090000     4.4422260000    -6.4701680000
   41      H       1.6455040000     4.1404650000    -6.4592930000
   42      H       0.5889930000     3.3501820000     1.3064860000
 ----------------------------------------------------------------

   10   -2754.3131036706      6.95e-07  Convergence criterion met
 Total energy in the final basis set =    -2754.3131036706
        RIMP2         total energy =     -2759.3628142800 a.u.

                    Orbital Energies (a.u.)
 --------------------------------------------------------------

 Alpha MOs
 -- Occupied --
-92.0144 -91.9967 -91.9896 -91.9865 -26.3426 -20.6142 -20.5926 -20.5916
-20.5605 -11.4086 -11.3814 -11.3193 -11.3184 -11.3093 -11.3005 -11.2966
-11.2963 -11.2921 -11.2885 -11.2873 -11.2864 -11.2860 -11.2841 -11.2836
-11.2802 -11.2605 -11.2595 -11.2576 -11.2501  -9.0129  -8.9967  -8.9900
 -8.9865  -6.6936  -6.6930  -6.6925  -6.6777  -6.6770  -6.6759  -6.6709
 -6.6702  -6.6693  -6.6674  -6.6668  -6.6659  -1.6597  -1.4667  -1.4167
 -1.4144  -1.3693  -1.2201  -1.1945  -1.1654  -1.1351  -1.0844  -1.0521
 -1.0406  -1.0218  -1.0018  -0.9877  -0.9615  -0.9607  -0.9504  -0.9384
 -0.8960  -0.8667  -0.8514  -0.8084  -0.7950  -0.7880  -0.7865  -0.7648
 -0.7548  -0.7340  -0.7245  -0.7089  -0.7012  -0.6845  -0.6832  -0.6800
 -0.6733  -0.6593  -0.6572  -0.6527  -0.6305  -0.6201  -0.6174  -0.6047
 -0.5971  -0.5857  -0.5774  -0.5693  -0.5664  -0.5598  -0.5553  -0.5484
 -0.5340  -0.5305  -0.5232  -0.5160  -0.5155  -0.5093  -0.5039  -0.4943
 -0.4894  -0.4791  -0.4748  -0.4730  -0.4697  -0.4673  -0.4617  -0.4082
 -0.3964  -0.3871  -0.3571  -0.3496  -0.3162  -0.2968  -0.2582

          Ground-State Mulliken Net Atomic Charges

     Atom                 Charge (a.u.)
  ----------------------------------------
      1 C                    -0.187534
      2 C                    -0.254635
      3 S                    -0.021660
      4 C                    -0.013378
      5 H                     0.196365
      6 C                    -0.027412
      7 C                     0.245182
      8 C                     0.239014
      9 C                    -0.043926
     10 C                    -0.029037
     11 O                    -0.333180
     12 O                    -0.339912
     13 C                    -0.085884
     14 H                     0.122911
     15 H                     0.090897
     16 H                     0.094499
     17 C                    -0.086658
     18 H                     0.124852
     19 H                     0.094264
     20 H                     0.090188
     21 C                    -0.218759
     22 S                    -0.001691
     23 C                    -0.063553
     24 H                     0.198663
     25 H                     0.206541
     26 C                    -0.017130
     27 S                     0.105116
     28 C                    -0.185347
     29 C                     0.014910
     30 C                    -0.104342
     31 S                     0.006631
     32 C                    -0.152563
     33 C                     0.390381
     34 F                    -0.207037
     35 C                     0.445069
     36 O                    -0.461204
     37 O                    -0.300692
     38 C                    -0.058589
     39 H                     0.121192
     40 H                     0.094983
     41 H                     0.095015
     42 H                     0.217452
  ----------------------------------------
  Sum of atomic charges =     0.000000

                    Cartesian Multipole Moments
 -----------------------------------------------------------------
    Charge (ESU x 10^10)
                 0.0000
    Dipole Moment (Debye)
         X       0.5984      Y       0.8302      Z       2.8220
       Tot       3.0018
    Quadrupole Moments (Debye-Ang)
        XX    -184.0186     XY       2.6811     YY    -159.6001
        XZ      10.4387     YZ      -5.6752     ZZ    -199.1215

 Total job time:  302.05s(wall), 9882.91s(cpu)
        *  Thank you very much for using Q-Chem.  Have a nice day.  *
