 Q-Chem 5.4, Q-Chem, Inc., Pleasanton, CA (2021)
 Q-Chem 5.4.0 for Intel X86 EM64T Linux

User input:
--------------------------------------------------------------
$molecule
0 1
C	-0.070009	-8.517702	-0.313191
C	0.305494	-7.641575	0.694746
S	-0.614924	-7.638634	-1.762350
C	0.176768	-6.264785	0.340973
H	0.669571	-7.966081	1.677747
C	-0.309600	-6.072714	-1.000069
C	-0.525372	-4.787049	-1.520060
C	0.463825	-5.162801	1.196466
C	0.243888	-3.874817	0.677639
C	-0.240312	-3.683952	-0.665815
O	0.941626	-5.499772	2.426678
O	-1.006468	-4.459055	-2.755460
C	-0.761666	-5.329063	-3.853913
H	-1.016135	-4.755694	-4.765607
H	-1.401368	-6.238095	-3.822182
H	0.305161	-5.637262	-3.901833
C	0.868342	-4.572261	3.502489
H	1.128551	-5.139743	4.416005
H	-0.154712	-4.153131	3.613841
H	1.595605	-3.739531	3.386756
C	-0.369957	-2.306654	-1.015430
S	0.537898	-2.306501	1.445922
C	-0.000000	-1.435185	-0.000000
H	-0.731088	-1.978138	-1.998088
H	-0.074151	-9.614033	-0.314143
C	0.000000	0.000000	0.000000
S	0.309893	0.850039	1.507541
C	0.847011	2.328006	0.718873
C	0.310046	0.849645	-1.067872
C	0.783331	2.156746	-0.686410
S	0.229416	0.619785	-2.805516
C	0.823328	2.267711	-3.054530
C	1.063278	2.934142	-1.862551
F	1.515925	4.191824	-1.819088
C	0.978337	2.688069	-4.456084
O	0.722535	1.961921	-5.406510
O	1.433229	3.959697	-4.569225
C	1.607467	4.423139	-5.916207
H	1.977475	5.460158	-5.833064
H	0.647388	4.396602	-6.470168
H	2.339490	3.791823	-6.459293
H	1.161798	3.197007	1.306486
$end

$rem
JOBTYPE		SP
EXCHANGE	HF
CORRELATION	pRIMP2
BASIS		cc-pvtz
METHOD		rimp2
AUX_BASIS	rimp2-cc-pvtz
SOLVENT_METHOD	PCM
PURECART	11111
SYMMETRY	false
MEM_TOTAL	110000
SCF_CONVERGENCE = 6
THRESH=10
GUI = 2
$end

$solvent
dielectric 4.90
$end
--------------------------------------------------------------

             Standard Nuclear Orientation (Angstroms)
    I     Atom           X                Y                Z
 ----------------------------------------------------------------
    1      C      -0.0700090000    -8.5177020000    -0.3131910000
    2      C       0.3054940000    -7.6415750000     0.6947460000
    3      S      -0.6149240000    -7.6386340000    -1.7623500000
    4      C       0.1767680000    -6.2647850000     0.3409730000
    5      H       0.6695710000    -7.9660810000     1.6777470000
    6      C      -0.3096000000    -6.0727140000    -1.0000690000
    7      C      -0.5253720000    -4.7870490000    -1.5200600000
    8      C       0.4638250000    -5.1628010000     1.1964660000
    9      C       0.2438880000    -3.8748170000     0.6776390000
   10      C      -0.2403120000    -3.6839520000    -0.6658150000
   11      O       0.9416260000    -5.4997720000     2.4266780000
   12      O      -1.0064680000    -4.4590550000    -2.7554600000
   13      C      -0.7616660000    -5.3290630000    -3.8539130000
   14      H      -1.0161350000    -4.7556940000    -4.7656070000
   15      H      -1.4013680000    -6.2380950000    -3.8221820000
   16      H       0.3051610000    -5.6372620000    -3.9018330000
   17      C       0.8683420000    -4.5722610000     3.5024890000
   18      H       1.1285510000    -5.1397430000     4.4160050000
   19      H      -0.1547120000    -4.1531310000     3.6138410000
   20      H       1.5956050000    -3.7395310000     3.3867560000
   21      C      -0.3699570000    -2.3066540000    -1.0154300000
   22      S       0.5378980000    -2.3065010000     1.4459220000
   23      C       0.0000000000    -1.4351850000     0.0000000000
   24      H      -0.7310880000    -1.9781380000    -1.9980880000
   25      H      -0.0741510000    -9.6140330000    -0.3141430000
   26      C       0.0000000000     0.0000000000     0.0000000000
   27      S       0.3098930000     0.8500390000     1.5075410000
   28      C       0.8470110000     2.3280060000     0.7188730000
   29      C       0.3100460000     0.8496450000    -1.0678720000
   30      C       0.7833310000     2.1567460000    -0.6864100000
   31      S       0.2294160000     0.6197850000    -2.8055160000
   32      C       0.8233280000     2.2677110000    -3.0545300000
   33      C       1.0632780000     2.9341420000    -1.8625510000
   34      F       1.5159250000     4.1918240000    -1.8190880000
   35      C       0.9783370000     2.6880690000    -4.4560840000
   36      O       0.7225350000     1.9619210000    -5.4065100000
   37      O       1.4332290000     3.9596970000    -4.5692250000
   38      C       1.6074670000     4.4231390000    -5.9162070000
   39      H       1.9774750000     5.4601580000    -5.8330640000
   40      H       0.6473880000     4.3966020000    -6.4701680000
   41      H       2.3394900000     3.7918230000    -6.4592930000
   42      H       1.1617980000     3.1970070000     1.3064860000
 ----------------------------------------------------------------

   10   -2754.3094059471      7.23e-07  Convergence criterion met
 Total energy in the final basis set =    -2754.3094059471
        RIMP2         total energy =     -2759.3635783711 a.u.

                    Orbital Energies (a.u.)
 --------------------------------------------------------------

 Alpha MOs
 -- Occupied --
-92.0162 -92.0007 -91.9912 -91.9858 -26.3440 -20.6150 -20.5928 -20.5902
-20.5615 -11.4097 -11.3835 -11.3197 -11.3161 -11.3131 -11.3028 -11.2991
-11.2981 -11.2972 -11.2889 -11.2877 -11.2865 -11.2855 -11.2850 -11.2838
-11.2787 -11.2616 -11.2577 -11.2530 -11.2496  -9.0150  -9.0006  -8.9917
 -8.9857  -6.6957  -6.6952  -6.6946  -6.6816  -6.6809  -6.6798  -6.6727
 -6.6720  -6.6711  -6.6667  -6.6661  -6.6652  -1.6610  -1.4675  -1.4168
 -1.4130  -1.3702  -1.2235  -1.1944  -1.1660  -1.1374  -1.0854  -1.0517
 -1.0426  -1.0243  -1.0015  -0.9884  -0.9643  -0.9598  -0.9503  -0.9394
 -0.8963  -0.8688  -0.8516  -0.8091  -0.7987  -0.7880  -0.7859  -0.7640
 -0.7556  -0.7338  -0.7258  -0.7106  -0.7017  -0.6858  -0.6831  -0.6812
 -0.6741  -0.6591  -0.6588  -0.6520  -0.6305  -0.6195  -0.6168  -0.6025
 -0.5991  -0.5866  -0.5787  -0.5709  -0.5651  -0.5604  -0.5562  -0.5478
 -0.5356  -0.5307  -0.5223  -0.5188  -0.5171  -0.5117  -0.5051  -0.4952
 -0.4874  -0.4815  -0.4767  -0.4745  -0.4695  -0.4654  -0.4608  -0.4254
 -0.3963  -0.3839  -0.3606  -0.3488  -0.3269  -0.2903  -0.2502

          Ground-State Mulliken Net Atomic Charges

     Atom                 Charge (a.u.)
  ----------------------------------------
      1 C                    -0.190980
      2 C                    -0.254320
      3 S                    -0.022477
      4 C                    -0.017244
      5 H                     0.195938
      6 C                    -0.026555
      7 C                     0.241505
      8 C                     0.241408
      9 C                    -0.044126
     10 C                    -0.021711
     11 O                    -0.332863
     12 O                    -0.340861
     13 C                    -0.086117
     14 H                     0.123296
     15 H                     0.091178
     16 H                     0.093702
     17 C                    -0.088423
     18 H                     0.125811
     19 H                     0.094822
     20 H                     0.089530
     21 C                    -0.242571
     22 S                    -0.031411
     23 C                    -0.027342
     24 H                     0.192361
     25 H                     0.206045
     26 C                     0.008252
     27 S                     0.080114
     28 C                    -0.175612
     29 C                     0.029823
     30 C                    -0.115945
     31 S                     0.011125
     32 C                    -0.158955
     33 C                     0.400321
     34 F                    -0.205751
     35 C                     0.445959
     36 O                    -0.460774
     37 O                    -0.300973
     38 C                    -0.058406
     39 H                     0.121448
     40 H                     0.095186
     41 H                     0.095181
     42 H                     0.220415
  ----------------------------------------
  Sum of atomic charges =     0.000000

                    Cartesian Multipole Moments
 -----------------------------------------------------------------
    Charge (ESU x 10^10)
                 0.0000
    Dipole Moment (Debye)
         X       1.3435      Y       1.4163      Z       3.0259
       Tot       3.6009
    Quadrupole Moments (Debye-Ang)
        XX    -199.9900     XY       3.9705     YY    -162.7894
        XZ       0.3097     YZ      -6.7605     ZZ    -181.1437

 Total job time:  760.68s(wall), 20453.65s(cpu)
        *  Thank you very much for using Q-Chem.  Have a nice day.  *
