 Q-Chem 5.4, Q-Chem, Inc., Pleasanton, CA (2021)
 Q-Chem 5.4.0 for Intel X86 EM64T Linux

User input:
--------------------------------------------------------------
$molecule
0 1
C	-0.320589	-8.517702	0.014560
C	0.737240	-7.641575	-0.180211
S	-1.842356	-7.638634	0.299553
C	0.366488	-6.264785	-0.114873
H	1.768528	-7.966081	-0.368061
C	-1.038637	-6.072714	0.131236
C	-1.588197	-4.787049	0.253435
C	1.258831	-5.162801	-0.249014
C	0.709695	-3.874817	-0.122513
C	-0.697430	-3.683952	0.121043
O	2.553323	-5.499772	-0.505933
O	-2.888369	-4.459055	0.512697
C	-3.927625	-5.329063	0.080869
H	-4.869656	-4.755694	0.173159
H	-4.007459	-6.238095	0.716363
H	-3.789565	-5.637262	-0.978072
C	3.600064	-4.572261	-0.246949
H	4.544887	-5.139743	-0.344574
H	3.532074	-4.153131	0.779898
H	3.612378	-3.739531	-0.983261
C	-1.064246	-2.306654	0.188009
S	1.517360	-2.306501	-0.278644
C	-0.000000	-1.435185	-0.000000
H	-2.094685	-1.978138	0.373017
H	-0.322246	-9.614033	0.018474
C	0.000000	0.000000	0.000000
S	0.783786	0.451972	1.507541
C	2.145261	1.238908	0.718873
C	0.783650	0.451572	-1.067872
C	1.986396	1.148648	-0.686410
S	0.574133	0.327317	-2.805516
C	2.088363	1.207943	-3.054530
C	2.700548	1.564221	-1.862551
F	3.855718	2.236706	-1.819088
C	2.477307	1.430318	-4.456084
O	1.814592	1.038482	-5.406510
O	3.643162	2.112042	-4.569225
C	4.074530	2.355061	-5.916207
H	5.024556	2.911627	-5.833064
H	3.322010	2.951860	-6.470168
H	4.229490	1.400910	-6.459293
H	2.944986	1.702260	1.306486
$end

$rem
JOBTYPE		SP
EXCHANGE	HF
CORRELATION	pRIMP2
BASIS		cc-pvtz
METHOD		rimp2
AUX_BASIS	rimp2-cc-pvtz
SOLVENT_METHOD	PCM
PURECART	11111
SYMMETRY	false
MEM_TOTAL	110000
SCF_CONVERGENCE = 6
THRESH=10
GUI = 2
$end

$solvent
dielectric 4.90
$end
--------------------------------------------------------------

             Standard Nuclear Orientation (Angstroms)
    I     Atom           X                Y                Z
 ----------------------------------------------------------------
    1      C      -0.3205890000    -8.5177020000     0.0145600000
    2      C       0.7372400000    -7.6415750000    -0.1802110000
    3      S      -1.8423560000    -7.6386340000     0.2995530000
    4      C       0.3664880000    -6.2647850000    -0.1148730000
    5      H       1.7685280000    -7.9660810000    -0.3680610000
    6      C      -1.0386370000    -6.0727140000     0.1312360000
    7      C      -1.5881970000    -4.7870490000     0.2534350000
    8      C       1.2588310000    -5.1628010000    -0.2490140000
    9      C       0.7096950000    -3.8748170000    -0.1225130000
   10      C      -0.6974300000    -3.6839520000     0.1210430000
   11      O       2.5533230000    -5.4997720000    -0.5059330000
   12      O      -2.8883690000    -4.4590550000     0.5126970000
   13      C      -3.9276250000    -5.3290630000     0.0808690000
   14      H      -4.8696560000    -4.7556940000     0.1731590000
   15      H      -4.0074590000    -6.2380950000     0.7163630000
   16      H      -3.7895650000    -5.6372620000    -0.9780720000
   17      C       3.6000640000    -4.5722610000    -0.2469490000
   18      H       4.5448870000    -5.1397430000    -0.3445740000
   19      H       3.5320740000    -4.1531310000     0.7798980000
   20      H       3.6123780000    -3.7395310000    -0.9832610000
   21      C      -1.0642460000    -2.3066540000     0.1880090000
   22      S       1.5173600000    -2.3065010000    -0.2786440000
   23      C       0.0000000000    -1.4351850000     0.0000000000
   24      H      -2.0946850000    -1.9781380000     0.3730170000
   25      H      -0.3222460000    -9.6140330000     0.0184740000
   26      C       0.0000000000     0.0000000000     0.0000000000
   27      S       0.7837860000     0.4519720000     1.5075410000
   28      C       2.1452610000     1.2389080000     0.7188730000
   29      C       0.7836500000     0.4515720000    -1.0678720000
   30      C       1.9863960000     1.1486480000    -0.6864100000
   31      S       0.5741330000     0.3273170000    -2.8055160000
   32      C       2.0883630000     1.2079430000    -3.0545300000
   33      C       2.7005480000     1.5642210000    -1.8625510000
   34      F       3.8557180000     2.2367060000    -1.8190880000
   35      C       2.4773070000     1.4303180000    -4.4560840000
   36      O       1.8145920000     1.0384820000    -5.4065100000
   37      O       3.6431620000     2.1120420000    -4.5692250000
   38      C       4.0745300000     2.3550610000    -5.9162070000
   39      H       5.0245560000     2.9116270000    -5.8330640000
   40      H       3.3220100000     2.9518600000    -6.4701680000
   41      H       4.2294900000     1.4009100000    -6.4592930000
   42      H       2.9449860000     1.7022600000     1.3064860000
 ----------------------------------------------------------------

   10   -2754.2502342772      8.97e-07  Convergence criterion met
 Total energy in the final basis set =    -2754.2502342772
        RIMP2         total energy =     -2759.3145569194 a.u.

                    Orbital Energies (a.u.)
 --------------------------------------------------------------

 Alpha MOs
 -- Occupied --
-92.0133 -92.0090 -91.9841 -91.9799 -26.3464 -20.6157 -20.5906 -20.5885
-20.5621 -11.4108 -11.3872 -11.3350 -11.3199 -11.3162 -11.3131 -11.2991
-11.2894 -11.2887 -11.2880 -11.2861 -11.2844 -11.2812 -11.2809 -11.2769
-11.2654 -11.2554 -11.2550 -11.2482 -11.2430  -9.0127  -9.0086  -8.9841
 -8.9812  -6.6932  -6.6923  -6.6921  -6.6895  -6.6887  -6.6877  -6.6650
 -6.6644  -6.6636  -6.6622  -6.6614  -6.6605  -1.6634  -1.4682  -1.4146
 -1.4113  -1.3710  -1.2343  -1.1901  -1.1645  -1.1398  -1.0843  -1.0486
 -1.0450  -1.0266  -0.9976  -0.9869  -0.9649  -0.9581  -0.9489  -0.9388
 -0.8930  -0.8717  -0.8434  -0.8148  -0.7949  -0.7853  -0.7820  -0.7636
 -0.7561  -0.7309  -0.7282  -0.7129  -0.6991  -0.6866  -0.6833  -0.6791
 -0.6748  -0.6612  -0.6572  -0.6506  -0.6289  -0.6178  -0.6161  -0.6098
 -0.5989  -0.5884  -0.5747  -0.5703  -0.5642  -0.5630  -0.5532  -0.5330
 -0.5318  -0.5304  -0.5203  -0.5172  -0.5130  -0.5095  -0.5039  -0.4941
 -0.4884  -0.4838  -0.4757  -0.4739  -0.4673  -0.4633  -0.4578  -0.4011
 -0.3953  -0.3825  -0.3541  -0.3519  -0.3153  -0.2998  -0.2552

          Ground-State Mulliken Net Atomic Charges

     Atom                 Charge (a.u.)
  ----------------------------------------
      1 C                    -0.193993
      2 C                    -0.253811
      3 S                    -0.025915
      4 C                    -0.019969
      5 H                     0.195470
      6 C                    -0.027821
      7 C                     0.239494
      8 C                     0.242182
      9 C                    -0.043698
     10 C                    -0.011943
     11 O                    -0.333777
     12 O                    -0.340060
     13 C                    -0.085720
     14 H                     0.121749
     15 H                     0.090316
     16 H                     0.093404
     17 C                    -0.086624
     18 H                     0.124728
     19 H                     0.093258
     20 H                     0.089312
     21 C                    -0.254783
     22 S                    -0.037069
     23 C                    -0.038247
     24 H                     0.193446
     25 H                     0.205319
     26 C                    -0.154086
     27 S                     0.133130
     28 C                    -0.112819
     29 C                     0.044773
     30 C                    -0.120473
     31 S                     0.070308
     32 C                    -0.149626
     33 C                     0.396882
     34 F                    -0.204236
     35 C                     0.448889
     36 O                    -0.461607
     37 O                    -0.301238
     38 C                    -0.058103
     39 H                     0.121482
     40 H                     0.095398
     41 H                     0.095362
     42 H                     0.220714
  ----------------------------------------
  Sum of atomic charges =     0.000000

                    Cartesian Multipole Moments
 -----------------------------------------------------------------
    Charge (ESU x 10^10)
                 0.0000
    Dipole Moment (Debye)
         X       3.9005      Y       1.4802      Z       2.2820
       Tot       4.7552
    Quadrupole Moments (Debye-Ang)
        XX    -164.2323     XY       8.2788     YY    -177.8001
        XZ      -4.6001     YZ      -2.3318     ZZ    -203.8541

 Total job time:  306.35s(wall), 10325.86s(cpu)
        *  Thank you very much for using Q-Chem.  Have a nice day.  *
