 Q-Chem 5.4, Q-Chem, Inc., Pleasanton, CA (2021)
 Q-Chem 5.4.0 for Intel X86 EM64T Linux

User input:
--------------------------------------------------------------
$molecule
0 1
C	0.284919	-8.517702	0.147685
C	-0.728574	-7.641575	-0.212552
S	1.745304	-7.638634	0.661757
C	-0.374824	-6.264785	-0.083761
H	-1.715621	-7.966081	-0.565513
C	0.965104	-6.072714	0.405665
C	1.502136	-4.787049	0.574617
C	-1.214687	-5.162801	-0.413763
C	-0.675870	-3.874817	-0.248748
C	0.664513	-3.683952	0.243888
O	-2.464209	-5.499772	-0.838511
O	2.757750	-4.459055	1.000176
C	3.441858	-5.329063	1.893778
H	4.303826	-4.755694	2.284868
H	3.828743	-6.238095	1.383341
H	2.792824	-5.637262	2.741817
C	-3.241222	-4.572261	-1.586168
H	-4.108274	-5.139743	-1.974033
H	-2.668916	-4.153131	-2.441448
H	-3.620041	-3.739531	-0.954660
C	1.015668	-2.306654	0.369302
S	-1.453394	-2.306501	-0.517367
C	-0.000000	-1.435185	-0.000000
H	2.000559	-1.978138	0.724300
H	0.288311	-9.614033	0.145124
C	0.000000	0.000000	0.000000
S	0.079327	0.901280	1.507541
C	0.215617	2.467903	0.718873
C	0.079577	0.900940	-1.067872
C	0.198433	2.285998	-0.686410
S	0.061187	0.658044	-2.805516
C	0.208347	2.403534	-3.054530
C	0.267636	3.109360	-1.862551
F	0.379347	4.441341	-1.819088
C	0.249278	2.849688	-4.456084
O	0.190132	2.082076	-5.406510
O	0.359548	4.195721	-4.569225
C	0.407901	4.688467	-5.916207
H	0.496901	5.785916	-5.833064
H	-0.512596	4.414348	-6.470168
H	1.278377	4.268124	-6.459293
H	0.294764	3.388767	1.306486
$end

$rem
JOBTYPE		SP
EXCHANGE	HF
CORRELATION	pRIMP2
BASIS		cc-pvtz
METHOD		rimp2
AUX_BASIS	rimp2-cc-pvtz
SOLVENT_METHOD	PCM
PURECART	11111
SYMMETRY	false
MEM_TOTAL	110000
SCF_CONVERGENCE = 6
THRESH=10
GUI = 2
$end

$solvent
dielectric 4.90
$end
--------------------------------------------------------------

             Standard Nuclear Orientation (Angstroms)
    I     Atom           X                Y                Z
 ----------------------------------------------------------------
    1      C       0.2849190000    -8.5177020000     0.1476850000
    2      C      -0.7285740000    -7.6415750000    -0.2125520000
    3      S       1.7453040000    -7.6386340000     0.6617570000
    4      C      -0.3748240000    -6.2647850000    -0.0837610000
    5      H      -1.7156210000    -7.9660810000    -0.5655130000
    6      C       0.9651040000    -6.0727140000     0.4056650000
    7      C       1.5021360000    -4.7870490000     0.5746170000
    8      C      -1.2146870000    -5.1628010000    -0.4137630000
    9      C      -0.6758700000    -3.8748170000    -0.2487480000
   10      C       0.6645130000    -3.6839520000     0.2438880000
   11      O      -2.4642090000    -5.4997720000    -0.8385110000
   12      O       2.7577500000    -4.4590550000     1.0001760000
   13      C       3.4418580000    -5.3290630000     1.8937780000
   14      H       4.3038260000    -4.7556940000     2.2848680000
   15      H       3.8287430000    -6.2380950000     1.3833410000
   16      H       2.7928240000    -5.6372620000     2.7418170000
   17      C      -3.2412220000    -4.5722610000    -1.5861680000
   18      H      -4.1082740000    -5.1397430000    -1.9740330000
   19      H      -2.6689160000    -4.1531310000    -2.4414480000
   20      H      -3.6200410000    -3.7395310000    -0.9546600000
   21      C       1.0156680000    -2.3066540000     0.3693020000
   22      S      -1.4533940000    -2.3065010000    -0.5173670000
   23      C       0.0000000000    -1.4351850000     0.0000000000
   24      H       2.0005590000    -1.9781380000     0.7243000000
   25      H       0.2883110000    -9.6140330000     0.1451240000
   26      C       0.0000000000     0.0000000000     0.0000000000
   27      S       0.0793270000     0.9012800000     1.5075410000
   28      C       0.2156170000     2.4679030000     0.7188730000
   29      C       0.0795770000     0.9009400000    -1.0678720000
   30      C       0.1984330000     2.2859980000    -0.6864100000
   31      S       0.0611870000     0.6580440000    -2.8055160000
   32      C       0.2083470000     2.4035340000    -3.0545300000
   33      C       0.2676360000     3.1093600000    -1.8625510000
   34      F       0.3793470000     4.4413410000    -1.8190880000
   35      C       0.2492780000     2.8496880000    -4.4560840000
   36      O       0.1901320000     2.0820760000    -5.4065100000
   37      O       0.3595480000     4.1957210000    -4.5692250000
   38      C       0.4079010000     4.6884670000    -5.9162070000
   39      H       0.4969010000     5.7859160000    -5.8330640000
   40      H      -0.5125960000     4.4143480000    -6.4701680000
   41      H       1.2783770000     4.2681240000    -6.4592930000
   42      H       0.2947640000     3.3887670000     1.3064860000
 ----------------------------------------------------------------

   10   -2754.3143263766      6.93e-07  Convergence criterion met
 Total energy in the final basis set =    -2754.3143263766
        RIMP2         total energy =     -2759.3640548083 a.u.

                    Orbital Energies (a.u.)
 --------------------------------------------------------------

 Alpha MOs
 -- Occupied --
-92.0151 -91.9966 -91.9892 -91.9866 -26.3425 -20.6142 -20.5923 -20.5919
-20.5605 -11.4086 -11.3813 -11.3193 -11.3186 -11.3083 -11.2999 -11.2972
-11.2963 -11.2926 -11.2884 -11.2867 -11.2865 -11.2863 -11.2842 -11.2836
-11.2802 -11.2609 -11.2595 -11.2584 -11.2501  -9.0134  -8.9967  -8.9895
 -8.9865  -6.6941  -6.6935  -6.6930  -6.6777  -6.6770  -6.6758  -6.6705
 -6.6698  -6.6688  -6.6675  -6.6669  -6.6660  -1.6596  -1.4666  -1.4165
 -1.4146  -1.3693  -1.2199  -1.1946  -1.1654  -1.1349  -1.0846  -1.0521
 -1.0405  -1.0218  -1.0018  -0.9878  -0.9623  -0.9597  -0.9503  -0.9388
 -0.8958  -0.8666  -0.8514  -0.8108  -0.7919  -0.7889  -0.7866  -0.7651
 -0.7549  -0.7340  -0.7245  -0.7092  -0.7000  -0.6846  -0.6834  -0.6802
 -0.6733  -0.6593  -0.6570  -0.6528  -0.6306  -0.6203  -0.6171  -0.6044
 -0.5968  -0.5853  -0.5770  -0.5698  -0.5671  -0.5618  -0.5551  -0.5516
 -0.5309  -0.5302  -0.5234  -0.5167  -0.5151  -0.5089  -0.5043  -0.4943
 -0.4896  -0.4783  -0.4760  -0.4728  -0.4705  -0.4659  -0.4610  -0.4073
 -0.3980  -0.3867  -0.3580  -0.3478  -0.3175  -0.2958  -0.2585

          Ground-State Mulliken Net Atomic Charges

     Atom                 Charge (a.u.)
  ----------------------------------------
      1 C                    -0.187667
      2 C                    -0.254097
      3 S                    -0.021835
      4 C                    -0.014160
      5 H                     0.196491
      6 C                    -0.027811
      7 C                     0.243179
      8 C                     0.240654
      9 C                    -0.047868
     10 C                    -0.030220
     11 O                    -0.333435
     12 O                    -0.339941
     13 C                    -0.085868
     14 H                     0.122667
     15 H                     0.091300
     16 H                     0.093962
     17 C                    -0.086843
     18 H                     0.124620
     19 H                     0.095575
     20 H                     0.089811
     21 C                    -0.218555
     22 S                     0.002501
     23 C                    -0.043141
     24 H                     0.198474
     25 H                     0.206542
     26 C                    -0.029714
     27 S                     0.108344
     28 C                    -0.188108
     29 C                     0.012916
     30 C                    -0.110330
     31 S                     0.007265
     32 C                    -0.153245
     33 C                     0.392830
     34 F                    -0.207129
     35 C                     0.444933
     36 O                    -0.461252
     37 O                    -0.300617
     38 C                    -0.058654
     39 H                     0.121199
     40 H                     0.094999
     41 H                     0.095002
     42 H                     0.217226
  ----------------------------------------
  Sum of atomic charges =     0.000000

                    Cartesian Multipole Moments
 -----------------------------------------------------------------
    Charge (ESU x 10^10)
                -0.0000
    Dipole Moment (Debye)
         X       0.0866      Y       0.8276      Z       3.2607
       Tot       3.3652
    Quadrupole Moments (Debye-Ang)
        XX    -184.3997     XY       1.4621     YY    -159.3379
        XZ      11.1047     YZ      -8.7389     ZZ    -199.1108

 Total job time:  302.31s(wall), 9963.58s(cpu)
        *  Thank you very much for using Q-Chem.  Have a nice day.  *
