 Q-Chem 5.4, Q-Chem, Inc., Pleasanton, CA (2021)
 Q-Chem 5.4.0 for Intel X86 EM64T Linux

User input:
--------------------------------------------------------------
$molecule
0 1
C	0.014560	-8.517702	0.320589
C	-0.180211	-7.641575	-0.737240
S	0.299553	-7.638634	1.842356
C	-0.114873	-6.264785	-0.366488
H	-0.368061	-7.966081	-1.768528
C	0.131236	-6.072714	1.038637
C	0.253435	-4.787049	1.588197
C	-0.249014	-5.162801	-1.258831
C	-0.122513	-3.874817	-0.709695
C	0.121043	-3.683952	0.697430
O	-0.505933	-5.499772	-2.553323
O	0.512697	-4.459055	2.888369
C	0.080869	-5.329063	3.927625
H	0.173159	-4.755694	4.869656
H	0.716363	-6.238095	4.007459
H	-0.978072	-5.637262	3.789565
C	-0.246949	-4.572261	-3.600064
H	-0.344574	-5.139743	-4.544887
H	0.779898	-4.153131	-3.532074
H	-0.983261	-3.739531	-3.612378
C	0.188009	-2.306654	1.064246
S	-0.278644	-2.306501	-1.517360
C	-0.000000	-1.435185	-0.000000
H	0.373017	-1.978138	2.094685
H	0.018474	-9.614033	0.322246
C	0.000000	0.000000	0.000000
S	0.079327	0.901280	1.507541
C	0.215617	2.467903	0.718873
C	0.079577	0.900940	-1.067872
C	0.198433	2.285998	-0.686410
S	0.061187	0.658044	-2.805516
C	0.208347	2.403534	-3.054530
C	0.267636	3.109360	-1.862551
F	0.379347	4.441341	-1.819088
C	0.249278	2.849688	-4.456084
O	0.190132	2.082076	-5.406510
O	0.359548	4.195721	-4.569225
C	0.407901	4.688467	-5.916207
H	0.496901	5.785916	-5.833064
H	-0.512596	4.414348	-6.470168
H	1.278377	4.268124	-6.459293
H	0.294764	3.388767	1.306486
$end

$rem
JOBTYPE		SP
EXCHANGE	HF
CORRELATION	pRIMP2
BASIS		cc-pvtz
METHOD		rimp2
AUX_BASIS	rimp2-cc-pvtz
SOLVENT_METHOD	PCM
PURECART	11111
SYMMETRY	false
MEM_TOTAL	110000
SCF_CONVERGENCE = 6
THRESH=10
GUI = 2
$end

$solvent
dielectric 4.90
$end
--------------------------------------------------------------

             Standard Nuclear Orientation (Angstroms)
    I     Atom           X                Y                Z
 ----------------------------------------------------------------
    1      C       0.0145600000    -8.5177020000     0.3205890000
    2      C      -0.1802110000    -7.6415750000    -0.7372400000
    3      S       0.2995530000    -7.6386340000     1.8423560000
    4      C      -0.1148730000    -6.2647850000    -0.3664880000
    5      H      -0.3680610000    -7.9660810000    -1.7685280000
    6      C       0.1312360000    -6.0727140000     1.0386370000
    7      C       0.2534350000    -4.7870490000     1.5881970000
    8      C      -0.2490140000    -5.1628010000    -1.2588310000
    9      C      -0.1225130000    -3.8748170000    -0.7096950000
   10      C       0.1210430000    -3.6839520000     0.6974300000
   11      O      -0.5059330000    -5.4997720000    -2.5533230000
   12      O       0.5126970000    -4.4590550000     2.8883690000
   13      C       0.0808690000    -5.3290630000     3.9276250000
   14      H       0.1731590000    -4.7556940000     4.8696560000
   15      H       0.7163630000    -6.2380950000     4.0074590000
   16      H      -0.9780720000    -5.6372620000     3.7895650000
   17      C      -0.2469490000    -4.5722610000    -3.6000640000
   18      H      -0.3445740000    -5.1397430000    -4.5448870000
   19      H       0.7798980000    -4.1531310000    -3.5320740000
   20      H      -0.9832610000    -3.7395310000    -3.6123780000
   21      C       0.1880090000    -2.3066540000     1.0642460000
   22      S      -0.2786440000    -2.3065010000    -1.5173600000
   23      C       0.0000000000    -1.4351850000     0.0000000000
   24      H       0.3730170000    -1.9781380000     2.0946850000
   25      H       0.0184740000    -9.6140330000     0.3222460000
   26      C       0.0000000000     0.0000000000     0.0000000000
   27      S       0.0793270000     0.9012800000     1.5075410000
   28      C       0.2156170000     2.4679030000     0.7188730000
   29      C       0.0795770000     0.9009400000    -1.0678720000
   30      C       0.1984330000     2.2859980000    -0.6864100000
   31      S       0.0611870000     0.6580440000    -2.8055160000
   32      C       0.2083470000     2.4035340000    -3.0545300000
   33      C       0.2676360000     3.1093600000    -1.8625510000
   34      F       0.3793470000     4.4413410000    -1.8190880000
   35      C       0.2492780000     2.8496880000    -4.4560840000
   36      O       0.1901320000     2.0820760000    -5.4065100000
   37      O       0.3595480000     4.1957210000    -4.5692250000
   38      C       0.4079010000     4.6884670000    -5.9162070000
   39      H       0.4969010000     5.7859160000    -5.8330640000
   40      H      -0.5125960000     4.4143480000    -6.4701680000
   41      H       1.2783770000     4.2681240000    -6.4592930000
   42      H       0.2947640000     3.3887670000     1.3064860000
 ----------------------------------------------------------------

   10   -2754.3158400234      7.75e-07  Convergence criterion met
 Total energy in the final basis set =    -2754.3158400234
        RIMP2         total energy =     -2759.3691778004 a.u.

                    Orbital Energies (a.u.)
 --------------------------------------------------------------

 Alpha MOs
 -- Occupied --
-92.0152 -91.9988 -91.9914 -91.9862 -26.3435 -20.6148 -20.5925 -20.5913
-20.5614 -11.4095 -11.3828 -11.3201 -11.3169 -11.3109 -11.3024 -11.3007
-11.2983 -11.2975 -11.2888 -11.2866 -11.2866 -11.2862 -11.2859 -11.2843
-11.2790 -11.2625 -11.2581 -11.2548 -11.2499  -9.0138  -8.9990  -8.9920
 -8.9861  -6.6946  -6.6941  -6.6935  -6.6800  -6.6792  -6.6781  -6.6730
 -6.6723  -6.6713  -6.6671  -6.6665  -6.6656  -1.6606  -1.4673  -1.4165
 -1.4140  -1.3700  -1.2226  -1.1949  -1.1661  -1.1367  -1.0863  -1.0523
 -1.0417  -1.0243  -1.0024  -0.9884  -0.9645  -0.9586  -0.9500  -0.9413
 -0.8960  -0.8683  -0.8522  -0.8154  -0.7922  -0.7881  -0.7859  -0.7652
 -0.7556  -0.7342  -0.7254  -0.7105  -0.6990  -0.6860  -0.6837  -0.6819
 -0.6739  -0.6593  -0.6584  -0.6526  -0.6310  -0.6199  -0.6168  -0.6029
 -0.5977  -0.5857  -0.5786  -0.5695  -0.5685  -0.5617  -0.5566  -0.5535
 -0.5326  -0.5294  -0.5232  -0.5207  -0.5185  -0.5114  -0.5063  -0.4946
 -0.4872  -0.4790  -0.4770  -0.4751  -0.4701  -0.4645  -0.4593  -0.4271
 -0.3933  -0.3862  -0.3616  -0.3518  -0.3248  -0.2913  -0.2484

          Ground-State Mulliken Net Atomic Charges

     Atom                 Charge (a.u.)
  ----------------------------------------
      1 C                    -0.190428
      2 C                    -0.253195
      3 S                    -0.023035
      4 C                    -0.016694
      5 H                     0.196423
      6 C                    -0.027064
      7 C                     0.239495
      8 C                     0.243156
      9 C                    -0.034734
     10 C                    -0.018182
     11 O                    -0.332768
     12 O                    -0.341018
     13 C                    -0.085666
     14 H                     0.122201
     15 H                     0.091254
     16 H                     0.093945
     17 C                    -0.089547
     18 H                     0.126104
     19 H                     0.095847
     20 H                     0.090595
     21 C                    -0.271944
     22 S                    -0.044707
     23 C                     0.039310
     24 H                     0.185628
     25 H                     0.206211
     26 C                     0.023145
     27 S                     0.083956
     28 C                    -0.179979
     29 C                     0.008852
     30 C                    -0.131457
     31 S                     0.002003
     32 C                    -0.166930
     33 C                     0.411962
     34 F                    -0.206859
     35 C                     0.443232
     36 O                    -0.461237
     37 O                    -0.300672
     38 C                    -0.058767
     39 H                     0.121470
     40 H                     0.095206
     41 H                     0.095115
     42 H                     0.219775
  ----------------------------------------
  Sum of atomic charges =     0.000000

                    Cartesian Multipole Moments
 -----------------------------------------------------------------
    Charge (ESU x 10^10)
                 0.0000
    Dipole Moment (Debye)
         X      -0.0261      Y       1.2500      Z       2.7789
       Tot       3.0472
    Quadrupole Moments (Debye-Ang)
        XX    -202.0608     XY       2.8493     YY    -160.3408
        XZ      -2.1058     YZ      -7.3647     ZZ    -181.0184

 Total job time:  290.63s(wall), 9443.23s(cpu)
        *  Thank you very much for using Q-Chem.  Have a nice day.  *
