 Q-Chem 5.4, Q-Chem, Inc., Pleasanton, CA (2021)
 Q-Chem 5.4.0 for Intel X86 EM64T Linux

User input:
--------------------------------------------------------------
$molecule
0 1
C	0.041330	-8.517702	-0.318247
C	0.049453	-7.641575	0.757333
S	0.024919	-7.638634	-1.866383
C	0.049488	-6.264785	0.380867
H	0.055368	-7.966081	1.805573
C	0.051115	-6.072714	-1.045647
C	0.026203	-4.787049	-1.608077
C	0.026637	-5.162801	1.282948
C	-0.002586	-3.874817	0.720187
C	0.001903	-3.683952	-0.707853
O	0.054867	-5.499772	2.602386
O	-0.003348	-4.459055	-2.933517
C	0.602384	-5.329063	-3.881999
H	0.675079	-4.755694	-4.825744
H	-0.009592	-6.238095	-4.070972
H	1.621263	-5.637262	-3.562152
C	-0.381947	-4.572261	3.588253
H	-0.449872	-5.139743	4.535674
H	-1.381388	-4.153131	3.342986
H	0.341040	-3.739531	3.728239
C	-0.000348	-2.306654	-1.080725
S	0.010924	-2.306501	1.542694
C	-0.000000	-1.435185	-0.000000
H	-0.003612	-1.978138	-2.127635
H	0.037764	-9.614033	-0.320559
C	0.000000	0.000000	0.000000
S	0.581934	0.692785	1.507541
C	1.592155	1.897915	0.718873
C	0.581944	0.692363	-1.067872
C	1.473741	1.758764	-0.686410
S	0.427560	0.503942	-2.805516
C	1.549278	1.849357	-3.054530
C	2.002690	2.393529	-1.862551
F	2.858191	3.420549	-1.819088
C	1.838710	2.191348	-4.456084
O	1.349977	1.596481	-5.406510
O	2.701091	3.230705	-4.569225
C	3.023327	3.606605	-5.916207
H	3.725703	4.454534	-5.833064
H	2.112072	3.910035	-6.470168
H	3.495281	2.762996	-6.459293
H	2.185174	2.606846	1.306486
$end

$rem
JOBTYPE		SP
EXCHANGE	HF
CORRELATION	pRIMP2
BASIS		cc-pvtz
METHOD		rimp2
AUX_BASIS	rimp2-cc-pvtz
SOLVENT_METHOD	PCM
PURECART	11111
SYMMETRY	false
MEM_TOTAL	110000
SCF_CONVERGENCE = 6
THRESH=10
GUI = 2
$end

$solvent
dielectric 4.90
$end
--------------------------------------------------------------

             Standard Nuclear Orientation (Angstroms)
    I     Atom           X                Y                Z
 ----------------------------------------------------------------
    1      C       0.0413300000    -8.5177020000    -0.3182470000
    2      C       0.0494530000    -7.6415750000     0.7573330000
    3      S       0.0249190000    -7.6386340000    -1.8663830000
    4      C       0.0494880000    -6.2647850000     0.3808670000
    5      H       0.0553680000    -7.9660810000     1.8055730000
    6      C       0.0511150000    -6.0727140000    -1.0456470000
    7      C       0.0262030000    -4.7870490000    -1.6080770000
    8      C       0.0266370000    -5.1628010000     1.2829480000
    9      C      -0.0025860000    -3.8748170000     0.7201870000
   10      C       0.0019030000    -3.6839520000    -0.7078530000
   11      O       0.0548670000    -5.4997720000     2.6023860000
   12      O      -0.0033480000    -4.4590550000    -2.9335170000
   13      C       0.6023840000    -5.3290630000    -3.8819990000
   14      H       0.6750790000    -4.7556940000    -4.8257440000
   15      H      -0.0095920000    -6.2380950000    -4.0709720000
   16      H       1.6212630000    -5.6372620000    -3.5621520000
   17      C      -0.3819470000    -4.5722610000     3.5882530000
   18      H      -0.4498720000    -5.1397430000     4.5356740000
   19      H      -1.3813880000    -4.1531310000     3.3429860000
   20      H       0.3410400000    -3.7395310000     3.7282390000
   21      C      -0.0003480000    -2.3066540000    -1.0807250000
   22      S       0.0109240000    -2.3065010000     1.5426940000
   23      C       0.0000000000    -1.4351850000     0.0000000000
   24      H      -0.0036120000    -1.9781380000    -2.1276350000
   25      H       0.0377640000    -9.6140330000    -0.3205590000
   26      C       0.0000000000     0.0000000000     0.0000000000
   27      S       0.5819340000     0.6927850000     1.5075410000
   28      C       1.5921550000     1.8979150000     0.7188730000
   29      C       0.5819440000     0.6923630000    -1.0678720000
   30      C       1.4737410000     1.7587640000    -0.6864100000
   31      S       0.4275600000     0.5039420000    -2.8055160000
   32      C       1.5492780000     1.8493570000    -3.0545300000
   33      C       2.0026900000     2.3935290000    -1.8625510000
   34      F       2.8581910000     3.4205490000    -1.8190880000
   35      C       1.8387100000     2.1913480000    -4.4560840000
   36      O       1.3499770000     1.5964810000    -5.4065100000
   37      O       2.7010910000     3.2307050000    -4.5692250000
   38      C       3.0233270000     3.6066050000    -5.9162070000
   39      H       3.7257030000     4.4545340000    -5.8330640000
   40      H       2.1120720000     3.9100350000    -6.4701680000
   41      H       3.4952810000     2.7629960000    -6.4592930000
   42      H       2.1851740000     2.6068460000     1.3064860000
 ----------------------------------------------------------------

   10   -2754.2849165011      7.39e-07  Convergence criterion met
 Total energy in the final basis set =    -2754.2849165011
        RIMP2         total energy =     -2759.3451403901 a.u.

                    Orbital Energies (a.u.)
 --------------------------------------------------------------

 Alpha MOs
 -- Occupied --
-92.0161 -92.0060 -91.9875 -91.9841 -26.3456 -20.6156 -20.5917 -20.5879
-20.5622 -11.4106 -11.3859 -11.3238 -11.3181 -11.3122 -11.3110 -11.2989
-11.2974 -11.2900 -11.2894 -11.2886 -11.2869 -11.2839 -11.2820 -11.2818
-11.2761 -11.2593 -11.2542 -11.2482 -11.2437  -9.0153  -9.0058  -8.9884
 -8.9840  -6.6960  -6.6953  -6.6949  -6.6867  -6.6860  -6.6850  -6.6694
 -6.6687  -6.6677  -6.6650  -6.6644  -6.6636  -1.6626  -1.4682  -1.4156
 -1.4108  -1.3709  -1.2285  -1.1919  -1.1650  -1.1392  -1.0851  -1.0495
 -1.0445  -1.0265  -0.9989  -0.9878  -0.9654  -0.9588  -0.9492  -0.9395
 -0.8946  -0.8708  -0.8484  -0.8108  -0.7985  -0.7878  -0.7838  -0.7624
 -0.7561  -0.7319  -0.7273  -0.7127  -0.7005  -0.6866  -0.6825  -0.6813
 -0.6747  -0.6597  -0.6579  -0.6505  -0.6296  -0.6180  -0.6157  -0.6033
 -0.6011  -0.5831  -0.5799  -0.5707  -0.5642  -0.5607  -0.5572  -0.5451
 -0.5349  -0.5306  -0.5227  -0.5172  -0.5158  -0.5107  -0.5043  -0.4951
 -0.4870  -0.4820  -0.4768  -0.4748  -0.4696  -0.4617  -0.4579  -0.4274
 -0.3944  -0.3817  -0.3620  -0.3467  -0.3284  -0.2896  -0.2469

          Ground-State Mulliken Net Atomic Charges

     Atom                 Charge (a.u.)
  ----------------------------------------
      1 C                    -0.196157
      2 C                    -0.253890
      3 S                    -0.025823
      4 C                    -0.022448
      5 H                     0.195434
      6 C                    -0.025042
      7 C                     0.236332
      8 C                     0.245787
      9 C                    -0.047543
     10 C                    -0.013436
     11 O                    -0.333062
     12 O                    -0.342185
     13 C                    -0.086293
     14 H                     0.122792
     15 H                     0.090815
     16 H                     0.092723
     17 C                    -0.088482
     18 H                     0.125741
     19 H                     0.094697
     20 H                     0.089140
     21 C                    -0.254062
     22 S                    -0.042776
     23 C                    -0.011562
     24 H                     0.186438
     25 H                     0.205098
     26 C                    -0.031019
     27 S                     0.099734
     28 C                    -0.160773
     29 C                     0.018767
     30 C                    -0.108569
     31 S                     0.039431
     32 C                    -0.161085
     33 C                     0.403937
     34 F                    -0.204464
     35 C                     0.447961
     36 O                    -0.461131
     37 O                    -0.301097
     38 C                    -0.058303
     39 H                     0.121600
     40 H                     0.095345
     41 H                     0.095270
     42 H                     0.222159
  ----------------------------------------
  Sum of atomic charges =     0.000000

                    Cartesian Multipole Moments
 -----------------------------------------------------------------
    Charge (ESU x 10^10)
                 0.0000
    Dipole Moment (Debye)
         X       2.6225      Y       2.2499      Z       3.0812
       Tot       4.6297
    Quadrupole Moments (Debye-Ang)
        XX    -193.5351     XY       7.2694     YY    -172.7778
        XZ     -10.3936     YZ      -6.5762     ZZ    -181.7843

 Total job time:  709.55s(wall), 9023.98s(cpu)
        *  Thank you very much for using Q-Chem.  Have a nice day.  *
