 Q-Chem 5.4, Q-Chem, Inc., Pleasanton, CA (2021)
 Q-Chem 5.4.0 for Intel X86 EM64T Linux

User input:
--------------------------------------------------------------
$molecule
0 1
C	0.306235	-8.517702	0.095966
C	-0.754415	-7.641575	-0.082807
S	1.833702	-7.638634	0.348635
C	-0.383675	-6.264785	-0.017401
H	-1.787757	-7.966081	-0.259008
C	1.020885	-6.072714	0.231913
C	1.579097	-4.787049	0.305044
C	-1.268082	-5.162801	-0.196549
C	-0.708796	-3.874817	-0.127606
C	0.696769	-3.683952	0.124792
O	-2.572378	-5.499772	-0.397867
O	2.889532	-4.459055	0.506103
C	3.718420	-5.329063	1.267335
H	4.635204	-4.755694	1.502804
H	4.010790	-6.238095	0.697471
H	3.226506	-5.637262	2.215194
C	-3.467415	-4.572261	-0.999238
H	-4.388648	-5.139743	-1.230649
H	-3.052323	-4.153131	-1.940905
H	-3.730819	-3.739531	-0.311543
C	1.064366	-2.306654	0.187323
S	-1.521154	-2.306501	-0.257128
C	-0.000000	-1.435185	-0.000000
H	2.095939	-1.978138	0.365903
H	0.309131	-9.614033	0.092855
C	0.000000	0.000000	0.000000
S	0.581934	0.692785	1.507541
C	1.592155	1.897915	0.718873
C	0.581944	0.692363	-1.067872
C	1.473741	1.758764	-0.686410
S	0.427560	0.503942	-2.805516
C	1.549278	1.849357	-3.054530
C	2.002690	2.393529	-1.862551
F	2.858191	3.420549	-1.819088
C	1.838710	2.191348	-4.456084
O	1.349977	1.596481	-5.406510
O	2.701091	3.230705	-4.569225
C	3.023327	3.606605	-5.916207
H	3.725703	4.454534	-5.833064
H	2.112072	3.910035	-6.470168
H	3.495281	2.762996	-6.459293
H	2.185174	2.606846	1.306486
$end

$rem
JOBTYPE		SP
EXCHANGE	HF
CORRELATION	pRIMP2
BASIS		cc-pvtz
METHOD		rimp2
AUX_BASIS	rimp2-cc-pvtz
SOLVENT_METHOD	PCM
PURECART	11111
SYMMETRY	false
MEM_TOTAL	110000
SCF_CONVERGENCE = 6
THRESH=10
GUI = 2
$end

$solvent
dielectric 4.90
$end
--------------------------------------------------------------

             Standard Nuclear Orientation (Angstroms)
    I     Atom           X                Y                Z
 ----------------------------------------------------------------
    1      C       0.3062350000    -8.5177020000     0.0959660000
    2      C      -0.7544150000    -7.6415750000    -0.0828070000
    3      S       1.8337020000    -7.6386340000     0.3486350000
    4      C      -0.3836750000    -6.2647850000    -0.0174010000
    5      H      -1.7877570000    -7.9660810000    -0.2590080000
    6      C       1.0208850000    -6.0727140000     0.2319130000
    7      C       1.5790970000    -4.7870490000     0.3050440000
    8      C      -1.2680820000    -5.1628010000    -0.1965490000
    9      C      -0.7087960000    -3.8748170000    -0.1276060000
   10      C       0.6967690000    -3.6839520000     0.1247920000
   11      O      -2.5723780000    -5.4997720000    -0.3978670000
   12      O       2.8895320000    -4.4590550000     0.5061030000
   13      C       3.7184200000    -5.3290630000     1.2673350000
   14      H       4.6352040000    -4.7556940000     1.5028040000
   15      H       4.0107900000    -6.2380950000     0.6974710000
   16      H       3.2265060000    -5.6372620000     2.2151940000
   17      C      -3.4674150000    -4.5722610000    -0.9992380000
   18      H      -4.3886480000    -5.1397430000    -1.2306490000
   19      H      -3.0523230000    -4.1531310000    -1.9409050000
   20      H      -3.7308190000    -3.7395310000    -0.3115430000
   21      C       1.0643660000    -2.3066540000     0.1873230000
   22      S      -1.5211540000    -2.3065010000    -0.2571280000
   23      C       0.0000000000    -1.4351850000     0.0000000000
   24      H       2.0959390000    -1.9781380000     0.3659030000
   25      H       0.3091310000    -9.6140330000     0.0928550000
   26      C       0.0000000000     0.0000000000     0.0000000000
   27      S       0.5819340000     0.6927850000     1.5075410000
   28      C       1.5921550000     1.8979150000     0.7188730000
   29      C       0.5819440000     0.6923630000    -1.0678720000
   30      C       1.4737410000     1.7587640000    -0.6864100000
   31      S       0.4275600000     0.5039420000    -2.8055160000
   32      C       1.5492780000     1.8493570000    -3.0545300000
   33      C       2.0026900000     2.3935290000    -1.8625510000
   34      F       2.8581910000     3.4205490000    -1.8190880000
   35      C       1.8387100000     2.1913480000    -4.4560840000
   36      O       1.3499770000     1.5964810000    -5.4065100000
   37      O       2.7010910000     3.2307050000    -4.5692250000
   38      C       3.0233270000     3.6066050000    -5.9162070000
   39      H       3.7257030000     4.4545340000    -5.8330640000
   40      H       2.1120720000     3.9100350000    -6.4701680000
   41      H       3.4952810000     2.7629960000    -6.4592930000
   42      H       2.1851740000     2.6068460000     1.3064860000
 ----------------------------------------------------------------

   10   -2754.2860183901      9.17e-07  Convergence criterion met
 Total energy in the final basis set =    -2754.2860183901
        RIMP2         total energy =     -2759.3423087045 a.u.

                    Orbital Energies (a.u.)
 --------------------------------------------------------------

 Alpha MOs
 -- Occupied --
-92.0140 -92.0019 -91.9850 -91.9842 -26.3441 -20.6145 -20.5912 -20.5901
-20.5608 -11.4091 -11.3838 -11.3203 -11.3174 -11.3153 -11.3098 -11.2966
-11.2914 -11.2887 -11.2859 -11.2856 -11.2849 -11.2825 -11.2825 -11.2824
-11.2781 -11.2588 -11.2565 -11.2516 -11.2489  -9.0127  -9.0018  -8.9849
 -8.9848  -6.6933  -6.6926  -6.6922  -6.6827  -6.6820  -6.6809  -6.6659
 -6.6657  -6.6653  -6.6650  -6.6645  -6.6641  -1.6612  -1.4670  -1.4152
 -1.4129  -1.3697  -1.2247  -1.1921  -1.1640  -1.1368  -1.0835  -1.0499
 -1.0427  -1.0234  -0.9991  -0.9867  -0.9624  -0.9588  -0.9491  -0.9394
 -0.8936  -0.8684  -0.8466  -0.8119  -0.7930  -0.7880  -0.7848  -0.7636
 -0.7552  -0.7320  -0.7260  -0.7105  -0.6997  -0.6851  -0.6820  -0.6805
 -0.6738  -0.6584  -0.6573  -0.6516  -0.6288  -0.6189  -0.6157  -0.6061
 -0.5988  -0.5876  -0.5739  -0.5692  -0.5660  -0.5631  -0.5534  -0.5510
 -0.5308  -0.5248  -0.5210  -0.5151  -0.5134  -0.5095  -0.5032  -0.4931
 -0.4885  -0.4815  -0.4742  -0.4733  -0.4688  -0.4632  -0.4594  -0.4039
 -0.3958  -0.3857  -0.3607  -0.3435  -0.3114  -0.3035  -0.2557

          Ground-State Mulliken Net Atomic Charges

     Atom                 Charge (a.u.)
  ----------------------------------------
      1 C                    -0.191647
      2 C                    -0.254047
      3 S                    -0.025127
      4 C                    -0.017470
      5 H                     0.195960
      6 C                    -0.028421
      7 C                     0.237748
      8 C                     0.243093
      9 C                    -0.047444
     10 C                    -0.016077
     11 O                    -0.333671
     12 O                    -0.340995
     13 C                    -0.085642
     14 H                     0.121801
     15 H                     0.091060
     16 H                     0.093369
     17 C                    -0.086090
     18 H                     0.124324
     19 H                     0.094631
     20 H                     0.089460
     21 C                    -0.226356
     22 S                    -0.008616
     23 C                    -0.035993
     24 H                     0.197855
     25 H                     0.205755
     26 C                    -0.084530
     27 S                     0.114487
     28 C                    -0.162988
     29 C                     0.011423
     30 C                    -0.091205
     31 S                     0.028595
     32 C                    -0.154334
     33 C                     0.391068
     34 F                    -0.205541
     35 C                     0.447492
     36 O                    -0.462148
     37 O                    -0.301236
     38 C                    -0.058349
     39 H                     0.121218
     40 H                     0.095094
     41 H                     0.095117
     42 H                     0.218376
  ----------------------------------------
  Sum of atomic charges =     0.000000

                    Cartesian Multipole Moments
 -----------------------------------------------------------------
    Charge (ESU x 10^10)
                -0.0000
    Dipole Moment (Debye)
         X       2.0620      Y       1.4514      Z       3.0754
       Tot       3.9770
    Quadrupole Moments (Debye-Ang)
        XX    -174.4995     XY       8.4969     YY    -170.0416
        XZ       4.5455     YZ      -6.8524     ZZ    -201.8880

 Total job time:  300.66s(wall), 9639.30s(cpu)
        *  Thank you very much for using Q-Chem.  Have a nice day.  *
