 Q-Chem 5.4, Q-Chem, Inc., Pleasanton, CA (2021)
 Q-Chem 5.4.0 for Intel X86 EM64T Linux

User input:
--------------------------------------------------------------
$molecule
0 1
C	-0.014560	-8.517702	-0.320589
C	0.180211	-7.641575	0.737240
S	-0.299553	-7.638634	-1.842356
C	0.114873	-6.264785	0.366488
H	0.368061	-7.966081	1.768528
C	-0.131236	-6.072714	-1.038637
C	-0.253435	-4.787049	-1.588197
C	0.249014	-5.162801	1.258831
C	0.122513	-3.874817	0.709695
C	-0.121043	-3.683952	-0.697430
O	0.505933	-5.499772	2.553323
O	-0.512697	-4.459055	-2.888369
C	-0.080869	-5.329063	-3.927625
H	-0.173159	-4.755694	-4.869656
H	-0.716363	-6.238095	-4.007459
H	0.978072	-5.637262	-3.789565
C	0.246949	-4.572261	3.600064
H	0.344574	-5.139743	4.544887
H	-0.779898	-4.153131	3.532074
H	0.983261	-3.739531	3.612378
C	-0.188009	-2.306654	-1.064246
S	0.278644	-2.306501	1.517360
C	-0.000000	-1.435185	-0.000000
H	-0.373017	-1.978138	-2.094685
H	-0.018474	-9.614033	-0.322246
C	0.000000	0.000000	0.000000
S	0.581934	0.692785	1.507541
C	1.592155	1.897915	0.718873
C	0.581944	0.692363	-1.067872
C	1.473741	1.758764	-0.686410
S	0.427560	0.503942	-2.805516
C	1.549278	1.849357	-3.054530
C	2.002690	2.393529	-1.862551
F	2.858191	3.420549	-1.819088
C	1.838710	2.191348	-4.456084
O	1.349977	1.596481	-5.406510
O	2.701091	3.230705	-4.569225
C	3.023327	3.606605	-5.916207
H	3.725703	4.454534	-5.833064
H	2.112072	3.910035	-6.470168
H	3.495281	2.762996	-6.459293
H	2.185174	2.606846	1.306486
$end

$rem
JOBTYPE		SP
EXCHANGE	HF
CORRELATION	pRIMP2
BASIS		cc-pvtz
METHOD		rimp2
AUX_BASIS	rimp2-cc-pvtz
SOLVENT_METHOD	PCM
PURECART	11111
SYMMETRY	false
MEM_TOTAL	110000
SCF_CONVERGENCE = 6
THRESH=10
GUI = 2
$end

$solvent
dielectric 4.90
$end
--------------------------------------------------------------

             Standard Nuclear Orientation (Angstroms)
    I     Atom           X                Y                Z
 ----------------------------------------------------------------
    1      C      -0.0145600000    -8.5177020000    -0.3205890000
    2      C       0.1802110000    -7.6415750000     0.7372400000
    3      S      -0.2995530000    -7.6386340000    -1.8423560000
    4      C       0.1148730000    -6.2647850000     0.3664880000
    5      H       0.3680610000    -7.9660810000     1.7685280000
    6      C      -0.1312360000    -6.0727140000    -1.0386370000
    7      C      -0.2534350000    -4.7870490000    -1.5881970000
    8      C       0.2490140000    -5.1628010000     1.2588310000
    9      C       0.1225130000    -3.8748170000     0.7096950000
   10      C      -0.1210430000    -3.6839520000    -0.6974300000
   11      O       0.5059330000    -5.4997720000     2.5533230000
   12      O      -0.5126970000    -4.4590550000    -2.8883690000
   13      C      -0.0808690000    -5.3290630000    -3.9276250000
   14      H      -0.1731590000    -4.7556940000    -4.8696560000
   15      H      -0.7163630000    -6.2380950000    -4.0074590000
   16      H       0.9780720000    -5.6372620000    -3.7895650000
   17      C       0.2469490000    -4.5722610000     3.6000640000
   18      H       0.3445740000    -5.1397430000     4.5448870000
   19      H      -0.7798980000    -4.1531310000     3.5320740000
   20      H       0.9832610000    -3.7395310000     3.6123780000
   21      C      -0.1880090000    -2.3066540000    -1.0642460000
   22      S       0.2786440000    -2.3065010000     1.5173600000
   23      C       0.0000000000    -1.4351850000     0.0000000000
   24      H      -0.3730170000    -1.9781380000    -2.0946850000
   25      H      -0.0184740000    -9.6140330000    -0.3222460000
   26      C       0.0000000000     0.0000000000     0.0000000000
   27      S       0.5819340000     0.6927850000     1.5075410000
   28      C       1.5921550000     1.8979150000     0.7188730000
   29      C       0.5819440000     0.6923630000    -1.0678720000
   30      C       1.4737410000     1.7587640000    -0.6864100000
   31      S       0.4275600000     0.5039420000    -2.8055160000
   32      C       1.5492780000     1.8493570000    -3.0545300000
   33      C       2.0026900000     2.3935290000    -1.8625510000
   34      F       2.8581910000     3.4205490000    -1.8190880000
   35      C       1.8387100000     2.1913480000    -4.4560840000
   36      O       1.3499770000     1.5964810000    -5.4065100000
   37      O       2.7010910000     3.2307050000    -4.5692250000
   38      C       3.0233270000     3.6066050000    -5.9162070000
   39      H       3.7257030000     4.4545340000    -5.8330640000
   40      H       2.1120720000     3.9100350000    -6.4701680000
   41      H       3.4952810000     2.7629960000    -6.4592930000
   42      H       2.1851740000     2.6068460000     1.3064860000
 ----------------------------------------------------------------

   10   -2754.2852400516      7.32e-07  Convergence criterion met
 Total energy in the final basis set =    -2754.2852400516
        RIMP2         total energy =     -2759.3452539024 a.u.

                    Orbital Energies (a.u.)
 --------------------------------------------------------------

 Alpha MOs
 -- Occupied --
-92.0160 -92.0060 -91.9883 -91.9840 -26.3457 -20.6156 -20.5917 -20.5878
-20.5622 -11.4106 -11.3860 -11.3238 -11.3181 -11.3118 -11.3115 -11.2990
-11.2974 -11.2902 -11.2894 -11.2887 -11.2870 -11.2838 -11.2819 -11.2812
-11.2759 -11.2593 -11.2540 -11.2482 -11.2434  -9.0152  -9.0058  -8.9890
 -8.9839  -6.6960  -6.6953  -6.6948  -6.6867  -6.6860  -6.6849  -6.6700
 -6.6693  -6.6683  -6.6649  -6.6643  -6.6634  -1.6626  -1.4682  -1.4156
 -1.4106  -1.3709  -1.2286  -1.1919  -1.1651  -1.1392  -1.0850  -1.0494
 -1.0445  -1.0265  -0.9989  -0.9877  -0.9655  -0.9588  -0.9491  -0.9393
 -0.8946  -0.8708  -0.8484  -0.8109  -0.7984  -0.7876  -0.7838  -0.7624
 -0.7562  -0.7318  -0.7274  -0.7127  -0.7004  -0.6865  -0.6825  -0.6811
 -0.6747  -0.6596  -0.6578  -0.6505  -0.6294  -0.6179  -0.6156  -0.6028
 -0.6014  -0.5856  -0.5793  -0.5706  -0.5641  -0.5610  -0.5563  -0.5444
 -0.5348  -0.5307  -0.5225  -0.5168  -0.5165  -0.5111  -0.5040  -0.4947
 -0.4872  -0.4822  -0.4764  -0.4749  -0.4693  -0.4614  -0.4585  -0.4271
 -0.3946  -0.3815  -0.3617  -0.3464  -0.3281  -0.2902  -0.2469

          Ground-State Mulliken Net Atomic Charges

     Atom                 Charge (a.u.)
  ----------------------------------------
      1 C                    -0.196646
      2 C                    -0.253524
      3 S                    -0.025850
      4 C                    -0.022781
      5 H                     0.195280
      6 C                    -0.024571
      7 C                     0.234502
      8 C                     0.244272
      9 C                    -0.048941
     10 C                    -0.011996
     11 O                    -0.333069
     12 O                    -0.342252
     13 C                    -0.086126
     14 H                     0.122642
     15 H                     0.090740
     16 H                     0.092791
     17 C                    -0.088626
     18 H                     0.125672
     19 H                     0.094674
     20 H                     0.089190
     21 C                    -0.261077
     22 S                    -0.037960
     23 C                    -0.008097
     24 H                     0.187143
     25 H                     0.205041
     26 C                    -0.033969
     27 S                     0.093254
     28 C                    -0.155553
     29 C                     0.034920
     30 C                    -0.113875
     31 S                     0.034073
     32 C                    -0.159990
     33 C                     0.403349
     34 F                    -0.204343
     35 C                     0.448017
     36 O                    -0.461157
     37 O                    -0.301158
     38 C                    -0.058314
     39 H                     0.121597
     40 H                     0.095327
     41 H                     0.095311
     42 H                     0.222078
  ----------------------------------------
  Sum of atomic charges =     0.000000

                    Cartesian Multipole Moments
 -----------------------------------------------------------------
    Charge (ESU x 10^10)
                 0.0000
    Dipole Moment (Debye)
         X       2.6949      Y       2.3040      Z       3.0641
       Tot       4.6861
    Quadrupole Moments (Debye-Ang)
        XX    -194.8092     XY       7.1498     YY    -173.1061
        XZ      -6.3382     YZ      -6.4525     ZZ    -180.4879

 Total job time:  300.00s(wall), 9304.48s(cpu)
        *  Thank you very much for using Q-Chem.  Have a nice day.  *
