 Q-Chem 5.4, Q-Chem, Inc., Pleasanton, CA (2021)
 Q-Chem 5.4.0 for Intel X86 EM64T Linux

User input:
--------------------------------------------------------------
$molecule
0 1
C	-0.095966	-8.517702	0.306235
C	0.082807	-7.641575	-0.754415
S	-0.348635	-7.638634	1.833702
C	0.017401	-6.264785	-0.383675
H	0.259008	-7.966081	-1.787757
C	-0.231913	-6.072714	1.020885
C	-0.305044	-4.787049	1.579097
C	0.196549	-5.162801	-1.268082
C	0.127606	-3.874817	-0.708796
C	-0.124792	-3.683952	0.696769
O	0.397867	-5.499772	-2.572378
O	-0.506103	-4.459055	2.889532
C	-1.267335	-5.329063	3.718420
H	-1.502804	-4.755694	4.635204
H	-0.697471	-6.238095	4.010790
H	-2.215194	-5.637262	3.226506
C	0.999238	-4.572261	-3.467415
H	1.230649	-5.139743	-4.388648
H	1.940905	-4.153131	-3.052323
H	0.311543	-3.739531	-3.730819
C	-0.187323	-2.306654	1.064366
S	0.257128	-2.306501	-1.521154
C	-0.000000	-1.435185	-0.000000
H	-0.365903	-1.978138	2.095939
H	-0.092855	-9.614033	0.309131
C	0.000000	0.000000	0.000000
S	0.234628	0.873813	1.507541
C	0.640889	2.392969	0.718873
C	0.234815	0.873434	-1.067872
C	0.592377	2.216811	-0.686410
S	0.174526	0.637422	-2.805516
C	0.622551	2.330840	-3.054530
C	0.803505	3.015647	-1.862551
F	1.144815	4.307994	-1.819088
C	0.740334	2.763108	-4.456084
O	0.548793	2.017428	-5.406510
O	1.082665	4.069544	-4.569225
C	1.215848	4.546407	-5.916207
H	1.494066	5.611729	-5.833064
H	0.261736	4.436296	-6.470168
H	2.000108	3.981294	-6.459293
H	0.878739	3.286099	1.306486
$end

$rem
JOBTYPE		SP
EXCHANGE	HF
CORRELATION	pRIMP2
BASIS		cc-pvtz
METHOD		rimp2
AUX_BASIS	rimp2-cc-pvtz
SOLVENT_METHOD	PCM
PURECART	11111
SYMMETRY	false
MEM_TOTAL	110000
SCF_CONVERGENCE = 6
THRESH=10
GUI = 2
$end

$solvent
dielectric 4.90
$end
--------------------------------------------------------------

             Standard Nuclear Orientation (Angstroms)
    I     Atom           X                Y                Z
 ----------------------------------------------------------------
    1      C      -0.0959660000    -8.5177020000     0.3062350000
    2      C       0.0828070000    -7.6415750000    -0.7544150000
    3      S      -0.3486350000    -7.6386340000     1.8337020000
    4      C       0.0174010000    -6.2647850000    -0.3836750000
    5      H       0.2590080000    -7.9660810000    -1.7877570000
    6      C      -0.2319130000    -6.0727140000     1.0208850000
    7      C      -0.3050440000    -4.7870490000     1.5790970000
    8      C       0.1965490000    -5.1628010000    -1.2680820000
    9      C       0.1276060000    -3.8748170000    -0.7087960000
   10      C      -0.1247920000    -3.6839520000     0.6967690000
   11      O       0.3978670000    -5.4997720000    -2.5723780000
   12      O      -0.5061030000    -4.4590550000     2.8895320000
   13      C      -1.2673350000    -5.3290630000     3.7184200000
   14      H      -1.5028040000    -4.7556940000     4.6352040000
   15      H      -0.6974710000    -6.2380950000     4.0107900000
   16      H      -2.2151940000    -5.6372620000     3.2265060000
   17      C       0.9992380000    -4.5722610000    -3.4674150000
   18      H       1.2306490000    -5.1397430000    -4.3886480000
   19      H       1.9409050000    -4.1531310000    -3.0523230000
   20      H       0.3115430000    -3.7395310000    -3.7308190000
   21      C      -0.1873230000    -2.3066540000     1.0643660000
   22      S       0.2571280000    -2.3065010000    -1.5211540000
   23      C       0.0000000000    -1.4351850000     0.0000000000
   24      H      -0.3659030000    -1.9781380000     2.0959390000
   25      H      -0.0928550000    -9.6140330000     0.3091310000
   26      C       0.0000000000     0.0000000000     0.0000000000
   27      S       0.2346280000     0.8738130000     1.5075410000
   28      C       0.6408890000     2.3929690000     0.7188730000
   29      C       0.2348150000     0.8734340000    -1.0678720000
   30      C       0.5923770000     2.2168110000    -0.6864100000
   31      S       0.1745260000     0.6374220000    -2.8055160000
   32      C       0.6225510000     2.3308400000    -3.0545300000
   33      C       0.8035050000     3.0156470000    -1.8625510000
   34      F       1.1448150000     4.3079940000    -1.8190880000
   35      C       0.7403340000     2.7631080000    -4.4560840000
   36      O       0.5487930000     2.0174280000    -5.4065100000
   37      O       1.0826650000     4.0695440000    -4.5692250000
   38      C       1.2158480000     4.5464070000    -5.9162070000
   39      H       1.4940660000     5.6117290000    -5.8330640000
   40      H       0.2617360000     4.4362960000    -6.4701680000
   41      H       2.0001080000     3.9812940000    -6.4592930000
   42      H       0.8787390000     3.2860990000     1.3064860000
 ----------------------------------------------------------------

   10   -2754.3116057689      7.69e-07  Convergence criterion met
 Total energy in the final basis set =    -2754.3116057689
        RIMP2         total energy =     -2759.3661224928 a.u.

                    Orbital Energies (a.u.)
 --------------------------------------------------------------

 Alpha MOs
 -- Occupied --
-92.0151 -91.9995 -91.9906 -91.9859 -26.3438 -20.6149 -20.5923 -20.5909
-20.5615 -11.4096 -11.3831 -11.3198 -11.3162 -11.3125 -11.3024 -11.3004
-11.2979 -11.2977 -11.2889 -11.2865 -11.2861 -11.2860 -11.2856 -11.2840
-11.2786 -11.2620 -11.2575 -11.2532 -11.2496  -9.0138  -8.9997  -8.9913
 -8.9858  -6.6946  -6.6940  -6.6934  -6.6806  -6.6799  -6.6788  -6.6722
 -6.6716  -6.6706  -6.6668  -6.6662  -6.6653  -1.6608  -1.4674  -1.4163
 -1.4137  -1.3701  -1.2233  -1.1944  -1.1658  -1.1369  -1.0861  -1.0519
 -1.0419  -1.0246  -1.0019  -0.9881  -0.9646  -0.9583  -0.9498  -0.9413
 -0.8957  -0.8686  -0.8515  -0.8156  -0.7923  -0.7879  -0.7854  -0.7650
 -0.7556  -0.7338  -0.7256  -0.7106  -0.6988  -0.6860  -0.6834  -0.6820
 -0.6740  -0.6591  -0.6584  -0.6523  -0.6308  -0.6196  -0.6166  -0.6033
 -0.5980  -0.5845  -0.5792  -0.5693  -0.5680  -0.5603  -0.5572  -0.5533
 -0.5327  -0.5293  -0.5243  -0.5200  -0.5178  -0.5116  -0.5062  -0.4948
 -0.4869  -0.4788  -0.4772  -0.4751  -0.4701  -0.4636  -0.4589  -0.4270
 -0.3932  -0.3856  -0.3610  -0.3521  -0.3248  -0.2910  -0.2480

          Ground-State Mulliken Net Atomic Charges

     Atom                 Charge (a.u.)
  ----------------------------------------
      1 C                    -0.191300
      2 C                    -0.253494
      3 S                    -0.023640
      4 C                    -0.019084
      5 H                     0.196309
      6 C                    -0.026966
      7 C                     0.237464
      8 C                     0.245083
      9 C                    -0.037218
     10 C                    -0.012185
     11 O                    -0.332714
     12 O                    -0.341019
     13 C                    -0.085626
     14 H                     0.122052
     15 H                     0.091077
     16 H                     0.093909
     17 C                    -0.090036
     18 H                     0.126311
     19 H                     0.095222
     20 H                     0.091071
     21 C                    -0.273852
     22 S                    -0.045091
     23 C                     0.030458
     24 H                     0.186088
     25 H                     0.206078
     26 C                     0.046393
     27 S                     0.096694
     28 C                    -0.187652
     29 C                    -0.034645
     30 C                    -0.112819
     31 S                     0.010233
     32 C                    -0.167877
     33 C                     0.414185
     34 F                    -0.206575
     35 C                     0.442733
     36 O                    -0.461158
     37 O                    -0.300829
     38 C                    -0.058522
     39 H                     0.121481
     40 H                     0.095193
     41 H                     0.095110
     42 H                     0.219158
  ----------------------------------------
  Sum of atomic charges =     0.000000

                    Cartesian Multipole Moments
 -----------------------------------------------------------------
    Charge (ESU x 10^10)
                 0.0000
    Dipole Moment (Debye)
         X       0.5956      Y       1.4087      Z       2.6314
       Tot       3.0436
    Quadrupole Moments (Debye-Ang)
        XX    -197.1487     XY       5.3619     YY    -162.2168
        XZ     -11.1326     YZ      -6.5358     ZZ    -184.8397

 Total job time:  297.40s(wall), 9278.08s(cpu)
        *  Thank you very much for using Q-Chem.  Have a nice day.  *
