 Q-Chem 5.4, Q-Chem, Inc., Pleasanton, CA (2021)
 Q-Chem 5.4.0 for Intel X86 EM64T Linux

User input:
--------------------------------------------------------------
$molecule
0 1
C	0.313191	-8.517702	-0.070009
C	-0.694746	-7.641575	0.305494
S	1.762350	-7.638634	-0.614924
C	-0.340973	-6.264785	0.176768
H	-1.677747	-7.966081	0.669571
C	1.000069	-6.072714	-0.309600
C	1.520060	-4.787049	-0.525372
C	-1.196466	-5.162801	0.463825
C	-0.677639	-3.874817	0.243888
C	0.665815	-3.683952	-0.240312
O	-2.426678	-5.499772	0.941626
O	2.755460	-4.459055	-1.006468
C	3.853913	-5.329063	-0.761666
H	4.765607	-4.755694	-1.016135
H	3.822182	-6.238095	-1.401368
H	3.901833	-5.637262	0.305161
C	-3.502489	-4.572261	0.868342
H	-4.416005	-5.139743	1.128551
H	-3.613841	-4.153131	-0.154712
H	-3.386756	-3.739531	1.595605
C	1.015430	-2.306654	-0.369957
S	-1.445922	-2.306501	0.537898
C	-0.000000	-1.435185	-0.000000
H	1.998088	-1.978138	-0.731088
H	0.314143	-9.614033	-0.074151
C	0.000000	0.000000	0.000000
S	0.079327	0.901280	1.507541
C	0.215617	2.467903	0.718873
C	0.079577	0.900940	-1.067872
C	0.198433	2.285998	-0.686410
S	0.061187	0.658044	-2.805516
C	0.208347	2.403534	-3.054530
C	0.267636	3.109360	-1.862551
F	0.379347	4.441341	-1.819088
C	0.249278	2.849688	-4.456084
O	0.190132	2.082076	-5.406510
O	0.359548	4.195721	-4.569225
C	0.407901	4.688467	-5.916207
H	0.496901	5.785916	-5.833064
H	-0.512596	4.414348	-6.470168
H	1.278377	4.268124	-6.459293
H	0.294764	3.388767	1.306486
$end

$rem
JOBTYPE		SP
EXCHANGE	HF
CORRELATION	pRIMP2
BASIS		cc-pvtz
METHOD		rimp2
AUX_BASIS	rimp2-cc-pvtz
SOLVENT_METHOD	PCM
PURECART	11111
SYMMETRY	false
MEM_TOTAL	110000
SCF_CONVERGENCE = 6
THRESH=10
GUI = 2
$end

$solvent
dielectric 4.90
$end
--------------------------------------------------------------

             Standard Nuclear Orientation (Angstroms)
    I     Atom           X                Y                Z
 ----------------------------------------------------------------
    1      C       0.3131910000    -8.5177020000    -0.0700090000
    2      C      -0.6947460000    -7.6415750000     0.3054940000
    3      S       1.7623500000    -7.6386340000    -0.6149240000
    4      C      -0.3409730000    -6.2647850000     0.1767680000
    5      H      -1.6777470000    -7.9660810000     0.6695710000
    6      C       1.0000690000    -6.0727140000    -0.3096000000
    7      C       1.5200600000    -4.7870490000    -0.5253720000
    8      C      -1.1964660000    -5.1628010000     0.4638250000
    9      C      -0.6776390000    -3.8748170000     0.2438880000
   10      C       0.6658150000    -3.6839520000    -0.2403120000
   11      O      -2.4266780000    -5.4997720000     0.9416260000
   12      O       2.7554600000    -4.4590550000    -1.0064680000
   13      C       3.8539130000    -5.3290630000    -0.7616660000
   14      H       4.7656070000    -4.7556940000    -1.0161350000
   15      H       3.8221820000    -6.2380950000    -1.4013680000
   16      H       3.9018330000    -5.6372620000     0.3051610000
   17      C      -3.5024890000    -4.5722610000     0.8683420000
   18      H      -4.4160050000    -5.1397430000     1.1285510000
   19      H      -3.6138410000    -4.1531310000    -0.1547120000
   20      H      -3.3867560000    -3.7395310000     1.5956050000
   21      C       1.0154300000    -2.3066540000    -0.3699570000
   22      S      -1.4459220000    -2.3065010000     0.5378980000
   23      C       0.0000000000    -1.4351850000     0.0000000000
   24      H       1.9980880000    -1.9781380000    -0.7310880000
   25      H       0.3141430000    -9.6140330000    -0.0741510000
   26      C       0.0000000000     0.0000000000     0.0000000000
   27      S       0.0793270000     0.9012800000     1.5075410000
   28      C       0.2156170000     2.4679030000     0.7188730000
   29      C       0.0795770000     0.9009400000    -1.0678720000
   30      C       0.1984330000     2.2859980000    -0.6864100000
   31      S       0.0611870000     0.6580440000    -2.8055160000
   32      C       0.2083470000     2.4035340000    -3.0545300000
   33      C       0.2676360000     3.1093600000    -1.8625510000
   34      F       0.3793470000     4.4413410000    -1.8190880000
   35      C       0.2492780000     2.8496880000    -4.4560840000
   36      O       0.1901320000     2.0820760000    -5.4065100000
   37      O       0.3595480000     4.1957210000    -4.5692250000
   38      C       0.4079010000     4.6884670000    -5.9162070000
   39      H       0.4969010000     5.7859160000    -5.8330640000
   40      H      -0.5125960000     4.4143480000    -6.4701680000
   41      H       1.2783770000     4.2681240000    -6.4592930000
   42      H       0.2947640000     3.3887670000     1.3064860000
 ----------------------------------------------------------------

   10   -2754.3142884214      6.95e-07  Convergence criterion met
 Total energy in the final basis set =    -2754.3142884214
        RIMP2         total energy =     -2759.3637517370 a.u.

                    Orbital Energies (a.u.)
 --------------------------------------------------------------

 Alpha MOs
 -- Occupied --
-92.0144 -91.9963 -91.9893 -91.9866 -26.3424 -20.6142 -20.5926 -20.5918
-20.5605 -11.4086 -11.3812 -11.3194 -11.3187 -11.3088 -11.3001 -11.2971
-11.2963 -11.2923 -11.2884 -11.2872 -11.2865 -11.2862 -11.2842 -11.2835
-11.2803 -11.2609 -11.2596 -11.2585 -11.2502  -9.0129  -8.9963  -8.9897
 -8.9865  -6.6936  -6.6930  -6.6925  -6.6774  -6.6766  -6.6755  -6.6706
 -6.6699  -6.6690  -6.6675  -6.6669  -6.6660  -1.6595  -1.4666  -1.4167
 -1.4145  -1.3692  -1.2198  -1.1946  -1.1655  -1.1349  -1.0845  -1.0522
 -1.0405  -1.0216  -1.0018  -0.9878  -0.9615  -0.9605  -0.9504  -0.9385
 -0.8959  -0.8666  -0.8515  -0.8082  -0.7954  -0.7881  -0.7866  -0.7648
 -0.7548  -0.7341  -0.7244  -0.7089  -0.7013  -0.6844  -0.6833  -0.6799
 -0.6733  -0.6594  -0.6570  -0.6528  -0.6305  -0.6202  -0.6174  -0.6045
 -0.5969  -0.5844  -0.5775  -0.5703  -0.5667  -0.5615  -0.5538  -0.5500
 -0.5326  -0.5303  -0.5243  -0.5164  -0.5150  -0.5081  -0.5043  -0.4952
 -0.4893  -0.4790  -0.4751  -0.4729  -0.4693  -0.4670  -0.4610  -0.4088
 -0.3962  -0.3872  -0.3575  -0.3490  -0.3172  -0.2958  -0.2583

          Ground-State Mulliken Net Atomic Charges

     Atom                 Charge (a.u.)
  ----------------------------------------
      1 C                    -0.187465
      2 C                    -0.254217
      3 S                    -0.021381
      4 C                    -0.013852
      5 H                     0.196412
      6 C                    -0.027971
      7 C                     0.243711
      8 C                     0.239167
      9 C                    -0.049705
     10 C                    -0.028748
     11 O                    -0.333392
     12 O                    -0.339456
     13 C                    -0.085866
     14 H                     0.122892
     15 H                     0.091342
     16 H                     0.093823
     17 C                    -0.086489
     18 H                     0.124793
     19 H                     0.095211
     20 H                     0.089506
     21 C                    -0.213465
     22 S                    -0.001409
     23 C                    -0.040316
     24 H                     0.199544
     25 H                     0.206564
     26 C                    -0.037158
     27 S                     0.106532
     28 C                    -0.186133
     29 C                     0.012061
     30 C                    -0.107267
     31 S                     0.008044
     32 C                    -0.153785
     33 C                     0.392226
     34 F                    -0.207316
     35 C                     0.445084
     36 O                    -0.461140
     37 O                    -0.300619
     38 C                    -0.058661
     39 H                     0.121180
     40 H                     0.095079
     41 H                     0.094948
     42 H                     0.217692
  ----------------------------------------
  Sum of atomic charges =     0.000000

                    Cartesian Multipole Moments
 -----------------------------------------------------------------
    Charge (ESU x 10^10)
                -0.0000
    Dipole Moment (Debye)
         X       0.3116      Y       0.7991      Z       3.2800
       Tot       3.3903
    Quadrupole Moments (Debye-Ang)
        XX    -177.0062     XY       0.3661     YY    -159.1052
        XZ      -3.4521     YZ      -8.3934     ZZ    -206.5327

 Total job time:  290.59s(wall), 9310.11s(cpu)
        *  Thank you very much for using Q-Chem.  Have a nice day.  *
