 Q-Chem 5.4, Q-Chem, Inc., Pleasanton, CA (2021)
 Q-Chem 5.4.0 for Intel X86 EM64T Linux

User input:
--------------------------------------------------------------
$molecule
0 1
C	0.313191	-8.517702	-0.070009
C	-0.694746	-7.641575	0.305494
S	1.762350	-7.638634	-0.614924
C	-0.340973	-6.264785	0.176768
H	-1.677747	-7.966081	0.669571
C	1.000069	-6.072714	-0.309600
C	1.520060	-4.787049	-0.525372
C	-1.196466	-5.162801	0.463825
C	-0.677639	-3.874817	0.243888
C	0.665815	-3.683952	-0.240312
O	-2.426678	-5.499772	0.941626
O	2.755460	-4.459055	-1.006468
C	3.853913	-5.329063	-0.761666
H	4.765607	-4.755694	-1.016135
H	3.822182	-6.238095	-1.401368
H	3.901833	-5.637262	0.305161
C	-3.502489	-4.572261	0.868342
H	-4.416005	-5.139743	1.128551
H	-3.613841	-4.153131	-0.154712
H	-3.386756	-3.739531	1.595605
C	1.015430	-2.306654	-0.369957
S	-1.445922	-2.306501	0.537898
C	0.000000	-1.435185	0.000000
H	1.998088	-1.978138	-0.731088
H	0.314143	-9.614033	-0.074151
C	0.000000	0.000000	0.000000
S	0.000474	0.904764	1.507541
C	-0.000295	2.477305	0.718873
C	0.000752	0.904447	-1.067872
C	-0.001560	2.294593	-0.686410
S	0.003602	0.660872	-2.805516
C	-0.001928	2.412546	-3.054530
C	-0.004381	3.120854	-1.862551
F	-0.009185	4.457503	-1.819088
C	-0.000038	2.860570	-4.456084
O	0.007944	2.090724	-5.406510
O	-0.007501	4.211092	-4.569225
C	-0.002278	4.706177	-5.916207
H	-0.009265	5.807207	-5.833064
H	-0.895381	4.352875	-6.470168
H	0.901521	4.363301	-6.459293
H	-0.001708	3.401562	1.306486
$end

$rem
JOBTYPE		SP
EXCHANGE	HF
CORRELATION	pRIMP2
BASIS		cc-pvtz
METHOD		rimp2
AUX_BASIS	rimp2-cc-pvtz
SOLVENT_METHOD	PCM
PURECART	11111
SYMMETRY	false
MEM_TOTAL	110000
SCF_CONVERGENCE = 6
THRESH=10
GUI = 2
$end

$solvent
dielectric 4.90
$end
--------------------------------------------------------------

             Standard Nuclear Orientation (Angstroms)
    I     Atom           X                Y                Z
 ----------------------------------------------------------------
    1      C       0.3131910000    -8.5177020000    -0.0700090000
    2      C      -0.6947460000    -7.6415750000     0.3054940000
    3      S       1.7623500000    -7.6386340000    -0.6149240000
    4      C      -0.3409730000    -6.2647850000     0.1767680000
    5      H      -1.6777470000    -7.9660810000     0.6695710000
    6      C       1.0000690000    -6.0727140000    -0.3096000000
    7      C       1.5200600000    -4.7870490000    -0.5253720000
    8      C      -1.1964660000    -5.1628010000     0.4638250000
    9      C      -0.6776390000    -3.8748170000     0.2438880000
   10      C       0.6658150000    -3.6839520000    -0.2403120000
   11      O      -2.4266780000    -5.4997720000     0.9416260000
   12      O       2.7554600000    -4.4590550000    -1.0064680000
   13      C       3.8539130000    -5.3290630000    -0.7616660000
   14      H       4.7656070000    -4.7556940000    -1.0161350000
   15      H       3.8221820000    -6.2380950000    -1.4013680000
   16      H       3.9018330000    -5.6372620000     0.3051610000
   17      C      -3.5024890000    -4.5722610000     0.8683420000
   18      H      -4.4160050000    -5.1397430000     1.1285510000
   19      H      -3.6138410000    -4.1531310000    -0.1547120000
   20      H      -3.3867560000    -3.7395310000     1.5956050000
   21      C       1.0154300000    -2.3066540000    -0.3699570000
   22      S      -1.4459220000    -2.3065010000     0.5378980000
   23      C       0.0000000000    -1.4351850000     0.0000000000
   24      H       1.9980880000    -1.9781380000    -0.7310880000
   25      H       0.3141430000    -9.6140330000    -0.0741510000
   26      C       0.0000000000     0.0000000000     0.0000000000
   27      S       0.0004740000     0.9047640000     1.5075410000
   28      C      -0.0002950000     2.4773050000     0.7188730000
   29      C       0.0007520000     0.9044470000    -1.0678720000
   30      C      -0.0015600000     2.2945930000    -0.6864100000
   31      S       0.0036020000     0.6608720000    -2.8055160000
   32      C      -0.0019280000     2.4125460000    -3.0545300000
   33      C      -0.0043810000     3.1208540000    -1.8625510000
   34      F      -0.0091850000     4.4575030000    -1.8190880000
   35      C      -0.0000380000     2.8605700000    -4.4560840000
   36      O       0.0079440000     2.0907240000    -5.4065100000
   37      O      -0.0075010000     4.2110920000    -4.5692250000
   38      C      -0.0022780000     4.7061770000    -5.9162070000
   39      H      -0.0092650000     5.8072070000    -5.8330640000
   40      H      -0.8953810000     4.3528750000    -6.4701680000
   41      H       0.9015210000     4.3633010000    -6.4592930000
   42      H      -0.0017080000     3.4015620000     1.3064860000
 ----------------------------------------------------------------

   10   -2754.3147403256      6.92e-07  Convergence criterion met
 Total energy in the final basis set =    -2754.3147403256
        RIMP2         total energy =     -2759.3640582266 a.u.

                    Orbital Energies (a.u.)
 --------------------------------------------------------------

 Alpha MOs
 -- Occupied --
-92.0145 -91.9963 -91.9896 -91.9866 -26.3424 -20.6142 -20.5926 -20.5918
-20.5605 -11.4085 -11.3812 -11.3194 -11.3187 -11.3085 -11.3000 -11.2974
-11.2963 -11.2923 -11.2884 -11.2872 -11.2866 -11.2862 -11.2842 -11.2834
-11.2803 -11.2608 -11.2596 -11.2584 -11.2502  -9.0129  -8.9963  -8.9899
 -8.9866  -6.6936  -6.6931  -6.6925  -6.6773  -6.6766  -6.6754  -6.6709
 -6.6702  -6.6692  -6.6675  -6.6669  -6.6661  -1.6595  -1.4666  -1.4167
 -1.4145  -1.3692  -1.2197  -1.1947  -1.1655  -1.1349  -1.0845  -1.0522
 -1.0405  -1.0216  -1.0019  -0.9878  -0.9616  -0.9606  -0.9505  -0.9385
 -0.8960  -0.8666  -0.8516  -0.8082  -0.7953  -0.7881  -0.7866  -0.7649
 -0.7548  -0.7341  -0.7244  -0.7089  -0.7013  -0.6844  -0.6834  -0.6799
 -0.6733  -0.6594  -0.6570  -0.6528  -0.6306  -0.6203  -0.6174  -0.6044
 -0.5969  -0.5847  -0.5776  -0.5701  -0.5666  -0.5616  -0.5541  -0.5491
 -0.5332  -0.5304  -0.5243  -0.5164  -0.5151  -0.5081  -0.5044  -0.4952
 -0.4894  -0.4790  -0.4751  -0.4729  -0.4693  -0.4672  -0.4611  -0.4091
 -0.3962  -0.3871  -0.3575  -0.3492  -0.3170  -0.2958  -0.2584

          Ground-State Mulliken Net Atomic Charges

     Atom                 Charge (a.u.)
  ----------------------------------------
      1 C                    -0.187374
      2 C                    -0.254307
      3 S                    -0.021371
      4 C                    -0.013407
      5 H                     0.196423
      6 C                    -0.027693
      7 C                     0.244774
      8 C                     0.238139
      9 C                    -0.047056
     10 C                    -0.030853
     11 O                    -0.333325
     12 O                    -0.339471
     13 C                    -0.085878
     14 H                     0.122913
     15 H                     0.091364
     16 H                     0.093837
     17 C                    -0.086608
     18 H                     0.124819
     19 H                     0.095280
     20 H                     0.089553
     21 C                    -0.215522
     22 S                    -0.002194
     23 C                    -0.049315
     24 H                     0.199219
     25 H                     0.206579
     26 C                    -0.028214
     27 S                     0.105909
     28 C                    -0.186346
     29 C                     0.017949
     30 C                    -0.109002
     31 S                     0.006532
     32 C                    -0.153175
     33 C                     0.391934
     34 F                    -0.207315
     35 C                     0.444778
     36 O                    -0.461144
     37 O                    -0.300608
     38 C                    -0.058655
     39 H                     0.121191
     40 H                     0.095049
     41 H                     0.094961
     42 H                     0.217631
  ----------------------------------------
  Sum of atomic charges =     0.000000

                    Cartesian Multipole Moments
 -----------------------------------------------------------------
    Charge (ESU x 10^10)
                -0.0000
    Dipole Moment (Debye)
         X       0.0653      Y       0.7847      Z       3.2834
       Tot       3.3765
    Quadrupole Moments (Debye-Ang)
        XX    -177.1124     XY      -0.9872     YY    -158.9081
        XZ      -2.8181     YZ      -8.4244     ZZ    -206.5449

 Total job time:  321.28s(wall), 10190.53s(cpu)
        *  Thank you very much for using Q-Chem.  Have a nice day.  *
