 Q-Chem 5.4, Q-Chem, Inc., Pleasanton, CA (2021)
 Q-Chem 5.4.0 for Intel X86 EM64T Linux

User input:
--------------------------------------------------------------
$molecule
0 1
C	0.070009	-8.517702	0.313191
C	-0.305494	-7.641575	-0.694746
S	0.614924	-7.638634	1.762350
C	-0.176768	-6.264785	-0.340973
H	-0.669571	-7.966081	-1.677747
C	0.309600	-6.072714	1.000069
C	0.525372	-4.787049	1.520060
C	-0.463825	-5.162801	-1.196466
C	-0.243888	-3.874817	-0.677639
C	0.240312	-3.683952	0.665815
O	-0.941626	-5.499772	-2.426678
O	1.006468	-4.459055	2.755460
C	0.761666	-5.329063	3.853913
H	1.016135	-4.755694	4.765607
H	1.401368	-6.238095	3.822182
H	-0.305161	-5.637262	3.901833
C	-0.868342	-4.572261	-3.502489
H	-1.128551	-5.139743	-4.416005
H	0.154712	-4.153131	-3.613841
H	-1.595605	-3.739531	-3.386756
C	0.369957	-2.306654	1.015430
S	-0.537898	-2.306501	-1.445922
C	-0.000000	-1.435185	-0.000000
H	0.731088	-1.978138	1.998088
H	0.074151	-9.614033	0.314143
C	0.000000	0.000000	0.000000
S	0.309893	0.850039	1.507541
C	0.847011	2.328006	0.718873
C	0.310046	0.849645	-1.067872
C	0.783331	2.156746	-0.686410
S	0.229416	0.619785	-2.805516
C	0.823328	2.267711	-3.054530
C	1.063278	2.934142	-1.862551
F	1.515925	4.191824	-1.819088
C	0.978337	2.688069	-4.456084
O	0.722535	1.961921	-5.406510
O	1.433229	3.959697	-4.569225
C	1.607467	4.423139	-5.916207
H	1.977475	5.460158	-5.833064
H	0.647388	4.396602	-6.470168
H	2.339490	3.791823	-6.459293
H	1.161798	3.197007	1.306486
$end

$rem
JOBTYPE		SP
EXCHANGE	HF
CORRELATION	pRIMP2
BASIS		cc-pvtz
METHOD		rimp2
AUX_BASIS	rimp2-cc-pvtz
SOLVENT_METHOD	PCM
PURECART	11111
SYMMETRY	false
MEM_TOTAL	110000
SCF_CONVERGENCE = 6
THRESH=10
GUI = 2
$end

$solvent
dielectric 4.90
$end
--------------------------------------------------------------

             Standard Nuclear Orientation (Angstroms)
    I     Atom           X                Y                Z
 ----------------------------------------------------------------
    1      C       0.0700090000    -8.5177020000     0.3131910000
    2      C      -0.3054940000    -7.6415750000    -0.6947460000
    3      S       0.6149240000    -7.6386340000     1.7623500000
    4      C      -0.1767680000    -6.2647850000    -0.3409730000
    5      H      -0.6695710000    -7.9660810000    -1.6777470000
    6      C       0.3096000000    -6.0727140000     1.0000690000
    7      C       0.5253720000    -4.7870490000     1.5200600000
    8      C      -0.4638250000    -5.1628010000    -1.1964660000
    9      C      -0.2438880000    -3.8748170000    -0.6776390000
   10      C       0.2403120000    -3.6839520000     0.6658150000
   11      O      -0.9416260000    -5.4997720000    -2.4266780000
   12      O       1.0064680000    -4.4590550000     2.7554600000
   13      C       0.7616660000    -5.3290630000     3.8539130000
   14      H       1.0161350000    -4.7556940000     4.7656070000
   15      H       1.4013680000    -6.2380950000     3.8221820000
   16      H      -0.3051610000    -5.6372620000     3.9018330000
   17      C      -0.8683420000    -4.5722610000    -3.5024890000
   18      H      -1.1285510000    -5.1397430000    -4.4160050000
   19      H       0.1547120000    -4.1531310000    -3.6138410000
   20      H      -1.5956050000    -3.7395310000    -3.3867560000
   21      C       0.3699570000    -2.3066540000     1.0154300000
   22      S      -0.5378980000    -2.3065010000    -1.4459220000
   23      C       0.0000000000    -1.4351850000     0.0000000000
   24      H       0.7310880000    -1.9781380000     1.9980880000
   25      H       0.0741510000    -9.6140330000     0.3141430000
   26      C       0.0000000000     0.0000000000     0.0000000000
   27      S       0.3098930000     0.8500390000     1.5075410000
   28      C       0.8470110000     2.3280060000     0.7188730000
   29      C       0.3100460000     0.8496450000    -1.0678720000
   30      C       0.7833310000     2.1567460000    -0.6864100000
   31      S       0.2294160000     0.6197850000    -2.8055160000
   32      C       0.8233280000     2.2677110000    -3.0545300000
   33      C       1.0632780000     2.9341420000    -1.8625510000
   34      F       1.5159250000     4.1918240000    -1.8190880000
   35      C       0.9783370000     2.6880690000    -4.4560840000
   36      O       0.7225350000     1.9619210000    -5.4065100000
   37      O       1.4332290000     3.9596970000    -4.5692250000
   38      C       1.6074670000     4.4231390000    -5.9162070000
   39      H       1.9774750000     5.4601580000    -5.8330640000
   40      H       0.6473880000     4.3966020000    -6.4701680000
   41      H       2.3394900000     3.7918230000    -6.4592930000
   42      H       1.1617980000     3.1970070000     1.3064860000
 ----------------------------------------------------------------

   10   -2754.3094704462      7.19e-07  Convergence criterion met
 Total energy in the final basis set =    -2754.3094704462
        RIMP2         total energy =     -2759.3639433651 a.u.

                    Orbital Energies (a.u.)
 --------------------------------------------------------------

 Alpha MOs
 -- Occupied --
-92.0152 -91.9999 -91.9904 -91.9857 -26.3438 -20.6149 -20.5922 -20.5907
-20.5614 -11.4096 -11.3832 -11.3197 -11.3159 -11.3136 -11.3038 -11.2992
-11.2981 -11.2975 -11.2889 -11.2865 -11.2862 -11.2859 -11.2856 -11.2838
-11.2784 -11.2616 -11.2572 -11.2524 -11.2495  -9.0139  -9.0000  -8.9911
 -8.9857  -6.6946  -6.6940  -6.6935  -6.6809  -6.6802  -6.6791  -6.6720
 -6.6714  -6.6704  -6.6667  -6.6660  -6.6652  -1.6608  -1.4674  -1.4163
 -1.4135  -1.3701  -1.2237  -1.1942  -1.1657  -1.1371  -1.0859  -1.0516
 -1.0422  -1.0246  -1.0016  -0.9881  -0.9645  -0.9583  -0.9497  -0.9412
 -0.8954  -0.8686  -0.8510  -0.8155  -0.7923  -0.7875  -0.7857  -0.7648
 -0.7556  -0.7335  -0.7257  -0.7107  -0.6989  -0.6859  -0.6832  -0.6819
 -0.6740  -0.6591  -0.6583  -0.6522  -0.6306  -0.6195  -0.6164  -0.6032
 -0.5987  -0.5869  -0.5778  -0.5687  -0.5679  -0.5627  -0.5555  -0.5531
 -0.5321  -0.5289  -0.5225  -0.5193  -0.5176  -0.5112  -0.5060  -0.4944
 -0.4874  -0.4792  -0.4770  -0.4743  -0.4698  -0.4648  -0.4593  -0.4257
 -0.3927  -0.3859  -0.3612  -0.3515  -0.3240  -0.2918  -0.2489

          Ground-State Mulliken Net Atomic Charges

     Atom                 Charge (a.u.)
  ----------------------------------------
      1 C                    -0.191833
      2 C                    -0.253041
      3 S                    -0.023742
      4 C                    -0.017829
      5 H                     0.196212
      6 C                    -0.026451
      7 C                     0.235868
      8 C                     0.244571
      9 C                    -0.039330
     10 C                    -0.018418
     11 O                    -0.333010
     12 O                    -0.341144
     13 C                    -0.085610
     14 H                     0.122016
     15 H                     0.091080
     16 H                     0.093669
     17 C                    -0.088549
     18 H                     0.125573
     19 H                     0.095772
     20 H                     0.090093
     21 C                    -0.264346
     22 S                    -0.030729
     23 C                     0.004910
     24 H                     0.189210
     25 H                     0.205945
     26 C                    -0.001026
     27 S                     0.085495
     28 C                    -0.170740
     29 C                     0.024561
     30 C                    -0.122038
     31 S                     0.011321
     32 C                    -0.163562
     33 C                     0.404424
     34 F                    -0.206034
     35 C                     0.445704
     36 O                    -0.461045
     37 O                    -0.300956
     38 C                    -0.058464
     39 H                     0.121408
     40 H                     0.095129
     41 H                     0.095139
     42 H                     0.219797
  ----------------------------------------
  Sum of atomic charges =     0.000000

                    Cartesian Multipole Moments
 -----------------------------------------------------------------
    Charge (ESU x 10^10)
                 0.0000
    Dipole Moment (Debye)
         X       0.7364      Y       1.4689      Z       2.7218
       Tot       3.1794
    Quadrupole Moments (Debye-Ang)
        XX    -199.9877     XY       6.7455     YY    -163.5101
        XZ       0.3240     YZ      -6.9606     ZZ    -181.2197

 Total job time:  368.24s(wall), 13750.36s(cpu)
        *  Thank you very much for using Q-Chem.  Have a nice day.  *
