 Q-Chem 5.4, Q-Chem, Inc., Pleasanton, CA (2021)
 Q-Chem 5.4.0 for Intel X86 EM64T Linux

User input:
--------------------------------------------------------------
$molecule
0 1
C	-0.147685	-8.517702	0.284919
C	0.212552	-7.641575	-0.728574
S	-0.661757	-7.638634	1.745304
C	0.083761	-6.264785	-0.374824
H	0.565513	-7.966081	-1.715621
C	-0.405665	-6.072714	0.965104
C	-0.574617	-4.787049	1.502136
C	0.413763	-5.162801	-1.214687
C	0.248748	-3.874817	-0.675870
C	-0.243888	-3.683952	0.664513
O	0.838511	-5.499772	-2.464209
O	-1.000176	-4.459055	2.757750
C	-1.893778	-5.329063	3.441858
H	-2.284868	-4.755694	4.303826
H	-1.383341	-6.238095	3.828743
H	-2.741817	-5.637262	2.792824
C	1.586168	-4.572261	-3.241222
H	1.974033	-5.139743	-4.108274
H	2.441448	-4.153131	-2.668916
H	0.954660	-3.739531	-3.620041
C	-0.369302	-2.306654	1.015668
S	0.517367	-2.306501	-1.453394
C	0.000000	-1.435185	0.000000
H	-0.724300	-1.978138	2.000559
H	-0.145124	-9.614033	0.288311
C	0.000000	0.000000	0.000000
S	0.693394	0.581209	1.507541
C	1.897536	1.592607	0.718873
C	0.693330	0.580791	-1.067872
C	1.756758	1.476132	-0.686410
S	0.508573	0.422041	-2.805516
C	1.846879	1.552232	-3.054530
C	2.387897	2.009402	-1.862551
F	3.408741	2.872264	-1.819088
C	2.191300	1.838768	-4.456084
O	1.606694	1.337806	-5.406510
O	3.221062	2.712584	-4.569225
C	3.603677	3.026817	-5.916207
H	4.442623	3.739898	-5.833064
H	2.758956	3.483875	-6.470168
H	3.921969	2.114070	-6.459293
H	2.604650	2.187790	1.306486
$end

$rem
JOBTYPE		SP
EXCHANGE	HF
CORRELATION	pRIMP2
BASIS		cc-pvtz
METHOD		rimp2
AUX_BASIS	rimp2-cc-pvtz
SOLVENT_METHOD	PCM
PURECART	11111
SYMMETRY	false
MEM_TOTAL	110000
SCF_CONVERGENCE = 6
THRESH=10
GUI = 2
$end

$solvent
dielectric 4.90
$end
--------------------------------------------------------------

             Standard Nuclear Orientation (Angstroms)
    I     Atom           X                Y                Z
 ----------------------------------------------------------------
    1      C      -0.1476850000    -8.5177020000     0.2849190000
    2      C       0.2125520000    -7.6415750000    -0.7285740000
    3      S      -0.6617570000    -7.6386340000     1.7453040000
    4      C       0.0837610000    -6.2647850000    -0.3748240000
    5      H       0.5655130000    -7.9660810000    -1.7156210000
    6      C      -0.4056650000    -6.0727140000     0.9651040000
    7      C      -0.5746170000    -4.7870490000     1.5021360000
    8      C       0.4137630000    -5.1628010000    -1.2146870000
    9      C       0.2487480000    -3.8748170000    -0.6758700000
   10      C      -0.2438880000    -3.6839520000     0.6645130000
   11      O       0.8385110000    -5.4997720000    -2.4642090000
   12      O      -1.0001760000    -4.4590550000     2.7577500000
   13      C      -1.8937780000    -5.3290630000     3.4418580000
   14      H      -2.2848680000    -4.7556940000     4.3038260000
   15      H      -1.3833410000    -6.2380950000     3.8287430000
   16      H      -2.7418170000    -5.6372620000     2.7928240000
   17      C       1.5861680000    -4.5722610000    -3.2412220000
   18      H       1.9740330000    -5.1397430000    -4.1082740000
   19      H       2.4414480000    -4.1531310000    -2.6689160000
   20      H       0.9546600000    -3.7395310000    -3.6200410000
   21      C      -0.3693020000    -2.3066540000     1.0156680000
   22      S       0.5173670000    -2.3065010000    -1.4533940000
   23      C       0.0000000000    -1.4351850000     0.0000000000
   24      H      -0.7243000000    -1.9781380000     2.0005590000
   25      H      -0.1451240000    -9.6140330000     0.2883110000
   26      C       0.0000000000     0.0000000000     0.0000000000
   27      S       0.6933940000     0.5812090000     1.5075410000
   28      C       1.8975360000     1.5926070000     0.7188730000
   29      C       0.6933300000     0.5807910000    -1.0678720000
   30      C       1.7567580000     1.4761320000    -0.6864100000
   31      S       0.5085730000     0.4220410000    -2.8055160000
   32      C       1.8468790000     1.5522320000    -3.0545300000
   33      C       2.3878970000     2.0094020000    -1.8625510000
   34      F       3.4087410000     2.8722640000    -1.8190880000
   35      C       2.1913000000     1.8387680000    -4.4560840000
   36      O       1.6066940000     1.3378060000    -5.4065100000
   37      O       3.2210620000     2.7125840000    -4.5692250000
   38      C       3.6036770000     3.0268170000    -5.9162070000
   39      H       4.4426230000     3.7398980000    -5.8330640000
   40      H       2.7589560000     3.4838750000    -6.4701680000
   41      H       3.9219690000     2.1140700000    -6.4592930000
   42      H       2.6046500000     2.1877900000     1.3064860000
 ----------------------------------------------------------------

   10   -2754.2641434190      7.10e-07  Convergence criterion met
 Total energy in the final basis set =    -2754.2641434190
        RIMP2         total energy =     -2759.3287587465 a.u.

                    Orbital Energies (a.u.)
 --------------------------------------------------------------

 Alpha MOs
 -- Occupied --
-92.0153 -92.0074 -91.9837 -91.9828 -26.3462 -20.6160 -20.5903 -20.5868
-20.5626 -11.4112 -11.3867 -11.3312 -11.3171 -11.3166 -11.3091 -11.2991
-11.2964 -11.2898 -11.2892 -11.2854 -11.2838 -11.2815 -11.2808 -11.2768
-11.2743 -11.2572 -11.2516 -11.2473 -11.2380  -9.0145  -9.0075  -8.9848
 -8.9828  -6.6951  -6.6943  -6.6940  -6.6883  -6.6876  -6.6866  -6.6656
 -6.6649  -6.6639  -6.6638  -6.6632  -6.6623  -1.6632  -1.4686  -1.4142
 -1.4097  -1.3714  -1.2325  -1.1896  -1.1637  -1.1398  -1.0859  -1.0482
 -1.0436  -1.0281  -0.9978  -0.9867  -0.9663  -0.9556  -0.9478  -0.9414
 -0.8922  -0.8721  -0.8450  -0.8184  -0.7945  -0.7848  -0.7808  -0.7632
 -0.7558  -0.7300  -0.7280  -0.7126  -0.6975  -0.6870  -0.6838  -0.6793
 -0.6752  -0.6604  -0.6564  -0.6498  -0.6298  -0.6169  -0.6149  -0.6068
 -0.6002  -0.5820  -0.5784  -0.5701  -0.5653  -0.5572  -0.5547  -0.5487
 -0.5330  -0.5291  -0.5233  -0.5165  -0.5153  -0.5104  -0.5050  -0.4948
 -0.4866  -0.4820  -0.4772  -0.4743  -0.4695  -0.4592  -0.4560  -0.4212
 -0.3920  -0.3804  -0.3572  -0.3518  -0.3256  -0.2893  -0.2448

          Ground-State Mulliken Net Atomic Charges

     Atom                 Charge (a.u.)
  ----------------------------------------
      1 C                    -0.200356
      2 C                    -0.252517
      3 S                    -0.028773
      4 C                    -0.027267
      5 H                     0.195117
      6 C                    -0.024247
      7 C                     0.224490
      8 C                     0.245964
      9 C                    -0.049749
     10 C                    -0.002207
     11 O                    -0.333259
     12 O                    -0.342252
     13 C                    -0.085456
     14 H                     0.120758
     15 H                     0.089921
     16 H                     0.092706
     17 C                    -0.088682
     18 H                     0.125291
     19 H                     0.093432
     20 H                     0.091114
     21 C                    -0.304968
     22 S                    -0.031184
     23 C                     0.034764
     24 H                     0.183875
     25 H                     0.204408
     26 C                    -0.101790
     27 S                     0.122274
     28 C                    -0.137488
     29 C                     0.024407
     30 C                    -0.097220
     31 S                     0.059105
     32 C                    -0.157313
     33 C                     0.400907
     34 F                    -0.204809
     35 C                     0.447942
     36 O                    -0.461606
     37 O                    -0.300922
     38 C                    -0.058194
     39 H                     0.121683
     40 H                     0.095424
     41 H                     0.095170
     42 H                     0.221511
  ----------------------------------------
  Sum of atomic charges =     0.000000

                    Cartesian Multipole Moments
 -----------------------------------------------------------------
    Charge (ESU x 10^10)
                 0.0000
    Dipole Moment (Debye)
         X       3.1434      Y       2.6729      Z       1.9534
       Tot       4.5652
    Quadrupole Moments (Debye-Ang)
        XX    -184.0203     XY       9.5797     YY    -180.1609
        XZ     -16.7605     YZ      -2.6164     ZZ    -187.4304

 Total job time:  312.06s(wall), 10220.96s(cpu)
        *  Thank you very much for using Q-Chem.  Have a nice day.  *
