 Q-Chem 5.4, Q-Chem, Inc., Pleasanton, CA (2021)
 Q-Chem 5.4.0 for Intel X86 EM64T Linux

User input:
--------------------------------------------------------------
$molecule
0 1
C	-0.217225	-8.517702	-0.236226
C	0.611939	-7.641575	0.448921
S	-1.413715	-7.638634	-1.218777
C	0.323572	-6.264785	0.206907
H	1.418739	-7.966081	1.118185
C	-0.768156	-6.072714	-0.711285
C	-1.215016	-4.787049	-1.053725
C	0.999917	-5.162801	0.804258
C	0.550033	-3.874817	0.464908
C	-0.541024	-3.683952	-0.456457
O	2.028811	-5.499772	1.630752
O	-2.249357	-4.459055	-1.883064
C	-2.586579	-5.329063	-2.956754
H	-3.262802	-4.755694	-3.619069
H	-3.124711	-6.238095	-2.609423
H	-1.686639	-5.637262	-3.531667
C	2.503251	-4.572261	2.599073
H	3.185356	-5.139743	3.260097
H	1.672937	-4.153131	3.207034
H	3.075213	-3.739531	2.135214
C	-0.828107	-2.306654	-0.694410
S	1.188794	-2.306501	0.983256
C	-0.000000	-1.435185	-0.000000
H	-1.632185	-1.978138	-1.364851
H	-0.221288	-9.614033	-0.234980
C	0.000000	0.000000	0.000000
S	0.382799	0.819795	1.507541
C	1.046687	2.245325	0.718873
C	0.382918	0.819389	-1.067872
C	0.968323	2.080267	-0.686410
S	0.282561	0.597432	-2.805516
C	1.017839	2.187324	-3.054530
C	1.314960	2.830306	-1.862551
F	1.875498	4.043751	-1.819088
C	1.208895	2.592573	-4.456084
O	0.890778	1.891482	-5.406510
O	1.772886	3.819715	-4.569225
C	1.986852	4.266207	-5.916207
H	2.445834	5.267032	-5.833064
H	1.028114	4.323448	-6.470168
H	2.661066	3.573494	-6.459293
H	1.436015	3.083584	1.306486
$end

$rem
JOBTYPE		SP
EXCHANGE	HF
CORRELATION	pRIMP2
BASIS		cc-pvtz
METHOD		rimp2
AUX_BASIS	rimp2-cc-pvtz
SOLVENT_METHOD	PCM
PURECART	11111
SYMMETRY	false
MEM_TOTAL	110000
SCF_CONVERGENCE = 6
THRESH=10
GUI = 2
$end

$solvent
dielectric 4.90
$end
--------------------------------------------------------------

             Standard Nuclear Orientation (Angstroms)
    I     Atom           X                Y                Z
 ----------------------------------------------------------------
    1      C      -0.2172250000    -8.5177020000    -0.2362260000
    2      C       0.6119390000    -7.6415750000     0.4489210000
    3      S      -1.4137150000    -7.6386340000    -1.2187770000
    4      C       0.3235720000    -6.2647850000     0.2069070000
    5      H       1.4187390000    -7.9660810000     1.1181850000
    6      C      -0.7681560000    -6.0727140000    -0.7112850000
    7      C      -1.2150160000    -4.7870490000    -1.0537250000
    8      C       0.9999170000    -5.1628010000     0.8042580000
    9      C       0.5500330000    -3.8748170000     0.4649080000
   10      C      -0.5410240000    -3.6839520000    -0.4564570000
   11      O       2.0288110000    -5.4997720000     1.6307520000
   12      O      -2.2493570000    -4.4590550000    -1.8830640000
   13      C      -2.5865790000    -5.3290630000    -2.9567540000
   14      H      -3.2628020000    -4.7556940000    -3.6190690000
   15      H      -3.1247110000    -6.2380950000    -2.6094230000
   16      H      -1.6866390000    -5.6372620000    -3.5316670000
   17      C       2.5032510000    -4.5722610000     2.5990730000
   18      H       3.1853560000    -5.1397430000     3.2600970000
   19      H       1.6729370000    -4.1531310000     3.2070340000
   20      H       3.0752130000    -3.7395310000     2.1352140000
   21      C      -0.8281070000    -2.3066540000    -0.6944100000
   22      S       1.1887940000    -2.3065010000     0.9832560000
   23      C       0.0000000000    -1.4351850000     0.0000000000
   24      H      -1.6321850000    -1.9781380000    -1.3648510000
   25      H      -0.2212880000    -9.6140330000    -0.2349800000
   26      C       0.0000000000     0.0000000000     0.0000000000
   27      S       0.3827990000     0.8197950000     1.5075410000
   28      C       1.0466870000     2.2453250000     0.7188730000
   29      C       0.3829180000     0.8193890000    -1.0678720000
   30      C       0.9683230000     2.0802670000    -0.6864100000
   31      S       0.2825610000     0.5974320000    -2.8055160000
   32      C       1.0178390000     2.1873240000    -3.0545300000
   33      C       1.3149600000     2.8303060000    -1.8625510000
   34      F       1.8754980000     4.0437510000    -1.8190880000
   35      C       1.2088950000     2.5925730000    -4.4560840000
   36      O       0.8907780000     1.8914820000    -5.4065100000
   37      O       1.7728860000     3.8197150000    -4.5692250000
   38      C       1.9868520000     4.2662070000    -5.9162070000
   39      H       2.4458340000     5.2670320000    -5.8330640000
   40      H       1.0281140000     4.3234480000    -6.4701680000
   41      H       2.6610660000     3.5734940000    -6.4592930000
   42      H       1.4360150000     3.0835840000     1.3064860000
 ----------------------------------------------------------------

   10   -2754.3049445030      7.06e-07  Convergence criterion met
 Total energy in the final basis set =    -2754.3049445030
        RIMP2         total energy =     -2759.3581124955 a.u.

                    Orbital Energies (a.u.)
 --------------------------------------------------------------

 Alpha MOs
 -- Occupied --
-92.0149 -91.9994 -91.9902 -91.9857 -26.3434 -20.6147 -20.5924 -20.5902
-20.5611 -11.4093 -11.3827 -11.3191 -11.3161 -11.3136 -11.3042 -11.2972
-11.2949 -11.2938 -11.2887 -11.2874 -11.2853 -11.2852 -11.2846 -11.2834
-11.2788 -11.2600 -11.2576 -11.2523 -11.2495  -9.0136  -8.9993  -8.9906
 -8.9856  -6.6944  -6.6938  -6.6933  -6.6803  -6.6796  -6.6785  -6.6715
 -6.6709  -6.6699  -6.6666  -6.6660  -6.6651  -1.6605  -1.4671  -1.4164
 -1.4131  -1.3698  -1.2229  -1.1936  -1.1652  -1.1366  -1.0844  -1.0512
 -1.0419  -1.0233  -1.0009  -0.9875  -0.9629  -0.9600  -0.9500  -0.9387
 -0.8956  -0.8680  -0.8504  -0.8089  -0.7964  -0.7869  -0.7863  -0.7640
 -0.7552  -0.7331  -0.7254  -0.7100  -0.7012  -0.6851  -0.6823  -0.6806
 -0.6737  -0.6589  -0.6578  -0.6520  -0.6299  -0.6193  -0.6169  -0.6043
 -0.5984  -0.5875  -0.5770  -0.5698  -0.5655  -0.5608  -0.5551  -0.5444
 -0.5349  -0.5307  -0.5219  -0.5163  -0.5153  -0.5106  -0.5043  -0.4942
 -0.4881  -0.4810  -0.4746  -0.4740  -0.4692  -0.4670  -0.4614  -0.4154
 -0.3961  -0.3848  -0.3569  -0.3507  -0.3203  -0.2939  -0.2541

          Ground-State Mulliken Net Atomic Charges

     Atom                 Charge (a.u.)
  ----------------------------------------
      1 C                    -0.190448
      2 C                    -0.254383
      3 S                    -0.023160
      4 C                    -0.016360
      5 H                     0.196013
      6 C                    -0.025835
      7 C                     0.237427
      8 C                     0.240873
      9 C                    -0.046600
     10 C                    -0.020067
     11 O                    -0.333087
     12 O                    -0.340367
     13 C                    -0.085840
     14 H                     0.122738
     15 H                     0.090706
     16 H                     0.093989
     17 C                    -0.087155
     18 H                     0.125145
     19 H                     0.094363
     20 H                     0.089636
     21 C                    -0.247360
     22 S                    -0.008642
     23 C                    -0.041404
     24 H                     0.199728
     25 H                     0.206043
     26 C                    -0.019177
     27 S                     0.090711
     28 C                    -0.171424
     29 C                     0.022081
     30 C                    -0.101332
     31 S                     0.015726
     32 C                    -0.151125
     33 C                     0.389031
     34 F                    -0.206191
     35 C                     0.446136
     36 O                    -0.460939
     37 O                    -0.300967
     38 C                    -0.058426
     39 H                     0.121312
     40 H                     0.095094
     41 H                     0.095117
     42 H                     0.218420
  ----------------------------------------
  Sum of atomic charges =     0.000000

                    Cartesian Multipole Moments
 -----------------------------------------------------------------
    Charge (ESU x 10^10)
                 0.0000
    Dipole Moment (Debye)
         X       1.5955      Y       1.2993      Z       2.8621
       Tot       3.5250
    Quadrupole Moments (Debye-Ang)
        XX    -190.3806     XY       5.2828     YY    -164.2418
        XZ       8.9658     YZ      -5.6547     ZZ    -189.9635

 Total job time:  309.23s(wall), 9877.73s(cpu)
        *  Thank you very much for using Q-Chem.  Have a nice day.  *
