 Q-Chem 5.4, Q-Chem, Inc., Pleasanton, CA (2021)
 Q-Chem 5.4.0 for Intel X86 EM64T Linux

User input:
--------------------------------------------------------------
$molecule
0 1
C	-0.270358	-8.517702	0.172904
C	0.548363	-7.641575	-0.524688
S	-1.445750	-7.638634	1.180599
C	0.259951	-6.264785	-0.282727
H	1.347559	-7.966081	-1.203014
C	-0.833868	-6.072714	0.632972
C	-1.248701	-4.787049	1.013580
C	0.965673	-5.162801	-0.845068
C	0.553357	-3.874817	-0.460946
C	-0.543470	-3.683952	0.453541
O	1.958276	-5.499772	-1.714812
O	-2.245053	-4.459055	1.888193
C	-3.360989	-5.329063	2.033848
H	-4.130667	-4.755694	2.584788
H	-3.112380	-6.238095	2.624118
H	-3.770895	-5.637262	1.047748
C	2.994272	-4.572261	-2.013896
H	3.763700	-5.139743	-2.570853
H	3.448815	-4.153131	-1.090625
H	2.636780	-3.739531	-2.657717
C	-0.827659	-2.306654	0.694943
S	1.174750	-2.306501	-0.999993
C	-0.000000	-1.435185	-0.000000
H	-1.627541	-1.978138	1.370385
H	-0.269836	-9.614033	0.177122
C	0.000000	0.000000	0.000000
S	0.452792	0.783312	1.507541
C	1.238397	2.145556	0.718873
C	0.452875	0.782898	-1.067872
C	1.145945	1.987956	-0.686410
S	0.333556	0.570531	-2.805516
C	1.204604	2.090290	-3.054530
C	1.556633	2.704929	-1.862551
F	2.220797	3.864903	-1.819088
C	1.430252	2.477345	-4.456084
O	1.052242	1.806648	-5.406510
O	2.099050	3.650663	-4.569225
C	2.351116	4.076808	-5.916207
H	2.895579	5.033821	-5.833064
H	1.401015	4.217390	-6.470168
H	2.962391	3.327969	-6.459293
H	1.699302	2.946693	1.306486
$end

$rem
JOBTYPE		SP
EXCHANGE	HF
CORRELATION	pRIMP2
BASIS		cc-pvtz
METHOD		rimp2
AUX_BASIS	rimp2-cc-pvtz
SOLVENT_METHOD	PCM
PURECART	11111
SYMMETRY	false
MEM_TOTAL	110000
SCF_CONVERGENCE = 6
THRESH=10
GUI = 2
$end

$solvent
dielectric 4.90
$end
--------------------------------------------------------------

             Standard Nuclear Orientation (Angstroms)
    I     Atom           X                Y                Z
 ----------------------------------------------------------------
    1      C      -0.2703580000    -8.5177020000     0.1729040000
    2      C       0.5483630000    -7.6415750000    -0.5246880000
    3      S      -1.4457500000    -7.6386340000     1.1805990000
    4      C       0.2599510000    -6.2647850000    -0.2827270000
    5      H       1.3475590000    -7.9660810000    -1.2030140000
    6      C      -0.8338680000    -6.0727140000     0.6329720000
    7      C      -1.2487010000    -4.7870490000     1.0135800000
    8      C       0.9656730000    -5.1628010000    -0.8450680000
    9      C       0.5533570000    -3.8748170000    -0.4609460000
   10      C      -0.5434700000    -3.6839520000     0.4535410000
   11      O       1.9582760000    -5.4997720000    -1.7148120000
   12      O      -2.2450530000    -4.4590550000     1.8881930000
   13      C      -3.3609890000    -5.3290630000     2.0338480000
   14      H      -4.1306670000    -4.7556940000     2.5847880000
   15      H      -3.1123800000    -6.2380950000     2.6241180000
   16      H      -3.7708950000    -5.6372620000     1.0477480000
   17      C       2.9942720000    -4.5722610000    -2.0138960000
   18      H       3.7637000000    -5.1397430000    -2.5708530000
   19      H       3.4488150000    -4.1531310000    -1.0906250000
   20      H       2.6367800000    -3.7395310000    -2.6577170000
   21      C      -0.8276590000    -2.3066540000     0.6949430000
   22      S       1.1747500000    -2.3065010000    -0.9999930000
   23      C       0.0000000000    -1.4351850000     0.0000000000
   24      H      -1.6275410000    -1.9781380000     1.3703850000
   25      H      -0.2698360000    -9.6140330000     0.1771220000
   26      C       0.0000000000     0.0000000000     0.0000000000
   27      S       0.4527920000     0.7833120000     1.5075410000
   28      C       1.2383970000     2.1455560000     0.7188730000
   29      C       0.4528750000     0.7828980000    -1.0678720000
   30      C       1.1459450000     1.9879560000    -0.6864100000
   31      S       0.3335560000     0.5705310000    -2.8055160000
   32      C       1.2046040000     2.0902900000    -3.0545300000
   33      C       1.5566330000     2.7049290000    -1.8625510000
   34      F       2.2207970000     3.8649030000    -1.8190880000
   35      C       1.4302520000     2.4773450000    -4.4560840000
   36      O       1.0522420000     1.8066480000    -5.4065100000
   37      O       2.0990500000     3.6506630000    -4.5692250000
   38      C       2.3511160000     4.0768080000    -5.9162070000
   39      H       2.8955790000     5.0338210000    -5.8330640000
   40      H       1.4010150000     4.2173900000    -6.4701680000
   41      H       2.9623910000     3.3279690000    -6.4592930000
   42      H       1.6993020000     2.9466930000     1.3064860000
 ----------------------------------------------------------------

   10   -2754.2996651363      7.61e-07  Convergence criterion met
 Total energy in the final basis set =    -2754.2996651363
        RIMP2         total energy =     -2759.3549258414 a.u.

                    Orbital Energies (a.u.)
 --------------------------------------------------------------

 Alpha MOs
 -- Occupied --
-92.0148 -91.9997 -91.9877 -91.9856 -26.3435 -20.6148 -20.5917 -20.5905
-20.5611 -11.4094 -11.3827 -11.3184 -11.3160 -11.3150 -11.3038 -11.2972
-11.2927 -11.2914 -11.2888 -11.2864 -11.2856 -11.2854 -11.2840 -11.2831
-11.2787 -11.2595 -11.2574 -11.2518 -11.2493  -9.0134  -8.9997  -8.9882
 -8.9855  -6.6941  -6.6934  -6.6929  -6.6807  -6.6799  -6.6788  -6.6692
 -6.6685  -6.6675  -6.6665  -6.6658  -6.6650  -1.6606  -1.4672  -1.4157
 -1.4133  -1.3699  -1.2235  -1.1930  -1.1646  -1.1365  -1.0845  -1.0509
 -1.0417  -1.0236  -1.0006  -0.9870  -0.9636  -0.9583  -0.9496  -0.9395
 -0.8949  -0.8681  -0.8491  -0.8133  -0.7921  -0.7864  -0.7851  -0.7645
 -0.7552  -0.7328  -0.7254  -0.7100  -0.6989  -0.6853  -0.6824  -0.6811
 -0.6739  -0.6586  -0.6577  -0.6519  -0.6296  -0.6192  -0.6165  -0.6055
 -0.5980  -0.5839  -0.5775  -0.5683  -0.5653  -0.5604  -0.5554  -0.5487
 -0.5322  -0.5303  -0.5231  -0.5158  -0.5149  -0.5079  -0.5072  -0.4961
 -0.4880  -0.4805  -0.4753  -0.4735  -0.4695  -0.4642  -0.4592  -0.4130
 -0.3983  -0.3836  -0.3551  -0.3507  -0.3235  -0.2902  -0.2540

          Ground-State Mulliken Net Atomic Charges

     Atom                 Charge (a.u.)
  ----------------------------------------
      1 C                    -0.190663
      2 C                    -0.254166
      3 S                    -0.024048
      4 C                    -0.017069
      5 H                     0.196160
      6 C                    -0.024403
      7 C                     0.233187
      8 C                     0.241060
      9 C                    -0.044278
     10 C                    -0.005493
     11 O                    -0.333247
     12 O                    -0.340340
     13 C                    -0.085756
     14 H                     0.122079
     15 H                     0.090948
     16 H                     0.093918
     17 C                    -0.088238
     18 H                     0.125289
     19 H                     0.094063
     20 H                     0.090873
     21 C                    -0.264786
     22 S                    -0.010173
     23 C                    -0.013802
     24 H                     0.195337
     25 H                     0.205999
     26 C                     0.004280
     27 S                     0.119747
     28 C                    -0.184073
     29 C                    -0.081788
     30 C                    -0.074948
     31 S                     0.034547
     32 C                    -0.154124
     33 C                     0.397194
     34 F                    -0.206819
     35 C                     0.445124
     36 O                    -0.461194
     37 O                    -0.300908
     38 C                    -0.058384
     39 H                     0.121391
     40 H                     0.095207
     41 H                     0.095003
     42 H                     0.217297
  ----------------------------------------
  Sum of atomic charges =     0.000000

                    Cartesian Multipole Moments
 -----------------------------------------------------------------
    Charge (ESU x 10^10)
                -0.0000
    Dipole Moment (Debye)
         X       1.5878      Y       1.2909      Z       2.5805
       Tot       3.2934
    Quadrupole Moments (Debye-Ang)
        XX    -178.0450     XY       7.8765     YY    -165.8530
        XZ     -13.6971     YZ      -5.0948     ZZ    -200.9255

 Total job time:  282.26s(wall), 9024.43s(cpu)
        *  Thank you very much for using Q-Chem.  Have a nice day.  *
