 Q-Chem 5.4, Q-Chem, Inc., Pleasanton, CA (2021)
 Q-Chem 5.4.0 for Intel X86 EM64T Linux

User input:
--------------------------------------------------------------
$molecule
0 1
C	0.254945	-8.517702	0.194917
C	-0.680596	-7.641575	-0.335839
S	1.603876	-7.638634	0.954772
C	-0.354585	-6.264785	-0.147576
H	-1.591356	-7.966081	-0.854836
C	0.879999	-6.072714	0.567090
C	1.379534	-4.787049	0.826731
C	-1.124384	-5.162801	-0.618405
C	-0.622407	-3.874817	-0.362333
C	0.612067	-3.683952	0.355575
O	-2.281166	-5.499772	-1.253677
O	2.542174	-4.459055	1.463859
C	3.060718	-5.329063	2.462679
H	3.841678	-4.755694	2.997507
H	3.530361	-6.238095	2.027179
H	2.274283	-5.637262	3.185132
C	-2.916545	-4.572261	-2.124902
H	-3.703073	-5.139743	-2.657438
H	-2.204417	-4.153131	-2.867810
H	-3.399269	-3.739531	-1.568770
C	0.936109	-2.306654	0.540061
S	-1.341474	-2.306501	-0.761887
C	0.000000	-1.435185	0.000000
H	1.844392	-1.978138	1.060690
H	0.258730	-9.614033	0.192984
C	0.000000	0.000000	0.000000
S	0.234628	0.873813	1.507541
C	0.640889	2.392969	0.718873
C	0.234815	0.873434	-1.067872
C	0.592377	2.216811	-0.686410
S	0.174526	0.637422	-2.805516
C	0.622551	2.330840	-3.054530
C	0.803505	3.015647	-1.862551
F	1.144815	4.307994	-1.819088
C	0.740334	2.763108	-4.456084
O	0.548793	2.017428	-5.406510
O	1.082665	4.069544	-4.569225
C	1.215848	4.546407	-5.916207
H	1.494066	5.611729	-5.833064
H	0.261736	4.436296	-6.470168
H	2.000108	3.981294	-6.459293
H	0.878739	3.286099	1.306486
$end

$rem
JOBTYPE		SP
EXCHANGE	HF
CORRELATION	pRIMP2
BASIS		cc-pvtz
METHOD		rimp2
AUX_BASIS	rimp2-cc-pvtz
SOLVENT_METHOD	PCM
PURECART	11111
SYMMETRY	false
MEM_TOTAL	110000
SCF_CONVERGENCE = 6
THRESH=10
GUI = 2
$end

$solvent
dielectric 4.90
$end
--------------------------------------------------------------

             Standard Nuclear Orientation (Angstroms)
    I     Atom           X                Y                Z
 ----------------------------------------------------------------
    1      C       0.2549450000    -8.5177020000     0.1949170000
    2      C      -0.6805960000    -7.6415750000    -0.3358390000
    3      S       1.6038760000    -7.6386340000     0.9547720000
    4      C      -0.3545850000    -6.2647850000    -0.1475760000
    5      H      -1.5913560000    -7.9660810000    -0.8548360000
    6      C       0.8799990000    -6.0727140000     0.5670900000
    7      C       1.3795340000    -4.7870490000     0.8267310000
    8      C      -1.1243840000    -5.1628010000    -0.6184050000
    9      C      -0.6224070000    -3.8748170000    -0.3623330000
   10      C       0.6120670000    -3.6839520000     0.3555750000
   11      O      -2.2811660000    -5.4997720000    -1.2536770000
   12      O       2.5421740000    -4.4590550000     1.4638590000
   13      C       3.0607180000    -5.3290630000     2.4626790000
   14      H       3.8416780000    -4.7556940000     2.9975070000
   15      H       3.5303610000    -6.2380950000     2.0271790000
   16      H       2.2742830000    -5.6372620000     3.1851320000
   17      C      -2.9165450000    -4.5722610000    -2.1249020000
   18      H      -3.7030730000    -5.1397430000    -2.6574380000
   19      H      -2.2044170000    -4.1531310000    -2.8678100000
   20      H      -3.3992690000    -3.7395310000    -1.5687700000
   21      C       0.9361090000    -2.3066540000     0.5400610000
   22      S      -1.3414740000    -2.3065010000    -0.7618870000
   23      C       0.0000000000    -1.4351850000     0.0000000000
   24      H       1.8443920000    -1.9781380000     1.0606900000
   25      H       0.2587300000    -9.6140330000     0.1929840000
   26      C       0.0000000000     0.0000000000     0.0000000000
   27      S       0.2346280000     0.8738130000     1.5075410000
   28      C       0.6408890000     2.3929690000     0.7188730000
   29      C       0.2348150000     0.8734340000    -1.0678720000
   30      C       0.5923770000     2.2168110000    -0.6864100000
   31      S       0.1745260000     0.6374220000    -2.8055160000
   32      C       0.6225510000     2.3308400000    -3.0545300000
   33      C       0.8035050000     3.0156470000    -1.8625510000
   34      F       1.1448150000     4.3079940000    -1.8190880000
   35      C       0.7403340000     2.7631080000    -4.4560840000
   36      O       0.5487930000     2.0174280000    -5.4065100000
   37      O       1.0826650000     4.0695440000    -4.5692250000
   38      C       1.2158480000     4.5464070000    -5.9162070000
   39      H       1.4940660000     5.6117290000    -5.8330640000
   40      H       0.2617360000     4.4362960000    -6.4701680000
   41      H       2.0001080000     3.9812940000    -6.4592930000
   42      H       0.8787390000     3.2860990000     1.3064860000
 ----------------------------------------------------------------

   10   -2754.3116335657      6.94e-07  Convergence criterion met
 Total energy in the final basis set =    -2754.3116335657
        RIMP2         total energy =     -2759.3627655737 a.u.

                    Orbital Energies (a.u.)
 --------------------------------------------------------------

 Alpha MOs
 -- Occupied --
-92.0154 -91.9976 -91.9891 -91.9863 -26.3428 -20.6143 -20.5922 -20.5915
-20.5607 -11.4088 -11.3818 -11.3192 -11.3178 -11.3097 -11.3013 -11.2966
-11.2966 -11.2939 -11.2885 -11.2866 -11.2863 -11.2858 -11.2842 -11.2840
-11.2797 -11.2609 -11.2588 -11.2569 -11.2499  -9.0137  -8.9976  -8.9895
 -8.9862  -6.6944  -6.6938  -6.6933  -6.6786  -6.6779  -6.6768  -6.6705
 -6.6698  -6.6688  -6.6672  -6.6666  -6.6657  -1.6599  -1.4668  -1.4163
 -1.4143  -1.3694  -1.2209  -1.1943  -1.1654  -1.1354  -1.0847  -1.0518
 -1.0410  -1.0224  -1.0015  -0.9878  -0.9627  -0.9593  -0.9500  -0.9393
 -0.8955  -0.8671  -0.8509  -0.8119  -0.7917  -0.7885  -0.7866  -0.7649
 -0.7550  -0.7337  -0.7248  -0.7095  -0.6996  -0.6848  -0.6832  -0.6805
 -0.6735  -0.6591  -0.6572  -0.6526  -0.6304  -0.6200  -0.6168  -0.6043
 -0.5974  -0.5864  -0.5763  -0.5696  -0.5670  -0.5624  -0.5546  -0.5528
 -0.5308  -0.5289  -0.5228  -0.5165  -0.5152  -0.5094  -0.5047  -0.4942
 -0.4893  -0.4788  -0.4759  -0.4730  -0.4705  -0.4654  -0.4607  -0.4111
 -0.3968  -0.3863  -0.3589  -0.3476  -0.3193  -0.2946  -0.2566

          Ground-State Mulliken Net Atomic Charges

     Atom                 Charge (a.u.)
  ----------------------------------------
      1 C                    -0.188793
      2 C                    -0.253809
      3 S                    -0.022299
      4 C                    -0.015616
      5 H                     0.196404
      6 C                    -0.027950
      7 C                     0.240188
      8 C                     0.243583
      9 C                    -0.047934
     10 C                    -0.025874
     11 O                    -0.333492
     12 O                    -0.340238
     13 C                    -0.085720
     14 H                     0.122415
     15 H                     0.091240
     16 H                     0.093864
     17 C                    -0.086928
     18 H                     0.124692
     19 H                     0.095609
     20 H                     0.089757
     21 C                    -0.224809
     22 S                    -0.000806
     23 C                    -0.032499
     24 H                     0.200094
     25 H                     0.206359
     26 C                    -0.038986
     27 S                     0.104581
     28 C                    -0.184817
     29 C                     0.012517
     30 C                    -0.106840
     31 S                     0.009361
     32 C                    -0.151336
     33 C                     0.391700
     34 F                    -0.206754
     35 C                     0.445037
     36 O                    -0.461148
     37 O                    -0.300764
     38 C                    -0.058467
     39 H                     0.121211
     40 H                     0.094966
     41 H                     0.095039
     42 H                     0.217263
  ----------------------------------------
  Sum of atomic charges =     0.000000

                    Cartesian Multipole Moments
 -----------------------------------------------------------------
    Charge (ESU x 10^10)
                -0.0000
    Dipole Moment (Debye)
         X       0.5098      Y       0.9778      Z       3.1712
       Tot       3.3574
    Quadrupole Moments (Debye-Ang)
        XX    -187.7974     XY       4.4945     YY    -161.0509
        XZ      10.7820     YZ      -8.3916     ZZ    -194.6755

 Total job time:  295.26s(wall), 9759.06s(cpu)
        *  Thank you very much for using Q-Chem.  Have a nice day.  *
