 Q-Chem 5.4, Q-Chem, Inc., Pleasanton, CA (2021)
 Q-Chem 5.4.0 for Intel X86 EM64T Linux

User input:
--------------------------------------------------------------
$molecule
0 1
C	-0.254945	-8.517702	-0.194917
C	0.680596	-7.641575	0.335839
S	-1.603876	-7.638634	-0.954772
C	0.354585	-6.264785	0.147576
H	1.591356	-7.966081	0.854836
C	-0.879999	-6.072714	-0.567090
C	-1.379534	-4.787049	-0.826731
C	1.124384	-5.162801	0.618405
C	0.622407	-3.874817	0.362333
C	-0.612067	-3.683952	-0.355575
O	2.281166	-5.499772	1.253677
O	-2.542174	-4.459055	-1.463859
C	-3.060718	-5.329063	-2.462679
H	-3.841678	-4.755694	-2.997507
H	-3.530361	-6.238095	-2.027179
H	-2.274283	-5.637262	-3.185132
C	2.916545	-4.572261	2.124902
H	3.703073	-5.139743	2.657438
H	2.204417	-4.153131	2.867810
H	3.399269	-3.739531	1.568770
C	-0.936109	-2.306654	-0.540061
S	1.341474	-2.306501	0.761887
C	-0.000000	-1.435185	-0.000000
H	-1.844392	-1.978138	-1.060690
H	-0.258730	-9.614033	-0.192984
C	0.000000	0.000000	0.000000
S	0.452792	0.783312	1.507541
C	1.238397	2.145556	0.718873
C	0.452875	0.782898	-1.067872
C	1.145945	1.987956	-0.686410
S	0.333556	0.570531	-2.805516
C	1.204604	2.090290	-3.054530
C	1.556633	2.704929	-1.862551
F	2.220797	3.864903	-1.819088
C	1.430252	2.477345	-4.456084
O	1.052242	1.806648	-5.406510
O	2.099050	3.650663	-4.569225
C	2.351116	4.076808	-5.916207
H	2.895579	5.033821	-5.833064
H	1.401015	4.217390	-6.470168
H	2.962391	3.327969	-6.459293
H	1.699302	2.946693	1.306486
$end

$rem
JOBTYPE		SP
EXCHANGE	HF
CORRELATION	pRIMP2
BASIS		cc-pvtz
METHOD		rimp2
AUX_BASIS	rimp2-cc-pvtz
SOLVENT_METHOD	PCM
PURECART	11111
SYMMETRY	false
MEM_TOTAL	110000
SCF_CONVERGENCE = 6
THRESH=10
GUI = 2
$end

$solvent
dielectric 4.90
$end
--------------------------------------------------------------

             Standard Nuclear Orientation (Angstroms)
    I     Atom           X                Y                Z
 ----------------------------------------------------------------
    1      C      -0.2549450000    -8.5177020000    -0.1949170000
    2      C       0.6805960000    -7.6415750000     0.3358390000
    3      S      -1.6038760000    -7.6386340000    -0.9547720000
    4      C       0.3545850000    -6.2647850000     0.1475760000
    5      H       1.5913560000    -7.9660810000     0.8548360000
    6      C      -0.8799990000    -6.0727140000    -0.5670900000
    7      C      -1.3795340000    -4.7870490000    -0.8267310000
    8      C       1.1243840000    -5.1628010000     0.6184050000
    9      C       0.6224070000    -3.8748170000     0.3623330000
   10      C      -0.6120670000    -3.6839520000    -0.3555750000
   11      O       2.2811660000    -5.4997720000     1.2536770000
   12      O      -2.5421740000    -4.4590550000    -1.4638590000
   13      C      -3.0607180000    -5.3290630000    -2.4626790000
   14      H      -3.8416780000    -4.7556940000    -2.9975070000
   15      H      -3.5303610000    -6.2380950000    -2.0271790000
   16      H      -2.2742830000    -5.6372620000    -3.1851320000
   17      C       2.9165450000    -4.5722610000     2.1249020000
   18      H       3.7030730000    -5.1397430000     2.6574380000
   19      H       2.2044170000    -4.1531310000     2.8678100000
   20      H       3.3992690000    -3.7395310000     1.5687700000
   21      C      -0.9361090000    -2.3066540000    -0.5400610000
   22      S       1.3414740000    -2.3065010000     0.7618870000
   23      C       0.0000000000    -1.4351850000     0.0000000000
   24      H      -1.8443920000    -1.9781380000    -1.0606900000
   25      H      -0.2587300000    -9.6140330000    -0.1929840000
   26      C       0.0000000000     0.0000000000     0.0000000000
   27      S       0.4527920000     0.7833120000     1.5075410000
   28      C       1.2383970000     2.1455560000     0.7188730000
   29      C       0.4528750000     0.7828980000    -1.0678720000
   30      C       1.1459450000     1.9879560000    -0.6864100000
   31      S       0.3335560000     0.5705310000    -2.8055160000
   32      C       1.2046040000     2.0902900000    -3.0545300000
   33      C       1.5566330000     2.7049290000    -1.8625510000
   34      F       2.2207970000     3.8649030000    -1.8190880000
   35      C       1.4302520000     2.4773450000    -4.4560840000
   36      O       1.0522420000     1.8066480000    -5.4065100000
   37      O       2.0990500000     3.6506630000    -4.5692250000
   38      C       2.3511160000     4.0768080000    -5.9162070000
   39      H       2.8955790000     5.0338210000    -5.8330640000
   40      H       1.4010150000     4.2173900000    -6.4701680000
   41      H       2.9623910000     3.3279690000    -6.4592930000
   42      H       1.6993020000     2.9466930000     1.3064860000
 ----------------------------------------------------------------

   10   -2754.2995125920      7.31e-07  Convergence criterion met
 Total energy in the final basis set =    -2754.2995125920
        RIMP2         total energy =     -2759.3532898172 a.u.

                    Orbital Energies (a.u.)
 --------------------------------------------------------------

 Alpha MOs
 -- Occupied --
-92.0143 -91.9999 -91.9889 -91.9855 -26.3435 -20.6146 -20.5921 -20.5901
-20.5610 -11.4092 -11.3829 -11.3186 -11.3159 -11.3155 -11.3057 -11.2970
-11.2925 -11.2909 -11.2887 -11.2871 -11.2852 -11.2850 -11.2842 -11.2831
-11.2787 -11.2592 -11.2575 -11.2517 -11.2493  -9.0130  -8.9998  -8.9893
 -8.9854  -6.6938  -6.6931  -6.6927  -6.6808  -6.6801  -6.6790  -6.6702
 -6.6695  -6.6686  -6.6664  -6.6658  -6.6649  -1.6606  -1.4671  -1.4161
 -1.4130  -1.3698  -1.2233  -1.1931  -1.1648  -1.1367  -1.0839  -1.0508
 -1.0420  -1.0232  -1.0005  -0.9871  -0.9625  -0.9601  -0.9499  -0.9385
 -0.8952  -0.8681  -0.8494  -0.8093  -0.7953  -0.7869  -0.7859  -0.7639
 -0.7552  -0.7328  -0.7255  -0.7100  -0.7008  -0.6850  -0.6821  -0.6805
 -0.6737  -0.6586  -0.6577  -0.6518  -0.6296  -0.6192  -0.6168  -0.6049
 -0.5985  -0.5877  -0.5765  -0.5694  -0.5653  -0.5612  -0.5548  -0.5426
 -0.5345  -0.5307  -0.5217  -0.5156  -0.5147  -0.5103  -0.5039  -0.4937
 -0.4884  -0.4811  -0.4742  -0.4739  -0.4696  -0.4659  -0.4614  -0.4115
 -0.3960  -0.3849  -0.3558  -0.3511  -0.3169  -0.2963  -0.2555

          Ground-State Mulliken Net Atomic Charges

     Atom                 Charge (a.u.)
  ----------------------------------------
      1 C                    -0.190420
      2 C                    -0.254506
      3 S                    -0.023269
      4 C                    -0.016106
      5 H                     0.195929
      6 C                    -0.026073
      7 C                     0.237285
      8 C                     0.240623
      9 C                    -0.045367
     10 C                    -0.020785
     11 O                    -0.333278
     12 O                    -0.340347
     13 C                    -0.085770
     14 H                     0.122491
     15 H                     0.090669
     16 H                     0.094025
     17 C                    -0.086783
     18 H                     0.124969
     19 H                     0.094223
     20 H                     0.089657
     21 C                    -0.237737
     22 S                    -0.005692
     23 C                    -0.053247
     24 H                     0.198405
     25 H                     0.205985
     26 C                    -0.031723
     27 S                     0.097795
     28 C                    -0.168604
     29 C                     0.018748
     30 C                    -0.096141
     31 S                     0.018837
     32 C                    -0.151139
     33 C                     0.387981
     34 F                    -0.206041
     35 C                     0.446407
     36 O                    -0.461188
     37 O                    -0.301033
     38 C                    -0.058381
     39 H                     0.121306
     40 H                     0.095053
     41 H                     0.095119
     42 H                     0.218119
  ----------------------------------------
  Sum of atomic charges =     0.000000

                    Cartesian Multipole Moments
 -----------------------------------------------------------------
    Charge (ESU x 10^10)
                -0.0000
    Dipole Moment (Debye)
         X       1.8591      Y       1.3086      Z       2.7877
       Tot       3.5972
    Quadrupole Moments (Debye-Ang)
        XX    -184.8887     XY       6.4200     YY    -165.6774
        XZ       8.9288     YZ      -5.1031     ZZ    -194.2486

 Total job time:  281.13s(wall), 8695.08s(cpu)
        *  Thank you very much for using Q-Chem.  Have a nice day.  *
