 Q-Chem 5.4, Q-Chem, Inc., Pleasanton, CA (2021)
 Q-Chem 5.4.0 for Intel X86 EM64T Linux

User input:
--------------------------------------------------------------
$molecule
0 1
C	-0.254945	-8.517702	-0.194917
C	0.680596	-7.641575	0.335839
S	-1.603876	-7.638634	-0.954772
C	0.354585	-6.264785	0.147576
H	1.591356	-7.966081	0.854836
C	-0.879999	-6.072714	-0.567090
C	-1.379534	-4.787049	-0.826731
C	1.124384	-5.162801	0.618405
C	0.622407	-3.874817	0.362333
C	-0.612067	-3.683952	-0.355575
O	2.281166	-5.499772	1.253677
O	-2.542174	-4.459055	-1.463859
C	-3.060718	-5.329063	-2.462679
H	-3.841678	-4.755694	-2.997507
H	-3.530361	-6.238095	-2.027179
H	-2.274283	-5.637262	-3.185132
C	2.916545	-4.572261	2.124902
H	3.703073	-5.139743	2.657438
H	2.204417	-4.153131	2.867810
H	3.399269	-3.739531	1.568770
C	-0.936109	-2.306654	-0.540061
S	1.341474	-2.306501	0.761887
C	-0.000000	-1.435185	-0.000000
H	-1.844392	-1.978138	-1.060690
H	-0.258730	-9.614033	-0.192984
C	0.000000	0.000000	0.000000
S	0.079327	0.901280	1.507541
C	0.215617	2.467903	0.718873
C	0.079577	0.900940	-1.067872
C	0.198433	2.285998	-0.686410
S	0.061187	0.658044	-2.805516
C	0.208347	2.403534	-3.054530
C	0.267636	3.109360	-1.862551
F	0.379347	4.441341	-1.819088
C	0.249278	2.849688	-4.456084
O	0.190132	2.082076	-5.406510
O	0.359548	4.195721	-4.569225
C	0.407901	4.688467	-5.916207
H	0.496901	5.785916	-5.833064
H	-0.512596	4.414348	-6.470168
H	1.278377	4.268124	-6.459293
H	0.294764	3.388767	1.306486
$end

$rem
JOBTYPE		SP
EXCHANGE	HF
CORRELATION	pRIMP2
BASIS		cc-pvtz
METHOD		rimp2
AUX_BASIS	rimp2-cc-pvtz
SOLVENT_METHOD	PCM
PURECART	11111
SYMMETRY	false
MEM_TOTAL	110000
SCF_CONVERGENCE = 6
THRESH=10
GUI = 2
$end

$solvent
dielectric 4.90
$end
--------------------------------------------------------------

             Standard Nuclear Orientation (Angstroms)
    I     Atom           X                Y                Z
 ----------------------------------------------------------------
    1      C      -0.2549450000    -8.5177020000    -0.1949170000
    2      C       0.6805960000    -7.6415750000     0.3358390000
    3      S      -1.6038760000    -7.6386340000    -0.9547720000
    4      C       0.3545850000    -6.2647850000     0.1475760000
    5      H       1.5913560000    -7.9660810000     0.8548360000
    6      C      -0.8799990000    -6.0727140000    -0.5670900000
    7      C      -1.3795340000    -4.7870490000    -0.8267310000
    8      C       1.1243840000    -5.1628010000     0.6184050000
    9      C       0.6224070000    -3.8748170000     0.3623330000
   10      C      -0.6120670000    -3.6839520000    -0.3555750000
   11      O       2.2811660000    -5.4997720000     1.2536770000
   12      O      -2.5421740000    -4.4590550000    -1.4638590000
   13      C      -3.0607180000    -5.3290630000    -2.4626790000
   14      H      -3.8416780000    -4.7556940000    -2.9975070000
   15      H      -3.5303610000    -6.2380950000    -2.0271790000
   16      H      -2.2742830000    -5.6372620000    -3.1851320000
   17      C       2.9165450000    -4.5722610000     2.1249020000
   18      H       3.7030730000    -5.1397430000     2.6574380000
   19      H       2.2044170000    -4.1531310000     2.8678100000
   20      H       3.3992690000    -3.7395310000     1.5687700000
   21      C      -0.9361090000    -2.3066540000    -0.5400610000
   22      S       1.3414740000    -2.3065010000     0.7618870000
   23      C       0.0000000000    -1.4351850000     0.0000000000
   24      H      -1.8443920000    -1.9781380000    -1.0606900000
   25      H      -0.2587300000    -9.6140330000    -0.1929840000
   26      C       0.0000000000     0.0000000000     0.0000000000
   27      S       0.0793270000     0.9012800000     1.5075410000
   28      C       0.2156170000     2.4679030000     0.7188730000
   29      C       0.0795770000     0.9009400000    -1.0678720000
   30      C       0.1984330000     2.2859980000    -0.6864100000
   31      S       0.0611870000     0.6580440000    -2.8055160000
   32      C       0.2083470000     2.4035340000    -3.0545300000
   33      C       0.2676360000     3.1093600000    -1.8625510000
   34      F       0.3793470000     4.4413410000    -1.8190880000
   35      C       0.2492780000     2.8496880000    -4.4560840000
   36      O       0.1901320000     2.0820760000    -5.4065100000
   37      O       0.3595480000     4.1957210000    -4.5692250000
   38      C       0.4079010000     4.6884670000    -5.9162070000
   39      H       0.4969010000     5.7859160000    -5.8330640000
   40      H      -0.5125960000     4.4143480000    -6.4701680000
   41      H       1.2783770000     4.2681240000    -6.4592930000
   42      H       0.2947640000     3.3887670000     1.3064860000
 ----------------------------------------------------------------

   10   -2754.3150799263      6.96e-07  Convergence criterion met
 Total energy in the final basis set =    -2754.3150799263
        RIMP2         total energy =     -2759.3648463144 a.u.

                    Orbital Energies (a.u.)
 --------------------------------------------------------------

 Alpha MOs
 -- Occupied --
-92.0147 -91.9966 -91.9902 -91.9865 -26.3425 -20.6143 -20.5927 -20.5915
-20.5607 -11.4088 -11.3814 -11.3195 -11.3183 -11.3087 -11.3002 -11.2981
-11.2965 -11.2933 -11.2885 -11.2874 -11.2865 -11.2859 -11.2842 -11.2838
-11.2801 -11.2609 -11.2594 -11.2576 -11.2501  -9.0132  -8.9967  -8.9906
 -8.9864  -6.6939  -6.6934  -6.6928  -6.6777  -6.6769  -6.6758  -6.6716
 -6.6709  -6.6699  -6.6674  -6.6668  -6.6659  -1.6596  -1.4668  -1.4168
 -1.4143  -1.3694  -1.2202  -1.1947  -1.1656  -1.1352  -1.0847  -1.0522
 -1.0407  -1.0220  -1.0019  -0.9879  -0.9621  -0.9603  -0.9505  -0.9386
 -0.8961  -0.8668  -0.8517  -0.8080  -0.7962  -0.7877  -0.7868  -0.7647
 -0.7549  -0.7341  -0.7245  -0.7089  -0.7015  -0.6846  -0.6833  -0.6800
 -0.6734  -0.6593  -0.6573  -0.6527  -0.6306  -0.6201  -0.6174  -0.6045
 -0.5971  -0.5855  -0.5775  -0.5696  -0.5665  -0.5595  -0.5551  -0.5494
 -0.5342  -0.5305  -0.5231  -0.5162  -0.5160  -0.5095  -0.5042  -0.4945
 -0.4889  -0.4790  -0.4753  -0.4732  -0.4699  -0.4676  -0.4617  -0.4113
 -0.3962  -0.3868  -0.3575  -0.3498  -0.3190  -0.2945  -0.2568

          Ground-State Mulliken Net Atomic Charges

     Atom                 Charge (a.u.)
  ----------------------------------------
      1 C                    -0.187767
      2 C                    -0.254419
      3 S                    -0.021447
      4 C                    -0.013903
      5 H                     0.196362
      6 C                    -0.026687
      7 C                     0.243809
      8 C                     0.239044
      9 C                    -0.045534
     10 C                    -0.027530
     11 O                    -0.333099
     12 O                    -0.339996
     13 C                    -0.085898
     14 H                     0.122976
     15 H                     0.090954
     16 H                     0.094454
     17 C                    -0.086953
     18 H                     0.124959
     19 H                     0.094355
     20 H                     0.090123
     21 C                    -0.227317
     22 S                    -0.005245
     23 C                    -0.050175
     24 H                     0.200398
     25 H                     0.206510
     26 C                    -0.015615
     27 S                     0.101620
     28 C                    -0.185874
     29 C                     0.019288
     30 C                    -0.108878
     31 S                     0.006484
     32 C                    -0.152106
     33 C                     0.390889
     34 F                    -0.207174
     35 C                     0.444654
     36 O                    -0.461094
     37 O                    -0.300593
     38 C                    -0.058653
     39 H                     0.121244
     40 H                     0.095007
     41 H                     0.095018
     42 H                     0.217809
  ----------------------------------------
  Sum of atomic charges =     0.000000

                    Cartesian Multipole Moments
 -----------------------------------------------------------------
    Charge (ESU x 10^10)
                 0.0000
    Dipole Moment (Debye)
         X       0.3922      Y       0.8297      Z       2.8502
       Tot       2.9943
    Quadrupole Moments (Debye-Ang)
        XX    -188.6629     XY       1.0571     YY    -159.1877
        XZ      12.0956     YZ      -5.8347     ZZ    -194.8263

 Total job time:  294.36s(wall), 9404.19s(cpu)
        *  Thank you very much for using Q-Chem.  Have a nice day.  *
