 Q-Chem 5.4, Q-Chem, Inc., Pleasanton, CA (2021)
 Q-Chem 5.4.0 for Intel X86 EM64T Linux

User input:
--------------------------------------------------------------
$molecule
0 1
C	0.306235	-8.517702	0.095966
C	-0.754415	-7.641575	-0.082807
S	1.833702	-7.638634	0.348635
C	-0.383675	-6.264785	-0.017401
H	-1.787757	-7.966081	-0.259008
C	1.020885	-6.072714	0.231913
C	1.579097	-4.787049	0.305044
C	-1.268082	-5.162801	-0.196549
C	-0.708796	-3.874817	-0.127606
C	0.696769	-3.683952	0.124792
O	-2.572378	-5.499772	-0.397867
O	2.889532	-4.459055	0.506103
C	3.718420	-5.329063	1.267335
H	4.635204	-4.755694	1.502804
H	4.010790	-6.238095	0.697471
H	3.226506	-5.637262	2.215194
C	-3.467415	-4.572261	-0.999238
H	-4.388648	-5.139743	-1.230649
H	-3.052323	-4.153131	-1.940905
H	-3.730819	-3.739531	-0.311543
C	1.064366	-2.306654	0.187323
S	-1.521154	-2.306501	-0.257128
C	-0.000000	-1.435185	-0.000000
H	2.095939	-1.978138	0.365903
H	0.309131	-9.614033	0.092855
C	0.000000	0.000000	0.000000
S	0.452792	0.783312	1.507541
C	1.238397	2.145556	0.718873
C	0.452875	0.782898	-1.067872
C	1.145945	1.987956	-0.686410
S	0.333556	0.570531	-2.805516
C	1.204604	2.090290	-3.054530
C	1.556633	2.704929	-1.862551
F	2.220797	3.864903	-1.819088
C	1.430252	2.477345	-4.456084
O	1.052242	1.806648	-5.406510
O	2.099050	3.650663	-4.569225
C	2.351116	4.076808	-5.916207
H	2.895579	5.033821	-5.833064
H	1.401015	4.217390	-6.470168
H	2.962391	3.327969	-6.459293
H	1.699302	2.946693	1.306486
$end

$rem
JOBTYPE		SP
EXCHANGE	HF
CORRELATION	pRIMP2
BASIS		cc-pvtz
METHOD		rimp2
AUX_BASIS	rimp2-cc-pvtz
SOLVENT_METHOD	PCM
PURECART	11111
SYMMETRY	false
MEM_TOTAL	110000
SCF_CONVERGENCE = 6
THRESH=10
GUI = 2
$end

$solvent
dielectric 4.90
$end
--------------------------------------------------------------

             Standard Nuclear Orientation (Angstroms)
    I     Atom           X                Y                Z
 ----------------------------------------------------------------
    1      C       0.3062350000    -8.5177020000     0.0959660000
    2      C      -0.7544150000    -7.6415750000    -0.0828070000
    3      S       1.8337020000    -7.6386340000     0.3486350000
    4      C      -0.3836750000    -6.2647850000    -0.0174010000
    5      H      -1.7877570000    -7.9660810000    -0.2590080000
    6      C       1.0208850000    -6.0727140000     0.2319130000
    7      C       1.5790970000    -4.7870490000     0.3050440000
    8      C      -1.2680820000    -5.1628010000    -0.1965490000
    9      C      -0.7087960000    -3.8748170000    -0.1276060000
   10      C       0.6967690000    -3.6839520000     0.1247920000
   11      O      -2.5723780000    -5.4997720000    -0.3978670000
   12      O       2.8895320000    -4.4590550000     0.5061030000
   13      C       3.7184200000    -5.3290630000     1.2673350000
   14      H       4.6352040000    -4.7556940000     1.5028040000
   15      H       4.0107900000    -6.2380950000     0.6974710000
   16      H       3.2265060000    -5.6372620000     2.2151940000
   17      C      -3.4674150000    -4.5722610000    -0.9992380000
   18      H      -4.3886480000    -5.1397430000    -1.2306490000
   19      H      -3.0523230000    -4.1531310000    -1.9409050000
   20      H      -3.7308190000    -3.7395310000    -0.3115430000
   21      C       1.0643660000    -2.3066540000     0.1873230000
   22      S      -1.5211540000    -2.3065010000    -0.2571280000
   23      C       0.0000000000    -1.4351850000     0.0000000000
   24      H       2.0959390000    -1.9781380000     0.3659030000
   25      H       0.3091310000    -9.6140330000     0.0928550000
   26      C       0.0000000000     0.0000000000     0.0000000000
   27      S       0.4527920000     0.7833120000     1.5075410000
   28      C       1.2383970000     2.1455560000     0.7188730000
   29      C       0.4528750000     0.7828980000    -1.0678720000
   30      C       1.1459450000     1.9879560000    -0.6864100000
   31      S       0.3335560000     0.5705310000    -2.8055160000
   32      C       1.2046040000     2.0902900000    -3.0545300000
   33      C       1.5566330000     2.7049290000    -1.8625510000
   34      F       2.2207970000     3.8649030000    -1.8190880000
   35      C       1.4302520000     2.4773450000    -4.4560840000
   36      O       1.0522420000     1.8066480000    -5.4065100000
   37      O       2.0990500000     3.6506630000    -4.5692250000
   38      C       2.3511160000     4.0768080000    -5.9162070000
   39      H       2.8955790000     5.0338210000    -5.8330640000
   40      H       1.4010150000     4.2173900000    -6.4701680000
   41      H       2.9623910000     3.3279690000    -6.4592930000
   42      H       1.6993020000     2.9466930000     1.3064860000
 ----------------------------------------------------------------

   10   -2754.2982661740      7.98e-07  Convergence criterion met
 Total energy in the final basis set =    -2754.2982661740
        RIMP2         total energy =     -2759.3517686162 a.u.

                    Orbital Energies (a.u.)
 --------------------------------------------------------------

 Alpha MOs
 -- Occupied --
-92.0143 -91.9995 -91.9860 -91.9856 -26.3434 -20.6144 -20.5916 -20.5908
-20.5606 -11.4089 -11.3827 -11.3181 -11.3167 -11.3150 -11.3054 -11.2964
-11.2916 -11.2886 -11.2886 -11.2863 -11.2859 -11.2842 -11.2840 -11.2832
-11.2790 -11.2596 -11.2577 -11.2547 -11.2494  -9.0128  -8.9994  -8.9865
 -8.9856  -6.6935  -6.6929  -6.6924  -6.6804  -6.6797  -6.6786  -6.6674
 -6.6667  -6.6666  -6.6659  -6.6658  -6.6651  -1.6605  -1.4668  -1.4157
 -1.4136  -1.3695  -1.2223  -1.1931  -1.1644  -1.1359  -1.0837  -1.0508
 -1.0417  -1.0226  -1.0001  -0.9870  -0.9619  -0.9595  -0.9496  -0.9391
 -0.8944  -0.8675  -0.8486  -0.8110  -0.7927  -0.7885  -0.7855  -0.7641
 -0.7550  -0.7328  -0.7253  -0.7098  -0.7000  -0.6848  -0.6824  -0.6804
 -0.6735  -0.6586  -0.6571  -0.6521  -0.6294  -0.6195  -0.6163  -0.6053
 -0.5980  -0.5867  -0.5748  -0.5697  -0.5664  -0.5625  -0.5533  -0.5525
 -0.5306  -0.5265  -0.5222  -0.5156  -0.5140  -0.5091  -0.5036  -0.4935
 -0.4890  -0.4803  -0.4745  -0.4731  -0.4694  -0.4643  -0.4601  -0.4045
 -0.3968  -0.3862  -0.3595  -0.3452  -0.3130  -0.3011  -0.2572

          Ground-State Mulliken Net Atomic Charges

     Atom                 Charge (a.u.)
  ----------------------------------------
      1 C                    -0.189933
      2 C                    -0.254059
      3 S                    -0.023711
      4 C                    -0.016455
      5 H                     0.196179
      6 C                    -0.028923
      7 C                     0.239949
      8 C                     0.243916
      9 C                    -0.049943
     10 C                    -0.017185
     11 O                    -0.333675
     12 O                    -0.340478
     13 C                    -0.085634
     14 H                     0.122179
     15 H                     0.091161
     16 H                     0.093582
     17 C                    -0.086043
     18 H                     0.124397
     19 H                     0.094860
     20 H                     0.089455
     21 C                    -0.211614
     22 S                    -0.002173
     23 C                    -0.040729
     24 H                     0.199044
     25 H                     0.206100
     26 C                    -0.067617
     27 S                     0.111047
     28 C                    -0.176003
     29 C                    -0.000249
     30 C                    -0.090589
     31 S                     0.018597
     32 C                    -0.154240
     33 C                     0.390437
     34 F                    -0.206137
     35 C                     0.446715
     36 O                    -0.461709
     37 O                    -0.301078
     38 C                    -0.058400
     39 H                     0.121222
     40 H                     0.095019
     41 H                     0.095067
     42 H                     0.217651
  ----------------------------------------
  Sum of atomic charges =     0.000000

                    Cartesian Multipole Moments
 -----------------------------------------------------------------
    Charge (ESU x 10^10)
                 0.0000
    Dipole Moment (Debye)
         X       1.4525      Y       1.2229      Z       3.1725
       Tot       3.6973
    Quadrupole Moments (Debye-Ang)
        XX    -177.1010     XY       7.0718     YY    -165.5982
        XZ       5.5964     YZ      -7.6601     ZZ    -202.3277

 Total job time:  294.46s(wall), 9049.23s(cpu)
        *  Thank you very much for using Q-Chem.  Have a nice day.  *
