 Q-Chem 5.4, Q-Chem, Inc., Pleasanton, CA (2021)
 Q-Chem 5.4.0 for Intel X86 EM64T Linux

User input:
--------------------------------------------------------------
$molecule
0 1
C	-0.217225	-8.517702	-0.236226
C	0.611939	-7.641575	0.448921
S	-1.413715	-7.638634	-1.218777
C	0.323572	-6.264785	0.206907
H	1.418739	-7.966081	1.118185
C	-0.768156	-6.072714	-0.711285
C	-1.215016	-4.787049	-1.053725
C	0.999917	-5.162801	0.804258
C	0.550033	-3.874817	0.464908
C	-0.541024	-3.683952	-0.456457
O	2.028811	-5.499772	1.630752
O	-2.249357	-4.459055	-1.883064
C	-2.586579	-5.329063	-2.956754
H	-3.262802	-4.755694	-3.619069
H	-3.124711	-6.238095	-2.609423
H	-1.686639	-5.637262	-3.531667
C	2.503251	-4.572261	2.599073
H	3.185356	-5.139743	3.260097
H	1.672937	-4.153131	3.207034
H	3.075213	-3.739531	2.135214
C	-0.828107	-2.306654	-0.694410
S	1.188794	-2.306501	0.983256
C	-0.000000	-1.435185	-0.000000
H	-1.632185	-1.978138	-1.364851
H	-0.221288	-9.614033	-0.234980
C	0.000000	0.000000	0.000000
S	0.157577	0.890937	1.507541
C	0.429889	2.439720	0.718873
C	0.157797	0.890576	-1.067872
C	0.396915	2.260004	-0.686410
S	0.118307	0.650207	-2.805516
C	0.417036	2.376229	-3.054530
C	0.537616	3.074202	-1.862551
F	0.764992	4.391378	-1.819088
C	0.496696	2.817118	-4.456084
O	0.370874	2.057582	-5.406510
O	0.723861	4.148418	-4.569225
C	0.814976	4.635075	-5.916207
H	0.999286	5.720591	-5.833064
H	-0.125909	4.442226	-6.470168
H	1.645504	4.140465	-6.459293
H	0.588993	3.350182	1.306486
$end

$rem
JOBTYPE		SP
EXCHANGE	HF
CORRELATION	pRIMP2
BASIS		cc-pvtz
METHOD		rimp2
AUX_BASIS	rimp2-cc-pvtz
SOLVENT_METHOD	PCM
PURECART	11111
SYMMETRY	false
MEM_TOTAL	110000
SCF_CONVERGENCE = 6
THRESH=10
GUI = 2
$end

$solvent
dielectric 4.90
$end
--------------------------------------------------------------

             Standard Nuclear Orientation (Angstroms)
    I     Atom           X                Y                Z
 ----------------------------------------------------------------
    1      C      -0.2172250000    -8.5177020000    -0.2362260000
    2      C       0.6119390000    -7.6415750000     0.4489210000
    3      S      -1.4137150000    -7.6386340000    -1.2187770000
    4      C       0.3235720000    -6.2647850000     0.2069070000
    5      H       1.4187390000    -7.9660810000     1.1181850000
    6      C      -0.7681560000    -6.0727140000    -0.7112850000
    7      C      -1.2150160000    -4.7870490000    -1.0537250000
    8      C       0.9999170000    -5.1628010000     0.8042580000
    9      C       0.5500330000    -3.8748170000     0.4649080000
   10      C      -0.5410240000    -3.6839520000    -0.4564570000
   11      O       2.0288110000    -5.4997720000     1.6307520000
   12      O      -2.2493570000    -4.4590550000    -1.8830640000
   13      C      -2.5865790000    -5.3290630000    -2.9567540000
   14      H      -3.2628020000    -4.7556940000    -3.6190690000
   15      H      -3.1247110000    -6.2380950000    -2.6094230000
   16      H      -1.6866390000    -5.6372620000    -3.5316670000
   17      C       2.5032510000    -4.5722610000     2.5990730000
   18      H       3.1853560000    -5.1397430000     3.2600970000
   19      H       1.6729370000    -4.1531310000     3.2070340000
   20      H       3.0752130000    -3.7395310000     2.1352140000
   21      C      -0.8281070000    -2.3066540000    -0.6944100000
   22      S       1.1887940000    -2.3065010000     0.9832560000
   23      C       0.0000000000    -1.4351850000     0.0000000000
   24      H      -1.6321850000    -1.9781380000    -1.3648510000
   25      H      -0.2212880000    -9.6140330000    -0.2349800000
   26      C       0.0000000000     0.0000000000     0.0000000000
   27      S       0.1575770000     0.8909370000     1.5075410000
   28      C       0.4298890000     2.4397200000     0.7188730000
   29      C       0.1577970000     0.8905760000    -1.0678720000
   30      C       0.3969150000     2.2600040000    -0.6864100000
   31      S       0.1183070000     0.6502070000    -2.8055160000
   32      C       0.4170360000     2.3762290000    -3.0545300000
   33      C       0.5376160000     3.0742020000    -1.8625510000
   34      F       0.7649920000     4.3913780000    -1.8190880000
   35      C       0.4966960000     2.8171180000    -4.4560840000
   36      O       0.3708740000     2.0575820000    -5.4065100000
   37      O       0.7238610000     4.1484180000    -4.5692250000
   38      C       0.8149760000     4.6350750000    -5.9162070000
   39      H       0.9992860000     5.7205910000    -5.8330640000
   40      H      -0.1259090000     4.4422260000    -6.4701680000
   41      H       1.6455040000     4.1404650000    -6.4592930000
   42      H       0.5889930000     3.3501820000     1.3064860000
 ----------------------------------------------------------------

   10   -2754.3144695575      7.04e-07  Convergence criterion met
 Total energy in the final basis set =    -2754.3144695575
        RIMP2         total energy =     -2759.3651441666 a.u.

                    Orbital Energies (a.u.)
 --------------------------------------------------------------

 Alpha MOs
 -- Occupied --
-92.0151 -91.9974 -91.9909 -91.9864 -26.3428 -20.6145 -20.5928 -20.5912
-20.5609 -11.4090 -11.3817 -11.3197 -11.3178 -11.3094 -11.3007 -11.2986
-11.2969 -11.2944 -11.2886 -11.2876 -11.2864 -11.2857 -11.2845 -11.2841
-11.2798 -11.2611 -11.2590 -11.2563 -11.2500  -9.0136  -8.9973  -8.9913
 -8.9863  -6.6944  -6.6938  -6.6933  -6.6784  -6.6776  -6.6765  -6.6722
 -6.6716  -6.6706  -6.6673  -6.6667  -6.6658  -1.6599  -1.4669  -1.4168
 -1.4140  -1.3696  -1.2209  -1.1947  -1.1658  -1.1358  -1.0848  -1.0521
 -1.0411  -1.0225  -1.0019  -0.9880  -0.9627  -0.9602  -0.9505  -0.9387
 -0.8962  -0.8672  -0.8518  -0.8080  -0.7970  -0.7872  -0.7870  -0.7646
 -0.7550  -0.7340  -0.7248  -0.7092  -0.7017  -0.6848  -0.6832  -0.6803
 -0.6735  -0.6593  -0.6576  -0.6525  -0.6305  -0.6200  -0.6173  -0.6041
 -0.5975  -0.5860  -0.5777  -0.5699  -0.5662  -0.5598  -0.5552  -0.5483
 -0.5350  -0.5306  -0.5227  -0.5167  -0.5161  -0.5101  -0.5046  -0.4947
 -0.4885  -0.4796  -0.4754  -0.4736  -0.4695  -0.4681  -0.4618  -0.4151
 -0.3962  -0.3860  -0.3579  -0.3502  -0.3213  -0.2930  -0.2550

          Ground-State Mulliken Net Atomic Charges

     Atom                 Charge (a.u.)
  ----------------------------------------
      1 C                    -0.188500
      2 C                    -0.254391
      3 S                    -0.021881
      4 C                    -0.014591
      5 H                     0.196312
      6 C                    -0.026459
      7 C                     0.242510
      8 C                     0.239639
      9 C                    -0.044735
     10 C                    -0.024742
     11 O                    -0.332990
     12 O                    -0.340022
     13 C                    -0.085949
     14 H                     0.123091
     15 H                     0.090921
     16 H                     0.094289
     17 C                    -0.087247
     18 H                     0.125144
     19 H                     0.094461
     20 H                     0.089953
     21 C                    -0.238697
     22 S                    -0.010284
     23 C                    -0.044234
     24 H                     0.201100
     25 H                     0.206421
     26 C                    -0.006389
     27 S                     0.094198
     28 C                    -0.183415
     29 C                     0.021566
     30 C                    -0.109223
     31 S                     0.007670
     32 C                    -0.151366
     33 C                     0.390367
     34 F                    -0.206913
     35 C                     0.444989
     36 O                    -0.460910
     37 O                    -0.300648
     38 C                    -0.058589
     39 H                     0.121276
     40 H                     0.095026
     41 H                     0.095067
     42 H                     0.218176
  ----------------------------------------
  Sum of atomic charges =     0.000000

                    Cartesian Multipole Moments
 -----------------------------------------------------------------
    Charge (ESU x 10^10)
                 0.0000
    Dipole Moment (Debye)
         X       0.7084      Y       0.9439      Z       2.8846
       Tot       3.1167
    Quadrupole Moments (Debye-Ang)
        XX    -192.7141     XY       2.0098     YY    -159.9680
        XZ      10.9166     YZ      -6.0132     ZZ    -190.2904

 Total job time:  311.30s(wall), 9490.97s(cpu)
        *  Thank you very much for using Q-Chem.  Have a nice day.  *
