 Q-Chem 5.4, Q-Chem, Inc., Pleasanton, CA (2021)
 Q-Chem 5.4.0 for Intel X86 EM64T Linux

User input:
--------------------------------------------------------------
$molecule
0 1
C	-0.194917	-8.517702	0.254945
C	0.335839	-7.641575	-0.680596
S	-0.954772	-7.638634	1.603876
C	0.147576	-6.264785	-0.354585
H	0.854836	-7.966081	-1.591356
C	-0.567090	-6.072714	0.879999
C	-0.826731	-4.787049	1.379534
C	0.618405	-5.162801	-1.124384
C	0.362333	-3.874817	-0.622407
C	-0.355575	-3.683952	0.612067
O	1.253677	-5.499772	-2.281166
O	-1.463859	-4.459055	2.542174
C	-2.462679	-5.329063	3.060718
H	-2.997507	-4.755694	3.841678
H	-2.027179	-6.238095	3.530361
H	-3.185132	-5.637262	2.274283
C	2.124902	-4.572261	-2.916545
H	2.657438	-5.139743	-3.703073
H	2.867810	-4.153131	-2.204417
H	1.568770	-3.739531	-3.399269
C	-0.540061	-2.306654	0.936109
S	0.761887	-2.306501	-1.341474
C	-0.000000	-1.435185	-0.000000
H	-1.060690	-1.978138	1.844392
H	-0.192984	-9.614033	0.258730
C	0.000000	0.000000	0.000000
S	0.079327	0.901280	1.507541
C	0.215617	2.467903	0.718873
C	0.079577	0.900940	-1.067872
C	0.198433	2.285998	-0.686410
S	0.061187	0.658044	-2.805516
C	0.208347	2.403534	-3.054530
C	0.267636	3.109360	-1.862551
F	0.379347	4.441341	-1.819088
C	0.249278	2.849688	-4.456084
O	0.190132	2.082076	-5.406510
O	0.359548	4.195721	-4.569225
C	0.407901	4.688467	-5.916207
H	0.496901	5.785916	-5.833064
H	-0.512596	4.414348	-6.470168
H	1.278377	4.268124	-6.459293
H	0.294764	3.388767	1.306486
$end

$rem
JOBTYPE		SP
EXCHANGE	HF
CORRELATION	pRIMP2
BASIS		cc-pvtz
METHOD		rimp2
AUX_BASIS	rimp2-cc-pvtz
SOLVENT_METHOD	PCM
PURECART	11111
SYMMETRY	false
MEM_TOTAL	110000
SCF_CONVERGENCE = 6
THRESH=10
GUI = 2
$end

$solvent
dielectric 4.90
$end
--------------------------------------------------------------

             Standard Nuclear Orientation (Angstroms)
    I     Atom           X                Y                Z
 ----------------------------------------------------------------
    1      C      -0.1949170000    -8.5177020000     0.2549450000
    2      C       0.3358390000    -7.6415750000    -0.6805960000
    3      S      -0.9547720000    -7.6386340000     1.6038760000
    4      C       0.1475760000    -6.2647850000    -0.3545850000
    5      H       0.8548360000    -7.9660810000    -1.5913560000
    6      C      -0.5670900000    -6.0727140000     0.8799990000
    7      C      -0.8267310000    -4.7870490000     1.3795340000
    8      C       0.6184050000    -5.1628010000    -1.1243840000
    9      C       0.3623330000    -3.8748170000    -0.6224070000
   10      C      -0.3555750000    -3.6839520000     0.6120670000
   11      O       1.2536770000    -5.4997720000    -2.2811660000
   12      O      -1.4638590000    -4.4590550000     2.5421740000
   13      C      -2.4626790000    -5.3290630000     3.0607180000
   14      H      -2.9975070000    -4.7556940000     3.8416780000
   15      H      -2.0271790000    -6.2380950000     3.5303610000
   16      H      -3.1851320000    -5.6372620000     2.2742830000
   17      C       2.1249020000    -4.5722610000    -2.9165450000
   18      H       2.6574380000    -5.1397430000    -3.7030730000
   19      H       2.8678100000    -4.1531310000    -2.2044170000
   20      H       1.5687700000    -3.7395310000    -3.3992690000
   21      C      -0.5400610000    -2.3066540000     0.9361090000
   22      S       0.7618870000    -2.3065010000    -1.3414740000
   23      C       0.0000000000    -1.4351850000     0.0000000000
   24      H      -1.0606900000    -1.9781380000     1.8443920000
   25      H      -0.1929840000    -9.6140330000     0.2587300000
   26      C       0.0000000000     0.0000000000     0.0000000000
   27      S       0.0793270000     0.9012800000     1.5075410000
   28      C       0.2156170000     2.4679030000     0.7188730000
   29      C       0.0795770000     0.9009400000    -1.0678720000
   30      C       0.1984330000     2.2859980000    -0.6864100000
   31      S       0.0611870000     0.6580440000    -2.8055160000
   32      C       0.2083470000     2.4035340000    -3.0545300000
   33      C       0.2676360000     3.1093600000    -1.8625510000
   34      F       0.3793470000     4.4413410000    -1.8190880000
   35      C       0.2492780000     2.8496880000    -4.4560840000
   36      O       0.1901320000     2.0820760000    -5.4065100000
   37      O       0.3595480000     4.1957210000    -4.5692250000
   38      C       0.4079010000     4.6884670000    -5.9162070000
   39      H       0.4969010000     5.7859160000    -5.8330640000
   40      H      -0.5125960000     4.4143480000    -6.4701680000
   41      H       1.2783770000     4.2681240000    -6.4592930000
   42      H       0.2947640000     3.3887670000     1.3064860000
 ----------------------------------------------------------------

   10   -2754.3162164662      7.53e-07  Convergence criterion met
 Total energy in the final basis set =    -2754.3162164662
        RIMP2         total energy =     -2759.3685664258 a.u.

                    Orbital Energies (a.u.)
 --------------------------------------------------------------

 Alpha MOs
 -- Occupied --
-92.0153 -91.9978 -91.9909 -91.9864 -26.3430 -20.6146 -20.5925 -20.5916
-20.5610 -11.4092 -11.3821 -11.3199 -11.3176 -11.3093 -11.3013 -11.2997
-11.2970 -11.2967 -11.2887 -11.2867 -11.2865 -11.2863 -11.2851 -11.2844
-11.2795 -11.2620 -11.2587 -11.2560 -11.2500  -9.0138  -8.9979  -8.9914
 -8.9864  -6.6946  -6.6940  -6.6934  -6.6789  -6.6782  -6.6770  -6.6724
 -6.6717  -6.6707  -6.6673  -6.6667  -6.6659  -1.6601  -1.4671  -1.4165
 -1.4143  -1.3697  -1.2217  -1.1949  -1.1660  -1.1360  -1.0858  -1.0523
 -1.0412  -1.0235  -1.0023  -0.9882  -0.9640  -0.9587  -0.9501  -0.9404
 -0.8961  -0.8676  -0.8520  -0.8141  -0.7919  -0.7876  -0.7865  -0.7653
 -0.7552  -0.7342  -0.7250  -0.7099  -0.6991  -0.6855  -0.6836  -0.6814
 -0.6737  -0.6592  -0.6580  -0.6527  -0.6308  -0.6201  -0.6169  -0.6036
 -0.5973  -0.5848  -0.5783  -0.5699  -0.5675  -0.5589  -0.5578  -0.5535
 -0.5322  -0.5295  -0.5248  -0.5181  -0.5167  -0.5103  -0.5067  -0.4958
 -0.4880  -0.4783  -0.4768  -0.4740  -0.4698  -0.4650  -0.4597  -0.4230
 -0.3953  -0.3856  -0.3595  -0.3507  -0.3248  -0.2901  -0.2515

          Ground-State Mulliken Net Atomic Charges

     Atom                 Charge (a.u.)
  ----------------------------------------
      1 C                    -0.189355
      2 C                    -0.253475
      3 S                    -0.022363
      4 C                    -0.017199
      5 H                     0.196487
      6 C                    -0.027562
      7 C                     0.242625
      8 C                     0.242459
      9 C                    -0.040696
     10 C                    -0.016647
     11 O                    -0.332898
     12 O                    -0.340384
     13 C                    -0.085718
     14 H                     0.122331
     15 H                     0.091163
     16 H                     0.094233
     17 C                    -0.088845
     18 H                     0.125770
     19 H                     0.094922
     20 H                     0.091254
     21 C                    -0.265650
     22 S                    -0.026564
     23 C                     0.016898
     24 H                     0.191765
     25 H                     0.206358
     26 C                     0.026685
     27 S                     0.099528
     28 C                    -0.190058
     29 C                    -0.030110
     30 C                    -0.110274
     31 S                     0.006913
     32 C                    -0.160435
     33 C                     0.403556
     34 F                    -0.207231
     35 C                     0.443129
     36 O                    -0.460962
     37 O                    -0.300603
     38 C                    -0.058712
     39 H                     0.121376
     40 H                     0.095207
     41 H                     0.094994
     42 H                     0.218087
  ----------------------------------------
  Sum of atomic charges =     0.000000

                    Cartesian Multipole Moments
 -----------------------------------------------------------------
    Charge (ESU x 10^10)
                 0.0000
    Dipole Moment (Debye)
         X       0.1243      Y       1.0200      Z       2.7282
       Tot       2.9153
    Quadrupole Moments (Debye-Ang)
        XX    -190.1463     XY       2.5524     YY    -159.8101
        XZ     -13.2931     YZ      -6.6189     ZZ    -193.0407

 Total job time:  274.81s(wall), 9192.96s(cpu)
        *  Thank you very much for using Q-Chem.  Have a nice day.  *
