 Q-Chem 5.4, Q-Chem, Inc., Pleasanton, CA (2021)
 Q-Chem 5.4.0 for Intel X86 EM64T Linux

User input:
--------------------------------------------------------------
$molecule
0 1
C	-0.095966	-8.517702	0.306235
C	0.082807	-7.641575	-0.754415
S	-0.348635	-7.638634	1.833702
C	0.017401	-6.264785	-0.383675
H	0.259008	-7.966081	-1.787757
C	-0.231913	-6.072714	1.020885
C	-0.305044	-4.787049	1.579097
C	0.196549	-5.162801	-1.268082
C	0.127606	-3.874817	-0.708796
C	-0.124792	-3.683952	0.696769
O	0.397867	-5.499772	-2.572378
O	-0.506103	-4.459055	2.889532
C	-1.267335	-5.329063	3.718420
H	-1.502804	-4.755694	4.635204
H	-0.697471	-6.238095	4.010790
H	-2.215194	-5.637262	3.226506
C	0.999238	-4.572261	-3.467415
H	1.230649	-5.139743	-4.388648
H	1.940905	-4.153131	-3.052323
H	0.311543	-3.739531	-3.730819
C	-0.187323	-2.306654	1.064366
S	0.257128	-2.306501	-1.521154
C	0.000000	-1.435185	0.000000
H	-0.365903	-1.978138	2.095939
H	-0.092855	-9.614033	0.309131
C	0.000000	0.000000	0.000000
S	0.783786	0.451972	1.507541
C	2.145261	1.238908	0.718873
C	0.783650	0.451572	-1.067872
C	1.986396	1.148648	-0.686410
S	0.574133	0.327317	-2.805516
C	2.088363	1.207943	-3.054530
C	2.700548	1.564221	-1.862551
F	3.855718	2.236706	-1.819088
C	2.477307	1.430318	-4.456084
O	1.814592	1.038482	-5.406510
O	3.643162	2.112042	-4.569225
C	4.074530	2.355061	-5.916207
H	5.024556	2.911627	-5.833064
H	3.322010	2.951860	-6.470168
H	4.229490	1.400910	-6.459293
H	2.944986	1.702260	1.306486
$end

$rem
JOBTYPE		SP
EXCHANGE	HF
CORRELATION	pRIMP2
BASIS		cc-pvtz
METHOD		rimp2
AUX_BASIS	rimp2-cc-pvtz
SOLVENT_METHOD	PCM
PURECART	11111
SYMMETRY	false
MEM_TOTAL	110000
SCF_CONVERGENCE = 6
THRESH=10
GUI = 2
$end

$solvent
dielectric 4.90
$end
--------------------------------------------------------------

             Standard Nuclear Orientation (Angstroms)
    I     Atom           X                Y                Z
 ----------------------------------------------------------------
    1      C      -0.0959660000    -8.5177020000     0.3062350000
    2      C       0.0828070000    -7.6415750000    -0.7544150000
    3      S      -0.3486350000    -7.6386340000     1.8337020000
    4      C       0.0174010000    -6.2647850000    -0.3836750000
    5      H       0.2590080000    -7.9660810000    -1.7877570000
    6      C      -0.2319130000    -6.0727140000     1.0208850000
    7      C      -0.3050440000    -4.7870490000     1.5790970000
    8      C       0.1965490000    -5.1628010000    -1.2680820000
    9      C       0.1276060000    -3.8748170000    -0.7087960000
   10      C      -0.1247920000    -3.6839520000     0.6967690000
   11      O       0.3978670000    -5.4997720000    -2.5723780000
   12      O      -0.5061030000    -4.4590550000     2.8895320000
   13      C      -1.2673350000    -5.3290630000     3.7184200000
   14      H      -1.5028040000    -4.7556940000     4.6352040000
   15      H      -0.6974710000    -6.2380950000     4.0107900000
   16      H      -2.2151940000    -5.6372620000     3.2265060000
   17      C       0.9992380000    -4.5722610000    -3.4674150000
   18      H       1.2306490000    -5.1397430000    -4.3886480000
   19      H       1.9409050000    -4.1531310000    -3.0523230000
   20      H       0.3115430000    -3.7395310000    -3.7308190000
   21      C      -0.1873230000    -2.3066540000     1.0643660000
   22      S       0.2571280000    -2.3065010000    -1.5211540000
   23      C       0.0000000000    -1.4351850000     0.0000000000
   24      H      -0.3659030000    -1.9781380000     2.0959390000
   25      H      -0.0928550000    -9.6140330000     0.3091310000
   26      C       0.0000000000     0.0000000000     0.0000000000
   27      S       0.7837860000     0.4519720000     1.5075410000
   28      C       2.1452610000     1.2389080000     0.7188730000
   29      C       0.7836500000     0.4515720000    -1.0678720000
   30      C       1.9863960000     1.1486480000    -0.6864100000
   31      S       0.5741330000     0.3273170000    -2.8055160000
   32      C       2.0883630000     1.2079430000    -3.0545300000
   33      C       2.7005480000     1.5642210000    -1.8625510000
   34      F       3.8557180000     2.2367060000    -1.8190880000
   35      C       2.4773070000     1.4303180000    -4.4560840000
   36      O       1.8145920000     1.0384820000    -5.4065100000
   37      O       3.6431620000     2.1120420000    -4.5692250000
   38      C       4.0745300000     2.3550610000    -5.9162070000
   39      H       5.0245560000     2.9116270000    -5.8330640000
   40      H       3.3220100000     2.9518600000    -6.4701680000
   41      H       4.2294900000     1.4009100000    -6.4592930000
   42      H       2.9449860000     1.7022600000     1.3064860000
 ----------------------------------------------------------------

   10   -2754.2393289175      8.36e-07  Convergence criterion met
 Total energy in the final basis set =    -2754.2393289175
        RIMP2         total energy =     -2759.3075773405 a.u.

                    Orbital Energies (a.u.)
 --------------------------------------------------------------

 Alpha MOs
 -- Occupied --
-92.0154 -92.0121 -91.9814 -91.9812 -26.3479 -20.6167 -20.5896 -20.5849
-20.5634 -11.4121 -11.3892 -11.3410 -11.3261 -11.3154 -11.3055 -11.3003
-11.2985 -11.2913 -11.2902 -11.2850 -11.2828 -11.2794 -11.2739 -11.2732
-11.2720 -11.2556 -11.2485 -11.2461 -11.2309  -9.0150  -9.0121  -8.9827
 -8.9813  -6.6956  -6.6947  -6.6945  -6.6929  -6.6921  -6.6912  -6.6635
 -6.6628  -6.6623  -6.6617  -6.6617  -6.6609  -1.6648  -1.4693  -1.4134
 -1.4079  -1.3722  -1.2386  -1.1879  -1.1643  -1.1411  -1.0874  -1.0476
 -1.0436  -1.0306  -0.9966  -0.9872  -0.9677  -0.9543  -0.9469  -0.9417
 -0.8909  -0.8744  -0.8428  -0.8207  -0.7961  -0.7839  -0.7791  -0.7630
 -0.7558  -0.7295  -0.7286  -0.7143  -0.6971  -0.6878  -0.6845  -0.6782
 -0.6758  -0.6621  -0.6555  -0.6486  -0.6306  -0.6159  -0.6146  -0.6076
 -0.6015  -0.5824  -0.5791  -0.5715  -0.5648  -0.5565  -0.5532  -0.5474
 -0.5341  -0.5298  -0.5241  -0.5163  -0.5135  -0.5097  -0.5041  -0.4943
 -0.4864  -0.4818  -0.4780  -0.4744  -0.4678  -0.4577  -0.4548  -0.4222
 -0.3884  -0.3782  -0.3578  -0.3527  -0.3248  -0.2902  -0.2421

          Ground-State Mulliken Net Atomic Charges

     Atom                 Charge (a.u.)
  ----------------------------------------
      1 C                    -0.205130
      2 C                    -0.251674
      3 S                    -0.031746
      4 C                    -0.030761
      5 H                     0.194601
      6 C                    -0.021599
      7 C                     0.218132
      8 C                     0.247182
      9 C                    -0.049233
     10 C                     0.001401
     11 O                    -0.333379
     12 O                    -0.343369
     13 C                    -0.085420
     14 H                     0.120081
     15 H                     0.089571
     16 H                     0.092059
     17 C                    -0.087778
     18 H                     0.125009
     19 H                     0.092974
     20 H                     0.090591
     21 C                    -0.318137
     22 S                    -0.041595
     23 C                     0.037669
     24 H                     0.178141
     25 H                     0.203562
     26 C                    -0.158435
     27 S                     0.123626
     28 C                    -0.104196
     29 C                     0.082370
     30 C                    -0.112953
     31 S                     0.074339
     32 C                    -0.157157
     33 C                     0.399514
     34 F                    -0.203480
     35 C                     0.449757
     36 O                    -0.461927
     37 O                    -0.300977
     38 C                    -0.058039
     39 H                     0.121874
     40 H                     0.095535
     41 H                     0.095275
     42 H                     0.223722
  ----------------------------------------
  Sum of atomic charges =     0.000000

                    Cartesian Multipole Moments
 -----------------------------------------------------------------
    Charge (ESU x 10^10)
                -0.0000
    Dipole Moment (Debye)
         X       4.0056      Y       3.1712      Z       1.5881
       Tot       5.3501
    Quadrupole Moments (Debye-Ang)
        XX    -183.7979     XY       9.1515     YY    -187.9594
        XZ     -15.1242     YZ      -1.0307     ZZ    -183.2796

 Total job time:  300.91s(wall), 9747.44s(cpu)
        *  Thank you very much for using Q-Chem.  Have a nice day.  *
