 Q-Chem 5.4, Q-Chem, Inc., Pleasanton, CA (2021)
 Q-Chem 5.4.0 for Intel X86 EM64T Linux

User input:
--------------------------------------------------------------
$molecule
0 1
C	0.194917	-8.517702	-0.254945
C	-0.335839	-7.641575	0.680596
S	0.954772	-7.638634	-1.603876
C	-0.147576	-6.264785	0.354585
H	-0.854836	-7.966081	1.591356
C	0.567090	-6.072714	-0.879999
C	0.826731	-4.787049	-1.379534
C	-0.618405	-5.162801	1.124384
C	-0.362333	-3.874817	0.622407
C	0.355575	-3.683952	-0.612067
O	-1.253677	-5.499772	2.281166
O	1.463859	-4.459055	-2.542174
C	2.462679	-5.329063	-3.060718
H	2.997507	-4.755694	-3.841678
H	2.027179	-6.238095	-3.530361
H	3.185132	-5.637262	-2.274283
C	-2.124902	-4.572261	2.916545
H	-2.657438	-5.139743	3.703073
H	-2.867810	-4.153131	2.204417
H	-1.568770	-3.739531	3.399269
C	0.540061	-2.306654	-0.936109
S	-0.761887	-2.306501	1.341474
C	0.000000	-1.435185	0.000000
H	1.060690	-1.978138	-1.844392
H	0.192984	-9.614033	-0.258730
C	0.000000	0.000000	0.000000
S	0.234628	0.873813	1.507541
C	0.640889	2.392969	0.718873
C	0.234815	0.873434	-1.067872
C	0.592377	2.216811	-0.686410
S	0.174526	0.637422	-2.805516
C	0.622551	2.330840	-3.054530
C	0.803505	3.015647	-1.862551
F	1.144815	4.307994	-1.819088
C	0.740334	2.763108	-4.456084
O	0.548793	2.017428	-5.406510
O	1.082665	4.069544	-4.569225
C	1.215848	4.546407	-5.916207
H	1.494066	5.611729	-5.833064
H	0.261736	4.436296	-6.470168
H	2.000108	3.981294	-6.459293
H	0.878739	3.286099	1.306486
$end

$rem
JOBTYPE		SP
EXCHANGE	HF
CORRELATION	pRIMP2
BASIS		cc-pvtz
METHOD		rimp2
AUX_BASIS	rimp2-cc-pvtz
SOLVENT_METHOD	PCM
PURECART	11111
SYMMETRY	false
MEM_TOTAL	110000
SCF_CONVERGENCE = 6
THRESH=10
GUI = 2
$end

$solvent
dielectric 4.90
$end
--------------------------------------------------------------

             Standard Nuclear Orientation (Angstroms)
    I     Atom           X                Y                Z
 ----------------------------------------------------------------
    1      C       0.1949170000    -8.5177020000    -0.2549450000
    2      C      -0.3358390000    -7.6415750000     0.6805960000
    3      S       0.9547720000    -7.6386340000    -1.6038760000
    4      C      -0.1475760000    -6.2647850000     0.3545850000
    5      H      -0.8548360000    -7.9660810000     1.5913560000
    6      C       0.5670900000    -6.0727140000    -0.8799990000
    7      C       0.8267310000    -4.7870490000    -1.3795340000
    8      C      -0.6184050000    -5.1628010000     1.1243840000
    9      C      -0.3623330000    -3.8748170000     0.6224070000
   10      C       0.3555750000    -3.6839520000    -0.6120670000
   11      O      -1.2536770000    -5.4997720000     2.2811660000
   12      O       1.4638590000    -4.4590550000    -2.5421740000
   13      C       2.4626790000    -5.3290630000    -3.0607180000
   14      H       2.9975070000    -4.7556940000    -3.8416780000
   15      H       2.0271790000    -6.2380950000    -3.5303610000
   16      H       3.1851320000    -5.6372620000    -2.2742830000
   17      C      -2.1249020000    -4.5722610000     2.9165450000
   18      H      -2.6574380000    -5.1397430000     3.7030730000
   19      H      -2.8678100000    -4.1531310000     2.2044170000
   20      H      -1.5687700000    -3.7395310000     3.3992690000
   21      C       0.5400610000    -2.3066540000    -0.9361090000
   22      S      -0.7618870000    -2.3065010000     1.3414740000
   23      C       0.0000000000    -1.4351850000     0.0000000000
   24      H       1.0606900000    -1.9781380000    -1.8443920000
   25      H       0.1929840000    -9.6140330000    -0.2587300000
   26      C       0.0000000000     0.0000000000     0.0000000000
   27      S       0.2346280000     0.8738130000     1.5075410000
   28      C       0.6408890000     2.3929690000     0.7188730000
   29      C       0.2348150000     0.8734340000    -1.0678720000
   30      C       0.5923770000     2.2168110000    -0.6864100000
   31      S       0.1745260000     0.6374220000    -2.8055160000
   32      C       0.6225510000     2.3308400000    -3.0545300000
   33      C       0.8035050000     3.0156470000    -1.8625510000
   34      F       1.1448150000     4.3079940000    -1.8190880000
   35      C       0.7403340000     2.7631080000    -4.4560840000
   36      O       0.5487930000     2.0174280000    -5.4065100000
   37      O       1.0826650000     4.0695440000    -4.5692250000
   38      C       1.2158480000     4.5464070000    -5.9162070000
   39      H       1.4940660000     5.6117290000    -5.8330640000
   40      H       0.2617360000     4.4362960000    -6.4701680000
   41      H       2.0001080000     3.9812940000    -6.4592930000
   42      H       0.8787390000     3.2860990000     1.3064860000
 ----------------------------------------------------------------

   10   -2754.3130479521      7.39e-07  Convergence criterion met
 Total energy in the final basis set =    -2754.3130479521
        RIMP2         total energy =     -2759.3656500371 a.u.

                    Orbital Energies (a.u.)
 --------------------------------------------------------------

 Alpha MOs
 -- Occupied --
-92.0158 -91.9989 -91.9903 -91.9863 -26.3433 -20.6147 -20.5928 -20.5909
-20.5612 -11.4094 -11.3824 -11.3198 -11.3174 -11.3109 -11.3009 -11.2992
-11.2976 -11.2965 -11.2888 -11.2875 -11.2865 -11.2856 -11.2855 -11.2842
-11.2795 -11.2617 -11.2586 -11.2555 -11.2499  -9.0144  -8.9989  -8.9909
 -8.9862  -6.6951  -6.6946  -6.6940  -6.6799  -6.6791  -6.6780  -6.6719
 -6.6712  -6.6702  -6.6672  -6.6665  -6.6657  -1.6604  -1.4672  -1.4168
 -1.4137  -1.3699  -1.2221  -1.1948  -1.1660  -1.1366  -1.0854  -1.0521
 -1.0419  -1.0234  -1.0017  -0.9883  -0.9637  -0.9598  -0.9504  -0.9394
 -0.8963  -0.8680  -0.8517  -0.8082  -0.7987  -0.7878  -0.7864  -0.7643
 -0.7553  -0.7342  -0.7252  -0.7099  -0.7019  -0.6854  -0.6833  -0.6807
 -0.6738  -0.6593  -0.6584  -0.6524  -0.6306  -0.6198  -0.6171  -0.6035
 -0.5982  -0.5829  -0.5792  -0.5710  -0.5651  -0.5619  -0.5548  -0.5497
 -0.5347  -0.5304  -0.5246  -0.5174  -0.5162  -0.5086  -0.5066  -0.4961
 -0.4879  -0.4810  -0.4765  -0.4738  -0.4690  -0.4667  -0.4601  -0.4227
 -0.3958  -0.3851  -0.3599  -0.3497  -0.3259  -0.2899  -0.2518

          Ground-State Mulliken Net Atomic Charges

     Atom                 Charge (a.u.)
  ----------------------------------------
      1 C                    -0.189556
      2 C                    -0.253820
      3 S                    -0.021439
      4 C                    -0.017328
      5 H                     0.196167
      6 C                    -0.028226
      7 C                     0.241354
      8 C                     0.243436
      9 C                    -0.043725
     10 C                    -0.023870
     11 O                    -0.333225
     12 O                    -0.339438
     13 C                    -0.086044
     14 H                     0.123131
     15 H                     0.091263
     16 H                     0.093677
     17 C                    -0.087686
     18 H                     0.125696
     19 H                     0.095295
     20 H                     0.089218
     21 C                    -0.227610
     22 S                    -0.028360
     23 C                     0.000657
     24 H                     0.197217
     25 H                     0.206314
     26 C                    -0.003514
     27 S                     0.102181
     28 C                    -0.198569
     29 C                    -0.033165
     30 C                    -0.097583
     31 S                     0.016323
     32 C                    -0.159140
     33 C                     0.403678
     34 F                    -0.206966
     35 C                     0.443156
     36 O                    -0.460775
     37 O                    -0.300697
     38 C                    -0.058449
     39 H                     0.121400
     40 H                     0.095214
     41 H                     0.095059
     42 H                     0.218747
  ----------------------------------------
  Sum of atomic charges =     0.000000

                    Cartesian Multipole Moments
 -----------------------------------------------------------------
    Charge (ESU x 10^10)
                 0.0000
    Dipole Moment (Debye)
         X       0.9078      Y       1.0826      Z       3.1630
       Tot       3.4642
    Quadrupole Moments (Debye-Ang)
        XX    -189.1785     XY       2.7080     YY    -160.6908
        XZ     -14.5213     YZ      -7.7147     ZZ    -193.0095

 Total job time:  296.43s(wall), 9618.09s(cpu)
        *  Thank you very much for using Q-Chem.  Have a nice day.  *
