 Q-Chem 5.4, Q-Chem, Inc., Pleasanton, CA (2021)
 Q-Chem 5.4.0 for Intel X86 EM64T Linux

User input:
--------------------------------------------------------------
$molecule
0 1
C	-0.313191	-8.517702	0.070009
C	0.694746	-7.641575	-0.305494
S	-1.762350	-7.638634	0.614924
C	0.340973	-6.264785	-0.176768
H	1.677747	-7.966081	-0.669571
C	-1.000069	-6.072714	0.309600
C	-1.520060	-4.787049	0.525372
C	1.196466	-5.162801	-0.463825
C	0.677639	-3.874817	-0.243888
C	-0.665815	-3.683952	0.240312
O	2.426678	-5.499772	-0.941626
O	-2.755460	-4.459055	1.006468
C	-3.853913	-5.329063	0.761666
H	-4.765607	-4.755694	1.016135
H	-3.822182	-6.238095	1.401368
H	-3.901833	-5.637262	-0.305161
C	3.502489	-4.572261	-0.868342
H	4.416005	-5.139743	-1.128551
H	3.613841	-4.153131	0.154712
H	3.386756	-3.739531	-1.595605
C	-1.015430	-2.306654	0.369957
S	1.445922	-2.306501	-0.537898
C	0.000000	-1.435185	0.000000
H	-1.998088	-1.978138	0.731088
H	-0.314143	-9.614033	0.074151
C	0.000000	0.000000	0.000000
S	0.234628	0.873813	1.507541
C	0.640889	2.392969	0.718873
C	0.234815	0.873434	-1.067872
C	0.592377	2.216811	-0.686410
S	0.174526	0.637422	-2.805516
C	0.622551	2.330840	-3.054530
C	0.803505	3.015647	-1.862551
F	1.144815	4.307994	-1.819088
C	0.740334	2.763108	-4.456084
O	0.548793	2.017428	-5.406510
O	1.082665	4.069544	-4.569225
C	1.215848	4.546407	-5.916207
H	1.494066	5.611729	-5.833064
H	0.261736	4.436296	-6.470168
H	2.000108	3.981294	-6.459293
H	0.878739	3.286099	1.306486
$end

$rem
JOBTYPE		SP
EXCHANGE	HF
CORRELATION	pRIMP2
BASIS		cc-pvtz
METHOD		rimp2
AUX_BASIS	rimp2-cc-pvtz
SOLVENT_METHOD	PCM
PURECART	11111
SYMMETRY	false
MEM_TOTAL	110000
SCF_CONVERGENCE = 6
THRESH=10
GUI = 2
$end

$solvent
dielectric 4.90
$end
--------------------------------------------------------------

             Standard Nuclear Orientation (Angstroms)
    I     Atom           X                Y                Z
 ----------------------------------------------------------------
    1      C      -0.3131910000    -8.5177020000     0.0700090000
    2      C       0.6947460000    -7.6415750000    -0.3054940000
    3      S      -1.7623500000    -7.6386340000     0.6149240000
    4      C       0.3409730000    -6.2647850000    -0.1767680000
    5      H       1.6777470000    -7.9660810000    -0.6695710000
    6      C      -1.0000690000    -6.0727140000     0.3096000000
    7      C      -1.5200600000    -4.7870490000     0.5253720000
    8      C       1.1964660000    -5.1628010000    -0.4638250000
    9      C       0.6776390000    -3.8748170000    -0.2438880000
   10      C      -0.6658150000    -3.6839520000     0.2403120000
   11      O       2.4266780000    -5.4997720000    -0.9416260000
   12      O      -2.7554600000    -4.4590550000     1.0064680000
   13      C      -3.8539130000    -5.3290630000     0.7616660000
   14      H      -4.7656070000    -4.7556940000     1.0161350000
   15      H      -3.8221820000    -6.2380950000     1.4013680000
   16      H      -3.9018330000    -5.6372620000    -0.3051610000
   17      C       3.5024890000    -4.5722610000    -0.8683420000
   18      H       4.4160050000    -5.1397430000    -1.1285510000
   19      H       3.6138410000    -4.1531310000     0.1547120000
   20      H       3.3867560000    -3.7395310000    -1.5956050000
   21      C      -1.0154300000    -2.3066540000     0.3699570000
   22      S       1.4459220000    -2.3065010000    -0.5378980000
   23      C       0.0000000000    -1.4351850000     0.0000000000
   24      H      -1.9980880000    -1.9781380000     0.7310880000
   25      H      -0.3141430000    -9.6140330000     0.0741510000
   26      C       0.0000000000     0.0000000000     0.0000000000
   27      S       0.2346280000     0.8738130000     1.5075410000
   28      C       0.6408890000     2.3929690000     0.7188730000
   29      C       0.2348150000     0.8734340000    -1.0678720000
   30      C       0.5923770000     2.2168110000    -0.6864100000
   31      S       0.1745260000     0.6374220000    -2.8055160000
   32      C       0.6225510000     2.3308400000    -3.0545300000
   33      C       0.8035050000     3.0156470000    -1.8625510000
   34      F       1.1448150000     4.3079940000    -1.8190880000
   35      C       0.7403340000     2.7631080000    -4.4560840000
   36      O       0.5487930000     2.0174280000    -5.4065100000
   37      O       1.0826650000     4.0695440000    -4.5692250000
   38      C       1.2158480000     4.5464070000    -5.9162070000
   39      H       1.4940660000     5.6117290000    -5.8330640000
   40      H       0.2617360000     4.4362960000    -6.4701680000
   41      H       2.0001080000     3.9812940000    -6.4592930000
   42      H       0.8787390000     3.2860990000     1.3064860000
 ----------------------------------------------------------------

   10   -2754.3113257358      7.17e-07  Convergence criterion met
 Total energy in the final basis set =    -2754.3113257358
        RIMP2         total energy =     -2759.3618503322 a.u.

                    Orbital Energies (a.u.)
 --------------------------------------------------------------

 Alpha MOs
 -- Occupied --
-92.0146 -91.9972 -91.9889 -91.9865 -26.3427 -20.6143 -20.5923 -20.5918
-20.5606 -11.4087 -11.3815 -11.3191 -11.3183 -11.3097 -11.3004 -11.2965
-11.2955 -11.2915 -11.2885 -11.2869 -11.2862 -11.2861 -11.2840 -11.2838
-11.2801 -11.2603 -11.2593 -11.2572 -11.2501  -9.0130  -8.9972  -8.9893
 -8.9864  -6.6937  -6.6931  -6.6926  -6.6782  -6.6775  -6.6764  -6.6702
 -6.6695  -6.6686  -6.6674  -6.6668  -6.6659  -1.6598  -1.4667  -1.4164
 -1.4145  -1.3694  -1.2205  -1.1943  -1.1652  -1.1351  -1.0844  -1.0520
 -1.0407  -1.0220  -1.0016  -0.9876  -0.9624  -0.9595  -0.9502  -0.9387
 -0.8958  -0.8668  -0.8509  -0.8110  -0.7918  -0.7883  -0.7864  -0.7650
 -0.7549  -0.7338  -0.7247  -0.7092  -0.6999  -0.6847  -0.6832  -0.6803
 -0.6734  -0.6591  -0.6572  -0.6527  -0.6303  -0.6201  -0.6172  -0.6049
 -0.5971  -0.5849  -0.5775  -0.5691  -0.5660  -0.5601  -0.5558  -0.5498
 -0.5324  -0.5304  -0.5239  -0.5160  -0.5149  -0.5085  -0.5046  -0.4956
 -0.4894  -0.4795  -0.4750  -0.4729  -0.4693  -0.4660  -0.4606  -0.4072
 -0.3987  -0.3859  -0.3567  -0.3490  -0.3182  -0.2948  -0.2585

          Ground-State Mulliken Net Atomic Charges

     Atom                 Charge (a.u.)
  ----------------------------------------
      1 C                    -0.187575
      2 C                    -0.254523
      3 S                    -0.022303
      4 C                    -0.013334
      5 H                     0.196442
      6 C                    -0.027468
      7 C                     0.244441
      8 C                     0.239040
      9 C                    -0.041664
     10 C                    -0.022425
     11 O                    -0.333273
     12 O                    -0.339841
     13 C                    -0.085789
     14 H                     0.122616
     15 H                     0.091094
     16 H                     0.094401
     17 C                    -0.086650
     18 H                     0.124912
     19 H                     0.094297
     20 H                     0.090546
     21 C                    -0.231056
     22 S                     0.000054
     23 C                    -0.053180
     24 H                     0.196897
     25 H                     0.206521
     26 C                     0.004629
     27 S                     0.110173
     28 C                    -0.188605
     29 C                    -0.037104
     30 C                    -0.090690
     31 S                     0.015239
     32 C                    -0.153889
     33 C                     0.391178
     34 F                    -0.207018
     35 C                     0.445768
     36 O                    -0.461147
     37 O                    -0.300777
     38 C                    -0.058431
     39 H                     0.121198
     40 H                     0.095050
     41 H                     0.094959
     42 H                     0.217287
  ----------------------------------------
  Sum of atomic charges =     0.000000

                    Cartesian Multipole Moments
 -----------------------------------------------------------------
    Charge (ESU x 10^10)
                 0.0000
    Dipole Moment (Debye)
         X       0.7209      Y       0.8601      Z       2.7649
       Tot       2.9839
    Quadrupole Moments (Debye-Ang)
        XX    -176.1122     XY       4.8345     YY    -160.4078
        XZ      -4.7804     YZ      -5.8428     ZZ    -206.2869

 Total job time:  284.45s(wall), 9043.23s(cpu)
        *  Thank you very much for using Q-Chem.  Have a nice day.  *
