 Q-Chem 5.4, Q-Chem, Inc., Pleasanton, CA (2021)
 Q-Chem 5.4.0 for Intel X86 EM64T Linux

User input:
--------------------------------------------------------------
$molecule
0 1
C	0.701193	-8.488892	0.318247
C	0.616742	-7.616807	-0.757333
S	0.640926	-7.611739	1.866383
C	0.496713	-6.245258	-0.380867
H	0.639132	-7.940593	-1.805573
C	0.478351	-6.054060	1.045647
C	0.391116	-4.771116	1.608077
C	0.423432	-5.145477	-1.282948
C	0.340289	-3.859847	-0.720187
C	0.319182	-3.670099	0.707853
O	0.424679	-5.483626	-2.602386
O	0.391967	-4.441795	2.933517
C	-0.135633	-5.361285	3.881999
H	-0.258024	-4.796434	4.825744
H	0.553241	-6.213521	4.070972
H	-1.123774	-5.757113	3.562152
C	0.778992	-4.521574	-3.588253
H	0.896118	-5.080975	-4.535674
H	1.738100	-4.016931	-3.342986
H	-0.013821	-3.755025	-3.728239
C	0.201385	-2.297846	1.080725
S	0.190142	-2.298676	-1.542694
C	0.125085	-1.429724	0.000000
H	0.176004	-1.970295	2.127635
H	0.800298	-9.580740	0.320559
C	0.000000	0.000000	0.000000
S	0.309893	0.850039	1.507541
C	0.847011	2.328006	0.718873
C	0.310046	0.849645	-1.067872
C	0.783331	2.156746	-0.686410
S	0.229416	0.619785	-2.805516
C	0.823328	2.267711	-3.054530
C	1.063278	2.934142	-1.862551
F	1.515925	4.191824	-1.819088
C	0.978337	2.688069	-4.456084
O	0.722535	1.961921	-5.406510
O	1.433229	3.959697	-4.569225
C	1.607467	4.423139	-5.916207
H	1.977475	5.460158	-5.833064
H	0.647388	4.396602	-6.470168
H	2.339490	3.791823	-6.459293
H	1.161798	3.197007	1.306486
$end

$rem
JOBTYPE		SP
EXCHANGE	HF
CORRELATION	pRIMP2
BASIS		cc-pvtz
METHOD		rimp2
AUX_BASIS	rimp2-cc-pvtz
SOLVENT_METHOD	PCM
PURECART	11111
SYMMETRY	false
MEM_TOTAL	110000
SCF_CONVERGENCE = 6
THRESH=10
GUI = 2
$end

$solvent
dielectric 4.90
$end
--------------------------------------------------------------

             Standard Nuclear Orientation (Angstroms)
    I     Atom           X                Y                Z
 ----------------------------------------------------------------
    1      C       0.7011930000    -8.4888920000     0.3182470000
    2      C       0.6167420000    -7.6168070000    -0.7573330000
    3      S       0.6409260000    -7.6117390000     1.8663830000
    4      C       0.4967130000    -6.2452580000    -0.3808670000
    5      H       0.6391320000    -7.9405930000    -1.8055730000
    6      C       0.4783510000    -6.0540600000     1.0456470000
    7      C       0.3911160000    -4.7711160000     1.6080770000
    8      C       0.4234320000    -5.1454770000    -1.2829480000
    9      C       0.3402890000    -3.8598470000    -0.7201870000
   10      C       0.3191820000    -3.6700990000     0.7078530000
   11      O       0.4246790000    -5.4836260000    -2.6023860000
   12      O       0.3919670000    -4.4417950000     2.9335170000
   13      C      -0.1356330000    -5.3612850000     3.8819990000
   14      H      -0.2580240000    -4.7964340000     4.8257440000
   15      H       0.5532410000    -6.2135210000     4.0709720000
   16      H      -1.1237740000    -5.7571130000     3.5621520000
   17      C       0.7789920000    -4.5215740000    -3.5882530000
   18      H       0.8961180000    -5.0809750000    -4.5356740000
   19      H       1.7381000000    -4.0169310000    -3.3429860000
   20      H      -0.0138210000    -3.7550250000    -3.7282390000
   21      C       0.2013850000    -2.2978460000     1.0807250000
   22      S       0.1901420000    -2.2986760000    -1.5426940000
   23      C       0.1250850000    -1.4297240000     0.0000000000
   24      H       0.1760040000    -1.9702950000     2.1276350000
   25      H       0.8002980000    -9.5807400000     0.3205590000
   26      C       0.0000000000     0.0000000000     0.0000000000
   27      S       0.3098930000     0.8500390000     1.5075410000
   28      C       0.8470110000     2.3280060000     0.7188730000
   29      C       0.3100460000     0.8496450000    -1.0678720000
   30      C       0.7833310000     2.1567460000    -0.6864100000
   31      S       0.2294160000     0.6197850000    -2.8055160000
   32      C       0.8233280000     2.2677110000    -3.0545300000
   33      C       1.0632780000     2.9341420000    -1.8625510000
   34      F       1.5159250000     4.1918240000    -1.8190880000
   35      C       0.9783370000     2.6880690000    -4.4560840000
   36      O       0.7225350000     1.9619210000    -5.4065100000
   37      O       1.4332290000     3.9596970000    -4.5692250000
   38      C       1.6074670000     4.4231390000    -5.9162070000
   39      H       1.9774750000     5.4601580000    -5.8330640000
   40      H       0.6473880000     4.3966020000    -6.4701680000
   41      H       2.3394900000     3.7918230000    -6.4592930000
   42      H       1.1617980000     3.1970070000     1.3064860000
 ----------------------------------------------------------------

   10   -2754.3037372093      7.30e-07  Convergence criterion met
 Total energy in the final basis set =    -2754.3037372093
        RIMP2         total energy =     -2759.3601876958 a.u.

                    Orbital Energies (a.u.)
 --------------------------------------------------------------

 Alpha MOs
 -- Occupied --
-92.0149 -92.0012 -91.9895 -91.9852 -26.3444 -20.6152 -20.5919 -20.5900
-20.5617 -11.4100 -11.3840 -11.3192 -11.3165 -11.3146 -11.3055 -11.2986
-11.2981 -11.2974 -11.2891 -11.2869 -11.2863 -11.2855 -11.2843 -11.2833
-11.2776 -11.2612 -11.2561 -11.2498 -11.2491  -9.0138  -9.0014  -8.9903
 -8.9851  -6.6945  -6.6939  -6.6934  -6.6823  -6.6816  -6.6804  -6.6712
 -6.6706  -6.6696  -6.6661  -6.6655  -6.6646  -1.6614  -1.4677  -1.4159
 -1.4128  -1.3704  -1.2251  -1.1935  -1.1652  -1.1377  -1.0859  -1.0510
 -1.0426  -1.0254  -1.0011  -0.9878  -0.9649  -0.9579  -0.9493  -0.9417
 -0.8949  -0.8693  -0.8503  -0.8164  -0.7927  -0.7874  -0.7845  -0.7645
 -0.7558  -0.7330  -0.7262  -0.7111  -0.6985  -0.6862  -0.6831  -0.6821
 -0.6743  -0.6592  -0.6581  -0.6518  -0.6305  -0.6190  -0.6161  -0.6035
 -0.5989  -0.5848  -0.5792  -0.5690  -0.5673  -0.5613  -0.5561  -0.5527
 -0.5327  -0.5290  -0.5236  -0.5199  -0.5175  -0.5115  -0.5058  -0.4943
 -0.4863  -0.4799  -0.4771  -0.4748  -0.4700  -0.4630  -0.4581  -0.4274
 -0.3917  -0.3851  -0.3611  -0.3527  -0.3242  -0.2915  -0.2467

          Ground-State Mulliken Net Atomic Charges

     Atom                 Charge (a.u.)
  ----------------------------------------
      1 C                    -0.193434
      2 C                    -0.253158
      3 S                    -0.025080
      4 C                    -0.020244
      5 H                     0.196090
      6 C                    -0.025729
      7 C                     0.233595
      8 C                     0.245574
      9 C                    -0.037207
     10 C                    -0.013475
     11 O                    -0.332790
     12 O                    -0.341490
     13 C                    -0.085503
     14 H                     0.121783
     15 H                     0.090759
     16 H                     0.093553
     17 C                    -0.089199
     18 H                     0.125920
     19 H                     0.095169
     20 H                     0.090518
     21 C                    -0.273038
     22 S                    -0.043497
     23 C                     0.015002
     24 H                     0.185247
     25 H                     0.205670
     26 C                     0.021450
     27 S                     0.094054
     28 C                    -0.174771
     29 C                    -0.004733
     30 C                    -0.113603
     31 S                     0.017788
     32 C                    -0.167142
     33 C                     0.410584
     34 F                    -0.205722
     35 C                     0.445423
     36 O                    -0.461133
     37 O                    -0.301010
     38 C                    -0.058403
     39 H                     0.121505
     40 H                     0.095211
     41 H                     0.095163
     42 H                     0.220304
  ----------------------------------------
  Sum of atomic charges =     0.000000

                    Cartesian Multipole Moments
 -----------------------------------------------------------------
    Charge (ESU x 10^10)
                 0.0000
    Dipole Moment (Debye)
         X       0.9892      Y       1.8867      Z       2.4943
       Tot       3.2801
    Quadrupole Moments (Debye-Ang)
        XX    -198.9488     XY       4.8793     YY    -164.9687
        XZ      -8.2973     YZ      -6.6897     ZZ    -182.0719

 Total job time:  320.59s(wall), 10425.80s(cpu)
        *  Thank you very much for using Q-Chem.  Have a nice day.  *
