 Q-Chem 5.4, Q-Chem, Inc., Pleasanton, CA (2021)
 Q-Chem 5.4.0 for Intel X86 EM64T Linux

User input:
--------------------------------------------------------------
$molecule
0 1
C	-0.123330	-8.517702	-0.296276
C	0.421494	-7.641575	0.631143
S	-0.911611	-7.638634	-1.628795
C	0.233291	-6.264785	0.305097
H	0.950737	-7.966081	1.535988
C	-0.478557	-6.072714	-0.931114
C	-0.781346	-4.787049	-1.405737
C	0.664542	-5.162801	1.097747
C	0.357854	-3.874817	0.624993
C	-0.352278	-3.683952	-0.613970
O	1.348709	-5.499772	2.226300
O	-1.469658	-4.459055	-2.538827
C	-1.419319	-5.329063	-3.663102
H	-1.828237	-4.755694	-4.516756
H	-2.043793	-6.238095	-3.520769
H	-0.377021	-5.637262	-3.895546
C	1.463351	-4.572261	3.298492
H	1.878237	-5.139743	4.152945
H	0.475176	-4.153131	3.585804
H	2.159469	-3.739531	3.058230
C	-0.540664	-2.306654	-0.935761
S	0.780808	-2.306501	1.330550
C	-0.000000	-1.435185	-0.000000
H	-1.066946	-1.978138	-1.840780
H	-0.127575	-9.614033	-0.296494
C	0.000000	0.000000	0.000000
S	0.309893	0.850039	1.507541
C	0.847011	2.328006	0.718873
C	0.310046	0.849645	-1.067872
C	0.783331	2.156746	-0.686410
S	0.229416	0.619785	-2.805516
C	0.823328	2.267711	-3.054530
C	1.063278	2.934142	-1.862551
F	1.515925	4.191824	-1.819088
C	0.978337	2.688069	-4.456084
O	0.722535	1.961921	-5.406510
O	1.433229	3.959697	-4.569225
C	1.607467	4.423139	-5.916207
H	1.977475	5.460158	-5.833064
H	0.647388	4.396602	-6.470168
H	2.339490	3.791823	-6.459293
H	1.161798	3.197007	1.306486
$end

$rem
JOBTYPE		SP
EXCHANGE	HF
CORRELATION	pRIMP2
BASIS		cc-pvtz
METHOD		rimp2
AUX_BASIS	rimp2-cc-pvtz
SOLVENT_METHOD	PCM
PURECART	11111
SYMMETRY	false
MEM_TOTAL	110000
SCF_CONVERGENCE = 6
THRESH=10
GUI = 2
$end

$solvent
dielectric 4.90
$end
--------------------------------------------------------------

             Standard Nuclear Orientation (Angstroms)
    I     Atom           X                Y                Z
 ----------------------------------------------------------------
    1      C      -0.1233300000    -8.5177020000    -0.2962760000
    2      C       0.4214940000    -7.6415750000     0.6311430000
    3      S      -0.9116110000    -7.6386340000    -1.6287950000
    4      C       0.2332910000    -6.2647850000     0.3050970000
    5      H       0.9507370000    -7.9660810000     1.5359880000
    6      C      -0.4785570000    -6.0727140000    -0.9311140000
    7      C      -0.7813460000    -4.7870490000    -1.4057370000
    8      C       0.6645420000    -5.1628010000     1.0977470000
    9      C       0.3578540000    -3.8748170000     0.6249930000
   10      C      -0.3522780000    -3.6839520000    -0.6139700000
   11      O       1.3487090000    -5.4997720000     2.2263000000
   12      O      -1.4696580000    -4.4590550000    -2.5388270000
   13      C      -1.4193190000    -5.3290630000    -3.6631020000
   14      H      -1.8282370000    -4.7556940000    -4.5167560000
   15      H      -2.0437930000    -6.2380950000    -3.5207690000
   16      H      -0.3770210000    -5.6372620000    -3.8955460000
   17      C       1.4633510000    -4.5722610000     3.2984920000
   18      H       1.8782370000    -5.1397430000     4.1529450000
   19      H       0.4751760000    -4.1531310000     3.5858040000
   20      H       2.1594690000    -3.7395310000     3.0582300000
   21      C      -0.5406640000    -2.3066540000    -0.9357610000
   22      S       0.7808080000    -2.3065010000     1.3305500000
   23      C       0.0000000000    -1.4351850000     0.0000000000
   24      H      -1.0669460000    -1.9781380000    -1.8407800000
   25      H      -0.1275750000    -9.6140330000    -0.2964940000
   26      C       0.0000000000     0.0000000000     0.0000000000
   27      S       0.3098930000     0.8500390000     1.5075410000
   28      C       0.8470110000     2.3280060000     0.7188730000
   29      C       0.3100460000     0.8496450000    -1.0678720000
   30      C       0.7833310000     2.1567460000    -0.6864100000
   31      S       0.2294160000     0.6197850000    -2.8055160000
   32      C       0.8233280000     2.2677110000    -3.0545300000
   33      C       1.0632780000     2.9341420000    -1.8625510000
   34      F       1.5159250000     4.1918240000    -1.8190880000
   35      C       0.9783370000     2.6880690000    -4.4560840000
   36      O       0.7225350000     1.9619210000    -5.4065100000
   37      O       1.4332290000     3.9596970000    -4.5692250000
   38      C       1.6074670000     4.4231390000    -5.9162070000
   39      H       1.9774750000     5.4601580000    -5.8330640000
   40      H       0.6473880000     4.3966020000    -6.4701680000
   41      H       2.3394900000     3.7918230000    -6.4592930000
   42      H       1.1617980000     3.1970070000     1.3064860000
 ----------------------------------------------------------------

   10   -2754.3096058605      7.13e-07  Convergence criterion met
 Total energy in the final basis set =    -2754.3096058605
        RIMP2         total energy =     -2759.3631342121 a.u.

                    Orbital Energies (a.u.)
 --------------------------------------------------------------

 Alpha MOs
 -- Occupied --
-92.0159 -92.0000 -91.9913 -91.9858 -26.3437 -20.6149 -20.5928 -20.5903
-20.5614 -11.4096 -11.3831 -11.3196 -11.3162 -11.3126 -11.3028 -11.2985
-11.2978 -11.2965 -11.2889 -11.2876 -11.2861 -11.2853 -11.2851 -11.2838
-11.2788 -11.2612 -11.2577 -11.2530 -11.2496  -9.0146  -8.9999  -8.9918
 -8.9857  -6.6954  -6.6948  -6.6943  -6.6809  -6.6802  -6.6791  -6.6727
 -6.6720  -6.6710  -6.6667  -6.6661  -6.6652  -1.6608  -1.4674  -1.4168
 -1.4131  -1.3701  -1.2231  -1.1943  -1.1659  -1.1371  -1.0851  -1.0516
 -1.0423  -1.0240  -1.0014  -0.9882  -0.9639  -0.9598  -0.9502  -0.9392
 -0.8961  -0.8685  -0.8514  -0.8088  -0.7982  -0.7876  -0.7861  -0.7640
 -0.7555  -0.7337  -0.7256  -0.7103  -0.7016  -0.6855  -0.6829  -0.6810
 -0.6739  -0.6591  -0.6584  -0.6520  -0.6303  -0.6195  -0.6168  -0.6030
 -0.5988  -0.5870  -0.5781  -0.5706  -0.5653  -0.5604  -0.5557  -0.5470
 -0.5354  -0.5307  -0.5220  -0.5180  -0.5167  -0.5114  -0.5050  -0.4950
 -0.4876  -0.4813  -0.4760  -0.4744  -0.4690  -0.4667  -0.4612  -0.4226
 -0.3962  -0.3842  -0.3595  -0.3495  -0.3253  -0.2910  -0.2513

          Ground-State Mulliken Net Atomic Charges

     Atom                 Charge (a.u.)
  ----------------------------------------
      1 C                    -0.190739
      2 C                    -0.254211
      3 S                    -0.022580
      4 C                    -0.016825
      5 H                     0.195971
      6 C                    -0.026319
      7 C                     0.239529
      8 C                     0.240716
      9 C                    -0.045812
     10 C                    -0.020646
     11 O                    -0.332866
     12 O                    -0.340576
     13 C                    -0.085865
     14 H                     0.123121
     15 H                     0.090887
     16 H                     0.093839
     17 C                    -0.088094
     18 H                     0.125550
     19 H                     0.094684
     20 H                     0.089590
     21 C                    -0.249061
     22 S                    -0.022714
     23 C                    -0.028598
     24 H                     0.196080
     25 H                     0.206069
     26 C                     0.000031
     27 S                     0.081137
     28 C                    -0.173830
     29 C                     0.030284
     30 C                    -0.112609
     31 S                     0.011443
     32 C                    -0.155112
     33 C                     0.396212
     34 F                    -0.206007
     35 C                     0.445949
     36 O                    -0.460686
     37 O                    -0.300913
     38 C                    -0.058392
     39 H                     0.121393
     40 H                     0.095139
     41 H                     0.095159
     42 H                     0.219673
  ----------------------------------------
  Sum of atomic charges =     0.000000

                    Cartesian Multipole Moments
 -----------------------------------------------------------------
    Charge (ESU x 10^10)
                 0.0000
    Dipole Moment (Debye)
         X       1.3456      Y       1.3528      Z       2.9804
       Tot       3.5388
    Quadrupole Moments (Debye-Ang)
        XX    -198.2754     XY       3.9997     YY    -162.8276
        XZ       4.3563     YZ      -6.4758     ZZ    -182.9468

 Total job time:  956.37s(wall), 32252.47s(cpu)
        *  Thank you very much for using Q-Chem.  Have a nice day.  *
