 Q-Chem 5.4, Q-Chem, Inc., Pleasanton, CA (2021)
 Q-Chem 5.4.0 for Intel X86 EM64T Linux

User input:
--------------------------------------------------------------
$molecule
0 1
C	-0.313191	-8.517702	0.070009
C	0.694746	-7.641575	-0.305494
S	-1.762350	-7.638634	0.614924
C	0.340973	-6.264785	-0.176768
H	1.677747	-7.966081	-0.669571
C	-1.000069	-6.072714	0.309600
C	-1.520060	-4.787049	0.525372
C	1.196466	-5.162801	-0.463825
C	0.677639	-3.874817	-0.243888
C	-0.665815	-3.683952	0.240312
O	2.426678	-5.499772	-0.941626
O	-2.755460	-4.459055	1.006468
C	-3.853913	-5.329063	0.761666
H	-4.765607	-4.755694	1.016135
H	-3.822182	-6.238095	1.401368
H	-3.901833	-5.637262	-0.305161
C	3.502489	-4.572261	-0.868342
H	4.416005	-5.139743	-1.128551
H	3.613841	-4.153131	0.154712
H	3.386756	-3.739531	-1.595605
C	-1.015430	-2.306654	0.369957
S	1.445922	-2.306501	-0.537898
C	-0.000000	-1.435185	-0.000000
H	-1.998088	-1.978138	0.731088
H	-0.314143	-9.614033	0.074151
C	0.000000	0.000000	0.000000
S	0.382799	0.819795	1.507541
C	1.046687	2.245325	0.718873
C	0.382918	0.819389	-1.067872
C	0.968323	2.080267	-0.686410
S	0.282561	0.597432	-2.805516
C	1.017839	2.187324	-3.054530
C	1.314960	2.830306	-1.862551
F	1.875498	4.043751	-1.819088
C	1.208895	2.592573	-4.456084
O	0.890778	1.891482	-5.406510
O	1.772886	3.819715	-4.569225
C	1.986852	4.266207	-5.916207
H	2.445834	5.267032	-5.833064
H	1.028114	4.323448	-6.470168
H	2.661066	3.573494	-6.459293
H	1.436015	3.083584	1.306486
$end

$rem
JOBTYPE		SP
EXCHANGE	HF
CORRELATION	pRIMP2
BASIS		cc-pvtz
METHOD		rimp2
AUX_BASIS	rimp2-cc-pvtz
SOLVENT_METHOD	PCM
PURECART	11111
SYMMETRY	false
MEM_TOTAL	110000
SCF_CONVERGENCE = 6
THRESH=10
GUI = 2
$end

$solvent
dielectric 4.90
$end
--------------------------------------------------------------

             Standard Nuclear Orientation (Angstroms)
    I     Atom           X                Y                Z
 ----------------------------------------------------------------
    1      C      -0.3131910000    -8.5177020000     0.0700090000
    2      C       0.6947460000    -7.6415750000    -0.3054940000
    3      S      -1.7623500000    -7.6386340000     0.6149240000
    4      C       0.3409730000    -6.2647850000    -0.1767680000
    5      H       1.6777470000    -7.9660810000    -0.6695710000
    6      C      -1.0000690000    -6.0727140000     0.3096000000
    7      C      -1.5200600000    -4.7870490000     0.5253720000
    8      C       1.1964660000    -5.1628010000    -0.4638250000
    9      C       0.6776390000    -3.8748170000    -0.2438880000
   10      C      -0.6658150000    -3.6839520000     0.2403120000
   11      O       2.4266780000    -5.4997720000    -0.9416260000
   12      O      -2.7554600000    -4.4590550000     1.0064680000
   13      C      -3.8539130000    -5.3290630000     0.7616660000
   14      H      -4.7656070000    -4.7556940000     1.0161350000
   15      H      -3.8221820000    -6.2380950000     1.4013680000
   16      H      -3.9018330000    -5.6372620000    -0.3051610000
   17      C       3.5024890000    -4.5722610000    -0.8683420000
   18      H       4.4160050000    -5.1397430000    -1.1285510000
   19      H       3.6138410000    -4.1531310000     0.1547120000
   20      H       3.3867560000    -3.7395310000    -1.5956050000
   21      C      -1.0154300000    -2.3066540000     0.3699570000
   22      S       1.4459220000    -2.3065010000    -0.5378980000
   23      C       0.0000000000    -1.4351850000     0.0000000000
   24      H      -1.9980880000    -1.9781380000     0.7310880000
   25      H      -0.3141430000    -9.6140330000     0.0741510000
   26      C       0.0000000000     0.0000000000     0.0000000000
   27      S       0.3827990000     0.8197950000     1.5075410000
   28      C       1.0466870000     2.2453250000     0.7188730000
   29      C       0.3829180000     0.8193890000    -1.0678720000
   30      C       0.9683230000     2.0802670000    -0.6864100000
   31      S       0.2825610000     0.5974320000    -2.8055160000
   32      C       1.0178390000     2.1873240000    -3.0545300000
   33      C       1.3149600000     2.8303060000    -1.8625510000
   34      F       1.8754980000     4.0437510000    -1.8190880000
   35      C       1.2088950000     2.5925730000    -4.4560840000
   36      O       0.8907780000     1.8914820000    -5.4065100000
   37      O       1.7728860000     3.8197150000    -4.5692250000
   38      C       1.9868520000     4.2662070000    -5.9162070000
   39      H       2.4458340000     5.2670320000    -5.8330640000
   40      H       1.0281140000     4.3234480000    -6.4701680000
   41      H       2.6610660000     3.5734940000    -6.4592930000
   42      H       1.4360150000     3.0835840000     1.3064860000
 ----------------------------------------------------------------

   10   -2754.3045830582      7.57e-07  Convergence criterion met
 Total energy in the final basis set =    -2754.3045830582
        RIMP2         total energy =     -2759.3569290514 a.u.

                    Orbital Energies (a.u.)
 --------------------------------------------------------------

 Alpha MOs
 -- Occupied --
-92.0143 -91.9985 -91.9879 -91.9861 -26.3431 -20.6144 -20.5920 -20.5913
-20.5607 -11.4089 -11.3821 -11.3187 -11.3176 -11.3127 -11.3024 -11.2968
-11.2921 -11.2906 -11.2886 -11.2867 -11.2860 -11.2853 -11.2843 -11.2835
-11.2797 -11.2595 -11.2587 -11.2550 -11.2498  -9.0128  -8.9985  -8.9883
 -8.9861  -6.6935  -6.6928  -6.6923  -6.6795  -6.6787  -6.6776  -6.6693
 -6.6686  -6.6676  -6.6670  -6.6664  -6.6656  -1.6602  -1.4669  -1.4161
 -1.4140  -1.3695  -1.2218  -1.1936  -1.1648  -1.1357  -1.0841  -1.0514
 -1.0412  -1.0225  -1.0011  -0.9872  -0.9626  -0.9593  -0.9500  -0.9387
 -0.8954  -0.8673  -0.8498  -0.8114  -0.7919  -0.7876  -0.7859  -0.7648
 -0.7550  -0.7334  -0.7250  -0.7095  -0.6997  -0.6848  -0.6828  -0.6806
 -0.6735  -0.6589  -0.6574  -0.6524  -0.6299  -0.6198  -0.6170  -0.6054
 -0.5975  -0.5851  -0.5772  -0.5686  -0.5654  -0.5609  -0.5554  -0.5473
 -0.5326  -0.5305  -0.5233  -0.5157  -0.5147  -0.5087  -0.5046  -0.4955
 -0.4891  -0.4801  -0.4748  -0.4731  -0.4689  -0.4658  -0.4604  -0.4061
 -0.3990  -0.3852  -0.3557  -0.3498  -0.3181  -0.2950  -0.2580

          Ground-State Mulliken Net Atomic Charges

     Atom                 Charge (a.u.)
  ----------------------------------------
      1 C                    -0.188365
      2 C                    -0.254625
      3 S                    -0.022926
      4 C                    -0.014047
      5 H                     0.196286
      6 C                    -0.027326
      7 C                     0.240852
      8 C                     0.240031
      9 C                    -0.042488
     10 C                    -0.016442
     11 O                    -0.333379
     12 O                    -0.339851
     13 C                    -0.085771
     14 H                     0.122468
     15 H                     0.091004
     16 H                     0.094262
     17 C                    -0.086868
     18 H                     0.124956
     19 H                     0.094156
     20 H                     0.090478
     21 C                    -0.234990
     22 S                    -0.000541
     23 C                    -0.054302
     24 H                     0.196719
     25 H                     0.206352
     26 C                     0.006236
     27 S                     0.113175
     28 C                    -0.184128
     29 C                    -0.064540
     30 C                    -0.076131
     31 S                     0.024209
     32 C                    -0.153193
     33 C                     0.390815
     34 F                    -0.206657
     35 C                     0.446414
     36 O                    -0.461234
     37 O                    -0.300964
     38 C                    -0.058416
     39 H                     0.121246
     40 H                     0.095140
     41 H                     0.094991
     42 H                     0.217392
  ----------------------------------------
  Sum of atomic charges =     0.000000

                    Cartesian Multipole Moments
 -----------------------------------------------------------------
    Charge (ESU x 10^10)
                 0.0000
    Dipole Moment (Debye)
         X       1.2882      Y       1.0075      Z       2.6985
       Tot       3.1554
    Quadrupole Moments (Debye-Ang)
        XX    -174.4113     XY       6.9492     YY    -162.9754
        XZ      -5.9514     YZ      -5.3557     ZZ    -206.0048

 Total job time:  310.77s(wall), 10014.93s(cpu)
        *  Thank you very much for using Q-Chem.  Have a nice day.  *
