 Q-Chem 5.4, Q-Chem, Inc., Pleasanton, CA (2021)
 Q-Chem 5.4.0 for Intel X86 EM64T Linux

User input:
--------------------------------------------------------------
$molecule
0 1
C	0.701193	-8.488892	0.318247
C	0.616742	-7.616807	-0.757333
S	0.640926	-7.611739	1.866383
C	0.496713	-6.245258	-0.380867
H	0.639132	-7.940593	-1.805573
C	0.478351	-6.054060	1.045647
C	0.391116	-4.771116	1.608077
C	0.423432	-5.145477	-1.282948
C	0.340289	-3.859847	-0.720187
C	0.319182	-3.670099	0.707853
O	0.424679	-5.483626	-2.602386
O	0.391967	-4.441795	2.933517
C	-0.135633	-5.361285	3.881999
H	-0.258024	-4.796434	4.825744
H	0.553241	-6.213521	4.070972
H	-1.123774	-5.757113	3.562152
C	0.778992	-4.521574	-3.588253
H	0.896118	-5.080975	-4.535674
H	1.738100	-4.016931	-3.342986
H	-0.013821	-3.755025	-3.728239
C	0.201385	-2.297846	1.080725
S	0.190142	-2.298676	-1.542694
C	0.125085	-1.429724	0.000000
H	0.176004	-1.970295	2.127635
H	0.800298	-9.580740	0.320559
C	0.000000	0.000000	0.000000
S	0.157577	0.890937	1.507541
C	0.429889	2.439720	0.718873
C	0.157797	0.890576	-1.067872
C	0.396915	2.260004	-0.686410
S	0.118307	0.650207	-2.805516
C	0.417036	2.376229	-3.054530
C	0.537616	3.074202	-1.862551
F	0.764992	4.391378	-1.819088
C	0.496696	2.817118	-4.456084
O	0.370874	2.057582	-5.406510
O	0.723861	4.148418	-4.569225
C	0.814976	4.635075	-5.916207
H	0.999286	5.720591	-5.833064
H	-0.125909	4.442226	-6.470168
H	1.645504	4.140465	-6.459293
H	0.588993	3.350182	1.306486
$end

$rem
JOBTYPE		SP
EXCHANGE	HF
CORRELATION	pRIMP2
BASIS		cc-pvtz
METHOD		rimp2
AUX_BASIS	rimp2-cc-pvtz
SOLVENT_METHOD	PCM
PURECART	11111
SYMMETRY	false
MEM_TOTAL	110000
SCF_CONVERGENCE = 6
THRESH=10
GUI = 2
$end

$solvent
dielectric 4.90
$end
--------------------------------------------------------------

             Standard Nuclear Orientation (Angstroms)
    I     Atom           X                Y                Z
 ----------------------------------------------------------------
    1      C       0.7011930000    -8.4888920000     0.3182470000
    2      C       0.6167420000    -7.6168070000    -0.7573330000
    3      S       0.6409260000    -7.6117390000     1.8663830000
    4      C       0.4967130000    -6.2452580000    -0.3808670000
    5      H       0.6391320000    -7.9405930000    -1.8055730000
    6      C       0.4783510000    -6.0540600000     1.0456470000
    7      C       0.3911160000    -4.7711160000     1.6080770000
    8      C       0.4234320000    -5.1454770000    -1.2829480000
    9      C       0.3402890000    -3.8598470000    -0.7201870000
   10      C       0.3191820000    -3.6700990000     0.7078530000
   11      O       0.4246790000    -5.4836260000    -2.6023860000
   12      O       0.3919670000    -4.4417950000     2.9335170000
   13      C      -0.1356330000    -5.3612850000     3.8819990000
   14      H      -0.2580240000    -4.7964340000     4.8257440000
   15      H       0.5532410000    -6.2135210000     4.0709720000
   16      H      -1.1237740000    -5.7571130000     3.5621520000
   17      C       0.7789920000    -4.5215740000    -3.5882530000
   18      H       0.8961180000    -5.0809750000    -4.5356740000
   19      H       1.7381000000    -4.0169310000    -3.3429860000
   20      H      -0.0138210000    -3.7550250000    -3.7282390000
   21      C       0.2013850000    -2.2978460000     1.0807250000
   22      S       0.1901420000    -2.2986760000    -1.5426940000
   23      C       0.1250850000    -1.4297240000     0.0000000000
   24      H       0.1760040000    -1.9702950000     2.1276350000
   25      H       0.8002980000    -9.5807400000     0.3205590000
   26      C       0.0000000000     0.0000000000     0.0000000000
   27      S       0.1575770000     0.8909370000     1.5075410000
   28      C       0.4298890000     2.4397200000     0.7188730000
   29      C       0.1577970000     0.8905760000    -1.0678720000
   30      C       0.3969150000     2.2600040000    -0.6864100000
   31      S       0.1183070000     0.6502070000    -2.8055160000
   32      C       0.4170360000     2.3762290000    -3.0545300000
   33      C       0.5376160000     3.0742020000    -1.8625510000
   34      F       0.7649920000     4.3913780000    -1.8190880000
   35      C       0.4966960000     2.8171180000    -4.4560840000
   36      O       0.3708740000     2.0575820000    -5.4065100000
   37      O       0.7238610000     4.1484180000    -4.5692250000
   38      C       0.8149760000     4.6350750000    -5.9162070000
   39      H       0.9992860000     5.7205910000    -5.8330640000
   40      H      -0.1259090000     4.4422260000    -6.4701680000
   41      H       1.6455040000     4.1404650000    -6.4592930000
   42      H       0.5889930000     3.3501820000     1.3064860000
 ----------------------------------------------------------------

   10   -2754.3116633497      7.64e-07  Convergence criterion met
 Total energy in the final basis set =    -2754.3116633497
        RIMP2         total energy =     -2759.3662125169 a.u.

                    Orbital Energies (a.u.)
 --------------------------------------------------------------

 Alpha MOs
 -- Occupied --
-92.0151 -91.9997 -91.9908 -91.9858 -26.3439 -20.6150 -20.5923 -20.5908
-20.5615 -11.4097 -11.3833 -11.3198 -11.3161 -11.3129 -11.3027 -11.3006
-11.2983 -11.2978 -11.2889 -11.2866 -11.2863 -11.2860 -11.2858 -11.2840
-11.2785 -11.2620 -11.2574 -11.2529 -11.2496  -9.0138  -8.9999  -8.9915
 -8.9858  -6.6946  -6.6940  -6.6934  -6.6808  -6.6801  -6.6790  -6.6724
 -6.6718  -6.6708  -6.6667  -6.6661  -6.6653  -1.6609  -1.4675  -1.4163
 -1.4136  -1.3702  -1.2235  -1.1944  -1.1658  -1.1371  -1.0862  -1.0518
 -1.0420  -1.0248  -1.0019  -0.9882  -0.9647  -0.9583  -0.9497  -0.9415
 -0.8957  -0.8687  -0.8515  -0.8158  -0.7924  -0.7879  -0.7853  -0.7650
 -0.7557  -0.7338  -0.7257  -0.7107  -0.6988  -0.6861  -0.6834  -0.6821
 -0.6740  -0.6592  -0.6584  -0.6523  -0.6309  -0.6195  -0.6165  -0.6031
 -0.5982  -0.5852  -0.5790  -0.5693  -0.5682  -0.5613  -0.5566  -0.5534
 -0.5326  -0.5292  -0.5238  -0.5205  -0.5182  -0.5116  -0.5062  -0.4946
 -0.4868  -0.4789  -0.4773  -0.4751  -0.4701  -0.4638  -0.4588  -0.4277
 -0.3927  -0.3859  -0.3617  -0.3522  -0.3246  -0.2914  -0.2475

          Ground-State Mulliken Net Atomic Charges

     Atom                 Charge (a.u.)
  ----------------------------------------
      1 C                    -0.191479
      2 C                    -0.253371
      3 S                    -0.023918
      4 C                    -0.018672
      5 H                     0.196323
      6 C                    -0.026488
      7 C                     0.236761
      8 C                     0.245012
      9 C                    -0.034728
     10 C                    -0.014785
     11 O                    -0.332672
     12 O                    -0.341194
     13 C                    -0.085565
     14 H                     0.122060
     15 H                     0.090994
     16 H                     0.093806
     17 C                    -0.089649
     18 H                     0.126231
     19 H                     0.095406
     20 H                     0.090736
     21 C                    -0.273540
     22 S                    -0.047734
     23 C                     0.028071
     24 H                     0.185214
     25 H                     0.206018
     26 C                     0.038058
     27 S                     0.089557
     28 C                    -0.181803
     29 C                    -0.009082
     30 C                    -0.120874
     31 S                     0.008263
     32 C                    -0.168723
     33 C                     0.413198
     34 F                    -0.206306
     35 C                     0.443908
     36 O                    -0.461271
     37 O                    -0.300884
     38 C                    -0.058632
     39 H                     0.121497
     40 H                     0.095215
     41 H                     0.095151
     42 H                     0.219892
  ----------------------------------------
  Sum of atomic charges =     0.000000

                    Cartesian Multipole Moments
 -----------------------------------------------------------------
    Charge (ESU x 10^10)
                 0.0000
    Dipole Moment (Debye)
         X       0.4221      Y       1.5090      Z       2.6442
       Tot       3.0737
    Quadrupole Moments (Debye-Ang)
        XX    -200.4481     XY       2.1512     YY    -161.7085
        XZ      -7.0131     YZ      -7.3396     ZZ    -182.2030

 Total job time:  306.28s(wall), 9516.54s(cpu)
        *  Thank you very much for using Q-Chem.  Have a nice day.  *
