 Q-Chem 5.4, Q-Chem, Inc., Pleasanton, CA (2021)
 Q-Chem 5.4.0 for Intel X86 EM64T Linux

User input:
--------------------------------------------------------------
$molecule
0 1
C	-0.070009	-8.517702	-0.313191
C	0.305494	-7.641575	0.694746
S	-0.614924	-7.638634	-1.762350
C	0.176768	-6.264785	0.340973
H	0.669571	-7.966081	1.677747
C	-0.309600	-6.072714	-1.000069
C	-0.525372	-4.787049	-1.520060
C	0.463825	-5.162801	1.196466
C	0.243888	-3.874817	0.677639
C	-0.240312	-3.683952	-0.665815
O	0.941626	-5.499772	2.426678
O	-1.006468	-4.459055	-2.755460
C	-0.761666	-5.329063	-3.853913
H	-1.016135	-4.755694	-4.765607
H	-1.401368	-6.238095	-3.822182
H	0.305161	-5.637262	-3.901833
C	0.868342	-4.572261	3.502489
H	1.128551	-5.139743	4.416005
H	-0.154712	-4.153131	3.613841
H	1.595605	-3.739531	3.386756
C	-0.369957	-2.306654	-1.015430
S	0.537898	-2.306501	1.445922
C	-0.000000	-1.435185	-0.000000
H	-0.731088	-1.978138	-1.998088
H	-0.074151	-9.614033	-0.314143
C	0.000000	0.000000	0.000000
S	0.157577	0.890937	1.507541
C	0.429889	2.439720	0.718873
C	0.157797	0.890576	-1.067872
C	0.396915	2.260004	-0.686410
S	0.118307	0.650207	-2.805516
C	0.417036	2.376229	-3.054530
C	0.537616	3.074202	-1.862551
F	0.764992	4.391378	-1.819088
C	0.496696	2.817118	-4.456084
O	0.370874	2.057582	-5.406510
O	0.723861	4.148418	-4.569225
C	0.814976	4.635075	-5.916207
H	0.999286	5.720591	-5.833064
H	-0.125909	4.442226	-6.470168
H	1.645504	4.140465	-6.459293
H	0.588993	3.350182	1.306486
$end

$rem
JOBTYPE		SP
EXCHANGE	HF
CORRELATION	pRIMP2
BASIS		cc-pvtz
METHOD		rimp2
AUX_BASIS	rimp2-cc-pvtz
SOLVENT_METHOD	PCM
PURECART	11111
SYMMETRY	false
MEM_TOTAL	110000
SCF_CONVERGENCE = 6
THRESH=10
GUI = 2
$end

$solvent
dielectric 4.90
$end
--------------------------------------------------------------

             Standard Nuclear Orientation (Angstroms)
    I     Atom           X                Y                Z
 ----------------------------------------------------------------
    1      C      -0.0700090000    -8.5177020000    -0.3131910000
    2      C       0.3054940000    -7.6415750000     0.6947460000
    3      S      -0.6149240000    -7.6386340000    -1.7623500000
    4      C       0.1767680000    -6.2647850000     0.3409730000
    5      H       0.6695710000    -7.9660810000     1.6777470000
    6      C      -0.3096000000    -6.0727140000    -1.0000690000
    7      C      -0.5253720000    -4.7870490000    -1.5200600000
    8      C       0.4638250000    -5.1628010000     1.1964660000
    9      C       0.2438880000    -3.8748170000     0.6776390000
   10      C      -0.2403120000    -3.6839520000    -0.6658150000
   11      O       0.9416260000    -5.4997720000     2.4266780000
   12      O      -1.0064680000    -4.4590550000    -2.7554600000
   13      C      -0.7616660000    -5.3290630000    -3.8539130000
   14      H      -1.0161350000    -4.7556940000    -4.7656070000
   15      H      -1.4013680000    -6.2380950000    -3.8221820000
   16      H       0.3051610000    -5.6372620000    -3.9018330000
   17      C       0.8683420000    -4.5722610000     3.5024890000
   18      H       1.1285510000    -5.1397430000     4.4160050000
   19      H      -0.1547120000    -4.1531310000     3.6138410000
   20      H       1.5956050000    -3.7395310000     3.3867560000
   21      C      -0.3699570000    -2.3066540000    -1.0154300000
   22      S       0.5378980000    -2.3065010000     1.4459220000
   23      C       0.0000000000    -1.4351850000     0.0000000000
   24      H      -0.7310880000    -1.9781380000    -1.9980880000
   25      H      -0.0741510000    -9.6140330000    -0.3141430000
   26      C       0.0000000000     0.0000000000     0.0000000000
   27      S       0.1575770000     0.8909370000     1.5075410000
   28      C       0.4298890000     2.4397200000     0.7188730000
   29      C       0.1577970000     0.8905760000    -1.0678720000
   30      C       0.3969150000     2.2600040000    -0.6864100000
   31      S       0.1183070000     0.6502070000    -2.8055160000
   32      C       0.4170360000     2.3762290000    -3.0545300000
   33      C       0.5376160000     3.0742020000    -1.8625510000
   34      F       0.7649920000     4.3913780000    -1.8190880000
   35      C       0.4966960000     2.8171180000    -4.4560840000
   36      O       0.3708740000     2.0575820000    -5.4065100000
   37      O       0.7238610000     4.1484180000    -4.5692250000
   38      C       0.8149760000     4.6350750000    -5.9162070000
   39      H       0.9992860000     5.7205910000    -5.8330640000
   40      H      -0.1259090000     4.4422260000    -6.4701680000
   41      H       1.6455040000     4.1404650000    -6.4592930000
   42      H       0.5889930000     3.3501820000     1.3064860000
 ----------------------------------------------------------------

   10   -2754.3151036556      7.44e-07  Convergence criterion met
 Total energy in the final basis set =    -2754.3151036556
        RIMP2         total energy =     -2759.3677889381 a.u.

                    Orbital Energies (a.u.)
 --------------------------------------------------------------

 Alpha MOs
 -- Occupied --
-92.0163 -91.9995 -91.9916 -91.9863 -26.3436 -20.6149 -20.5931 -20.5908
-20.5614 -11.4096 -11.3829 -11.3202 -11.3173 -11.3105 -11.3016 -11.3001
-11.2979 -11.2974 -11.2888 -11.2878 -11.2867 -11.2860 -11.2853 -11.2843
-11.2794 -11.2622 -11.2586 -11.2556 -11.2500  -9.0149  -8.9995  -8.9922
 -8.9862  -6.6957  -6.6952  -6.6946  -6.6805  -6.6797  -6.6786  -6.6732
 -6.6725  -6.6715  -6.6672  -6.6666  -6.6657  -1.6606  -1.4674  -1.4171
 -1.4136  -1.3701  -1.2223  -1.1951  -1.1664  -1.1369  -1.0857  -1.0523
 -1.0421  -1.0238  -1.0021  -0.9887  -0.9642  -0.9600  -0.9506  -0.9394
 -0.8967  -0.8683  -0.8524  -0.8085  -0.7990  -0.7882  -0.7863  -0.7644
 -0.7555  -0.7345  -0.7254  -0.7101  -0.7021  -0.6857  -0.6836  -0.6810
 -0.6739  -0.6595  -0.6587  -0.6524  -0.6309  -0.6199  -0.6171  -0.6025
 -0.5984  -0.5860  -0.5790  -0.5710  -0.5654  -0.5603  -0.5557  -0.5497
 -0.5359  -0.5306  -0.5226  -0.5195  -0.5173  -0.5116  -0.5053  -0.4954
 -0.4875  -0.4810  -0.4772  -0.4743  -0.4696  -0.4662  -0.4610  -0.4253
 -0.3966  -0.3846  -0.3607  -0.3491  -0.3270  -0.2900  -0.2509

          Ground-State Mulliken Net Atomic Charges

     Atom                 Charge (a.u.)
  ----------------------------------------
      1 C                    -0.189492
      2 C                    -0.254464
      3 S                    -0.021575
      4 C                    -0.015800
      5 H                     0.196126
      6 C                    -0.027282
      7 C                     0.244831
      8 C                     0.240564
      9 C                    -0.041395
     10 C                    -0.027375
     11 O                    -0.332841
     12 O                    -0.340475
     13 C                    -0.086218
     14 H                     0.123528
     15 H                     0.091344
     16 H                     0.093918
     17 C                    -0.088232
     18 H                     0.125812
     19 H                     0.094900
     20 H                     0.089623
     21 C                    -0.229949
     22 S                    -0.033806
     23 C                    -0.027503
     24 H                     0.192363
     25 H                     0.206315
     26 C                     0.007129
     27 S                     0.078147
     28 C                    -0.181812
     29 C                     0.038560
     30 C                    -0.123107
     31 S                     0.005595
     32 C                    -0.158908
     33 C                     0.400838
     34 F                    -0.206328
     35 C                     0.445154
     36 O                    -0.460840
     37 O                    -0.300724
     38 C                    -0.058619
     39 H                     0.121449
     40 H                     0.095184
     41 H                     0.095149
     42 H                     0.220215
  ----------------------------------------
  Sum of atomic charges =     0.000000

                    Cartesian Multipole Moments
 -----------------------------------------------------------------
    Charge (ESU x 10^10)
                 0.0000
    Dipole Moment (Debye)
         X       0.7748      Y       1.1550      Z       3.0269
       Tot       3.3311
    Quadrupole Moments (Debye-Ang)
        XX    -201.4502     XY       1.5220     YY    -159.9772
        XZ       1.6238     YZ      -6.8812     ZZ    -181.2656

 Total job time:  514.45s(wall), 10699.72s(cpu)
        *  Thank you very much for using Q-Chem.  Have a nice day.  *
