 Q-Chem 5.4, Q-Chem, Inc., Pleasanton, CA (2021)
 Q-Chem 5.4.0 for Intel X86 EM64T Linux

User input:
--------------------------------------------------------------
$molecule
0 1
C	-0.284919	-8.517702	-0.147685
C	0.728574	-7.641575	0.212552
S	-1.745304	-7.638634	-0.661757
C	0.374824	-6.264785	0.083761
H	1.715621	-7.966081	0.565513
C	-0.965104	-6.072714	-0.405665
C	-1.502136	-4.787049	-0.574617
C	1.214687	-5.162801	0.413763
C	0.675870	-3.874817	0.248748
C	-0.664513	-3.683952	-0.243888
O	2.464209	-5.499772	0.838511
O	-2.757750	-4.459055	-1.000176
C	-3.441858	-5.329063	-1.893778
H	-4.303826	-4.755694	-2.284868
H	-3.828743	-6.238095	-1.383341
H	-2.792824	-5.637262	-2.741817
C	3.241222	-4.572261	1.586168
H	4.108274	-5.139743	1.974033
H	2.668916	-4.153131	2.441448
H	3.620041	-3.739531	0.954660
C	-1.015668	-2.306654	-0.369302
S	1.453394	-2.306501	0.517367
C	-0.000000	-1.435185	-0.000000
H	-2.000559	-1.978138	-0.724300
H	-0.288311	-9.614033	-0.145124
C	0.000000	0.000000	0.000000
S	0.382799	0.819795	1.507541
C	1.046687	2.245325	0.718873
C	0.382918	0.819389	-1.067872
C	0.968323	2.080267	-0.686410
S	0.282561	0.597432	-2.805516
C	1.017839	2.187324	-3.054530
C	1.314960	2.830306	-1.862551
F	1.875498	4.043751	-1.819088
C	1.208895	2.592573	-4.456084
O	0.890778	1.891482	-5.406510
O	1.772886	3.819715	-4.569225
C	1.986852	4.266207	-5.916207
H	2.445834	5.267032	-5.833064
H	1.028114	4.323448	-6.470168
H	2.661066	3.573494	-6.459293
H	1.436015	3.083584	1.306486
$end

$rem
JOBTYPE		SP
EXCHANGE	HF
CORRELATION	pRIMP2
BASIS		cc-pvtz
METHOD		rimp2
AUX_BASIS	rimp2-cc-pvtz
SOLVENT_METHOD	PCM
PURECART	11111
SYMMETRY	false
MEM_TOTAL	110000
SCF_CONVERGENCE = 6
THRESH=10
GUI = 2
$end

$solvent
dielectric 4.90
$end
--------------------------------------------------------------

             Standard Nuclear Orientation (Angstroms)
    I     Atom           X                Y                Z
 ----------------------------------------------------------------
    1      C      -0.2849190000    -8.5177020000    -0.1476850000
    2      C       0.7285740000    -7.6415750000     0.2125520000
    3      S      -1.7453040000    -7.6386340000    -0.6617570000
    4      C       0.3748240000    -6.2647850000     0.0837610000
    5      H       1.7156210000    -7.9660810000     0.5655130000
    6      C      -0.9651040000    -6.0727140000    -0.4056650000
    7      C      -1.5021360000    -4.7870490000    -0.5746170000
    8      C       1.2146870000    -5.1628010000     0.4137630000
    9      C       0.6758700000    -3.8748170000     0.2487480000
   10      C      -0.6645130000    -3.6839520000    -0.2438880000
   11      O       2.4642090000    -5.4997720000     0.8385110000
   12      O      -2.7577500000    -4.4590550000    -1.0001760000
   13      C      -3.4418580000    -5.3290630000    -1.8937780000
   14      H      -4.3038260000    -4.7556940000    -2.2848680000
   15      H      -3.8287430000    -6.2380950000    -1.3833410000
   16      H      -2.7928240000    -5.6372620000    -2.7418170000
   17      C       3.2412220000    -4.5722610000     1.5861680000
   18      H       4.1082740000    -5.1397430000     1.9740330000
   19      H       2.6689160000    -4.1531310000     2.4414480000
   20      H       3.6200410000    -3.7395310000     0.9546600000
   21      C      -1.0156680000    -2.3066540000    -0.3693020000
   22      S       1.4533940000    -2.3065010000     0.5173670000
   23      C       0.0000000000    -1.4351850000     0.0000000000
   24      H      -2.0005590000    -1.9781380000    -0.7243000000
   25      H      -0.2883110000    -9.6140330000    -0.1451240000
   26      C       0.0000000000     0.0000000000     0.0000000000
   27      S       0.3827990000     0.8197950000     1.5075410000
   28      C       1.0466870000     2.2453250000     0.7188730000
   29      C       0.3829180000     0.8193890000    -1.0678720000
   30      C       0.9683230000     2.0802670000    -0.6864100000
   31      S       0.2825610000     0.5974320000    -2.8055160000
   32      C       1.0178390000     2.1873240000    -3.0545300000
   33      C       1.3149600000     2.8303060000    -1.8625510000
   34      F       1.8754980000     4.0437510000    -1.8190880000
   35      C       1.2088950000     2.5925730000    -4.4560840000
   36      O       0.8907780000     1.8914820000    -5.4065100000
   37      O       1.7728860000     3.8197150000    -4.5692250000
   38      C       1.9868520000     4.2662070000    -5.9162070000
   39      H       2.4458340000     5.2670320000    -5.8330640000
   40      H       1.0281140000     4.3234480000    -6.4701680000
   41      H       2.6610660000     3.5734940000    -6.4592930000
   42      H       1.4360150000     3.0835840000     1.3064860000
 ----------------------------------------------------------------

   10   -2754.3040720149      7.29e-07  Convergence criterion met
 Total energy in the final basis set =    -2754.3040720149
        RIMP2         total energy =     -2759.3561185052 a.u.

                    Orbital Energies (a.u.)
 --------------------------------------------------------------

 Alpha MOs
 -- Occupied --
-92.0140 -91.9986 -91.9886 -91.9860 -26.3431 -20.6144 -20.5922 -20.5909
-20.5607 -11.4089 -11.3823 -11.3188 -11.3172 -11.3132 -11.3037 -11.2966
-11.2923 -11.2911 -11.2886 -11.2871 -11.2856 -11.2853 -11.2842 -11.2835
-11.2795 -11.2595 -11.2585 -11.2545 -11.2497  -9.0127  -8.9985  -8.9891
 -8.9859  -6.6934  -6.6928  -6.6923  -6.6795  -6.6788  -6.6777  -6.6700
 -6.6693  -6.6683  -6.6669  -6.6663  -6.6654  -1.6602  -1.4668  -1.4163
 -1.4137  -1.3695  -1.2219  -1.1936  -1.1649  -1.1359  -1.0839  -1.0513
 -1.0414  -1.0225  -1.0010  -0.9872  -0.9617  -0.9606  -0.9501  -0.9384
 -0.8955  -0.8674  -0.8500  -0.8091  -0.7945  -0.7876  -0.7860  -0.7644
 -0.7550  -0.7333  -0.7251  -0.7095  -0.7009  -0.6847  -0.6826  -0.6803
 -0.6735  -0.6589  -0.6574  -0.6523  -0.6299  -0.6196  -0.6171  -0.6050
 -0.5978  -0.5868  -0.5768  -0.5691  -0.5657  -0.5609  -0.5551  -0.5443
 -0.5344  -0.5306  -0.5225  -0.5156  -0.5150  -0.5096  -0.5038  -0.4938
 -0.4891  -0.4801  -0.4743  -0.4734  -0.4694  -0.4667  -0.4616  -0.4082
 -0.3960  -0.3862  -0.3561  -0.3505  -0.3146  -0.2981  -0.2576

          Ground-State Mulliken Net Atomic Charges

     Atom                 Charge (a.u.)
  ----------------------------------------
      1 C                    -0.188788
      2 C                    -0.254726
      3 S                    -0.022551
      4 C                    -0.014422
      5 H                     0.196137
      6 C                    -0.027336
      7 C                     0.241243
      8 C                     0.240119
      9 C                    -0.042873
     10 C                    -0.023833
     11 O                    -0.333329
     12 O                    -0.340006
     13 C                    -0.085812
     14 H                     0.122673
     15 H                     0.090749
     16 H                     0.094285
     17 C                    -0.086583
     18 H                     0.124884
     19 H                     0.094192
     20 H                     0.089963
     21 C                    -0.222430
     22 S                    -0.002156
     23 C                    -0.068666
     24 H                     0.198190
     25 H                     0.206284
     26 C                    -0.022942
     27 S                     0.104094
     28 C                    -0.176726
     29 C                     0.005138
     30 C                    -0.093347
     31 S                     0.013941
     32 C                    -0.151858
     33 C                     0.388463
     34 F                    -0.206387
     35 C                     0.446204
     36 O                    -0.461281
     37 O                    -0.300999
     38 C                    -0.058425
     39 H                     0.121223
     40 H                     0.095046
     41 H                     0.095052
     42 H                     0.217600
  ----------------------------------------
  Sum of atomic charges =     0.000000

                    Cartesian Multipole Moments
 -----------------------------------------------------------------
    Charge (ESU x 10^10)
                -0.0000
    Dipole Moment (Debye)
         X       1.4555      Y       1.0641      Z       2.7668
       Tot       3.3024
    Quadrupole Moments (Debye-Ang)
        XX    -181.7439     XY       5.9865     YY    -163.1976
        XZ       8.5673     YZ      -5.1674     ZZ    -198.7634

 Total job time:  304.59s(wall), 9925.93s(cpu)
        *  Thank you very much for using Q-Chem.  Have a nice day.  *
