 Q-Chem 5.4, Q-Chem, Inc., Pleasanton, CA (2021)
 Q-Chem 5.4.0 for Intel X86 EM64T Linux

User input:
--------------------------------------------------------------
$molecule
0 1
C	0.095966	-8.517702	-0.306235
C	-0.082807	-7.641575	0.754415
S	0.348635	-7.638634	-1.833702
C	-0.017401	-6.264785	0.383675
H	-0.259008	-7.966081	1.787757
C	0.231913	-6.072714	-1.020885
C	0.305044	-4.787049	-1.579097
C	-0.196549	-5.162801	1.268082
C	-0.127606	-3.874817	0.708796
C	0.124792	-3.683952	-0.696769
O	-0.397867	-5.499772	2.572378
O	0.506103	-4.459055	-2.889532
C	1.267335	-5.329063	-3.718420
H	1.502804	-4.755694	-4.635204
H	0.697471	-6.238095	-4.010790
H	2.215194	-5.637262	-3.226506
C	-0.999238	-4.572261	3.467415
H	-1.230649	-5.139743	4.388648
H	-1.940905	-4.153131	3.052323
H	-0.311543	-3.739531	3.730819
C	0.187323	-2.306654	-1.064366
S	-0.257128	-2.306501	1.521154
C	-0.000000	-1.435185	-0.000000
H	0.365903	-1.978138	-2.095939
H	0.092855	-9.614033	-0.309131
C	0.000000	0.000000	0.000000
S	0.581934	0.692785	1.507541
C	1.592155	1.897915	0.718873
C	0.581944	0.692363	-1.067872
C	1.473741	1.758764	-0.686410
S	0.427560	0.503942	-2.805516
C	1.549278	1.849357	-3.054530
C	2.002690	2.393529	-1.862551
F	2.858191	3.420549	-1.819088
C	1.838710	2.191348	-4.456084
O	1.349977	1.596481	-5.406510
O	2.701091	3.230705	-4.569225
C	3.023327	3.606605	-5.916207
H	3.725703	4.454534	-5.833064
H	2.112072	3.910035	-6.470168
H	3.495281	2.762996	-6.459293
H	2.185174	2.606846	1.306486
$end

$rem
JOBTYPE		SP
EXCHANGE	HF
CORRELATION	pRIMP2
BASIS		cc-pvtz
METHOD		rimp2
AUX_BASIS	rimp2-cc-pvtz
SOLVENT_METHOD	PCM
PURECART	11111
SYMMETRY	false
MEM_TOTAL	110000
SCF_CONVERGENCE = 6
THRESH=10
GUI = 2
$end

$solvent
dielectric 4.90
$end
--------------------------------------------------------------

             Standard Nuclear Orientation (Angstroms)
    I     Atom           X                Y                Z
 ----------------------------------------------------------------
    1      C       0.0959660000    -8.5177020000    -0.3062350000
    2      C      -0.0828070000    -7.6415750000     0.7544150000
    3      S       0.3486350000    -7.6386340000    -1.8337020000
    4      C      -0.0174010000    -6.2647850000     0.3836750000
    5      H      -0.2590080000    -7.9660810000     1.7877570000
    6      C       0.2319130000    -6.0727140000    -1.0208850000
    7      C       0.3050440000    -4.7870490000    -1.5790970000
    8      C      -0.1965490000    -5.1628010000     1.2680820000
    9      C      -0.1276060000    -3.8748170000     0.7087960000
   10      C       0.1247920000    -3.6839520000    -0.6967690000
   11      O      -0.3978670000    -5.4997720000     2.5723780000
   12      O       0.5061030000    -4.4590550000    -2.8895320000
   13      C       1.2673350000    -5.3290630000    -3.7184200000
   14      H       1.5028040000    -4.7556940000    -4.6352040000
   15      H       0.6974710000    -6.2380950000    -4.0107900000
   16      H       2.2151940000    -5.6372620000    -3.2265060000
   17      C      -0.9992380000    -4.5722610000     3.4674150000
   18      H      -1.2306490000    -5.1397430000     4.3886480000
   19      H      -1.9409050000    -4.1531310000     3.0523230000
   20      H      -0.3115430000    -3.7395310000     3.7308190000
   21      C       0.1873230000    -2.3066540000    -1.0643660000
   22      S      -0.2571280000    -2.3065010000     1.5211540000
   23      C       0.0000000000    -1.4351850000     0.0000000000
   24      H       0.3659030000    -1.9781380000    -2.0959390000
   25      H       0.0928550000    -9.6140330000    -0.3091310000
   26      C       0.0000000000     0.0000000000     0.0000000000
   27      S       0.5819340000     0.6927850000     1.5075410000
   28      C       1.5921550000     1.8979150000     0.7188730000
   29      C       0.5819440000     0.6923630000    -1.0678720000
   30      C       1.4737410000     1.7587640000    -0.6864100000
   31      S       0.4275600000     0.5039420000    -2.8055160000
   32      C       1.5492780000     1.8493570000    -3.0545300000
   33      C       2.0026900000     2.3935290000    -1.8625510000
   34      F       2.8581910000     3.4205490000    -1.8190880000
   35      C       1.8387100000     2.1913480000    -4.4560840000
   36      O       1.3499770000     1.5964810000    -5.4065100000
   37      O       2.7010910000     3.2307050000    -4.5692250000
   38      C       3.0233270000     3.6066050000    -5.9162070000
   39      H       3.7257030000     4.4545340000    -5.8330640000
   40      H       2.1120720000     3.9100350000    -6.4701680000
   41      H       3.4952810000     2.7629960000    -6.4592930000
   42      H       2.1851740000     2.6068460000     1.3064860000
 ----------------------------------------------------------------

   10   -2754.2852895084      7.51e-07  Convergence criterion met
 Total energy in the final basis set =    -2754.2852895084
        RIMP2         total energy =     -2759.3453150412 a.u.

                    Orbital Energies (a.u.)
 --------------------------------------------------------------

 Alpha MOs
 -- Occupied --
-92.0161 -92.0055 -91.9869 -91.9843 -26.3454 -20.6156 -20.5917 -20.5882
-20.5621 -11.4105 -11.3856 -11.3234 -11.3181 -11.3126 -11.3105 -11.2988
-11.2973 -11.2897 -11.2894 -11.2884 -11.2869 -11.2840 -11.2823 -11.2821
-11.2764 -11.2592 -11.2546 -11.2484 -11.2442  -9.0153  -9.0054  -8.9878
 -8.9842  -6.6960  -6.6953  -6.6948  -6.6863  -6.6856  -6.6845  -6.6688
 -6.6681  -6.6672  -6.6652  -6.6646  -6.6637  -1.6624  -1.4681  -1.4157
 -1.4110  -1.3709  -1.2282  -1.1920  -1.1650  -1.1391  -1.0852  -1.0497
 -1.0444  -1.0263  -0.9989  -0.9878  -0.9652  -0.9588  -0.9492  -0.9397
 -0.8946  -0.8707  -0.8483  -0.8105  -0.7985  -0.7879  -0.7840  -0.7625
 -0.7561  -0.7321  -0.7272  -0.7125  -0.7006  -0.6865  -0.6823  -0.6815
 -0.6747  -0.6597  -0.6579  -0.6507  -0.6297  -0.6181  -0.6158  -0.6040
 -0.6009  -0.5808  -0.5804  -0.5707  -0.5645  -0.5605  -0.5577  -0.5456
 -0.5344  -0.5306  -0.5227  -0.5172  -0.5152  -0.5101  -0.5048  -0.4954
 -0.4869  -0.4821  -0.4770  -0.4746  -0.4695  -0.4624  -0.4579  -0.4262
 -0.3940  -0.3822  -0.3616  -0.3476  -0.3280  -0.2893  -0.2473

          Ground-State Mulliken Net Atomic Charges

     Atom                 Charge (a.u.)
  ----------------------------------------
      1 C                    -0.195671
      2 C                    -0.253774
      3 S                    -0.025530
      4 C                    -0.021802
      5 H                     0.195403
      6 C                    -0.025320
      7 C                     0.236598
      8 C                     0.246226
      9 C                    -0.045816
     10 C                    -0.015853
     11 O                    -0.333291
     12 O                    -0.341826
     13 C                    -0.086249
     14 H                     0.122751
     15 H                     0.090917
     16 H                     0.092747
     17 C                    -0.088056
     18 H                     0.125682
     19 H                     0.094843
     20 H                     0.089038
     21 C                    -0.250052
     22 S                    -0.044892
     23 C                    -0.009422
     24 H                     0.188261
     25 H                     0.205211
     26 C                    -0.035435
     27 S                     0.106964
     28 C                    -0.166130
     29 C                     0.003272
     30 C                    -0.101054
     31 S                     0.044349
     32 C                    -0.161947
     33 C                     0.403503
     34 F                    -0.204827
     35 C                     0.447552
     36 O                    -0.460994
     37 O                    -0.301032
     38 C                    -0.058286
     39 H                     0.121584
     40 H                     0.095369
     41 H                     0.095220
     42 H                     0.221768
  ----------------------------------------
  Sum of atomic charges =     0.000000

                    Cartesian Multipole Moments
 -----------------------------------------------------------------
    Charge (ESU x 10^10)
                -0.0000
    Dipole Moment (Debye)
         X       2.5391      Y       2.1441      Z       3.0793
       Tot       4.5306
    Quadrupole Moments (Debye-Ang)
        XX    -190.9686     XY       7.3732     YY    -172.2479
        XZ     -13.7741     YZ      -6.6036     ZZ    -184.4277

 Total job time:  313.58s(wall), 9538.86s(cpu)
        *  Thank you very much for using Q-Chem.  Have a nice day.  *
