 Q-Chem 5.4, Q-Chem, Inc., Pleasanton, CA (2021)
 Q-Chem 5.4.0 for Intel X86 EM64T Linux

User input:
--------------------------------------------------------------
$molecule
0 1
C	-0.123330	-8.517702	-0.296276
C	0.421494	-7.641575	0.631143
S	-0.911611	-7.638634	-1.628795
C	0.233291	-6.264785	0.305097
H	0.950737	-7.966081	1.535988
C	-0.478557	-6.072714	-0.931114
C	-0.781346	-4.787049	-1.405737
C	0.664542	-5.162801	1.097747
C	0.357854	-3.874817	0.624993
C	-0.352278	-3.683952	-0.613970
O	1.348709	-5.499772	2.226300
O	-1.469658	-4.459055	-2.538827
C	-1.419319	-5.329063	-3.663102
H	-1.828237	-4.755694	-4.516756
H	-2.043793	-6.238095	-3.520769
H	-0.377021	-5.637262	-3.895546
C	1.463351	-4.572261	3.298492
H	1.878237	-5.139743	4.152945
H	0.475176	-4.153131	3.585804
H	2.159469	-3.739531	3.058230
C	-0.540664	-2.306654	-0.935761
S	0.780808	-2.306501	1.330550
C	-0.000000	-1.435185	-0.000000
H	-1.066946	-1.978138	-1.840780
H	-0.127575	-9.614033	-0.296494
C	0.000000	0.000000	0.000000
S	0.157577	0.890937	1.507541
C	0.429889	2.439720	0.718873
C	0.157797	0.890576	-1.067872
C	0.396915	2.260004	-0.686410
S	0.118307	0.650207	-2.805516
C	0.417036	2.376229	-3.054530
C	0.537616	3.074202	-1.862551
F	0.764992	4.391378	-1.819088
C	0.496696	2.817118	-4.456084
O	0.370874	2.057582	-5.406510
O	0.723861	4.148418	-4.569225
C	0.814976	4.635075	-5.916207
H	0.999286	5.720591	-5.833064
H	-0.125909	4.442226	-6.470168
H	1.645504	4.140465	-6.459293
H	0.588993	3.350182	1.306486
$end

$rem
JOBTYPE		SP
EXCHANGE	HF
CORRELATION	pRIMP2
BASIS		cc-pvtz
METHOD		rimp2
AUX_BASIS	rimp2-cc-pvtz
SOLVENT_METHOD	PCM
PURECART	11111
SYMMETRY	false
MEM_TOTAL	110000
SCF_CONVERGENCE = 6
THRESH=10
GUI = 2
$end

$solvent
dielectric 4.90
$end
--------------------------------------------------------------

             Standard Nuclear Orientation (Angstroms)
    I     Atom           X                Y                Z
 ----------------------------------------------------------------
    1      C      -0.1233300000    -8.5177020000    -0.2962760000
    2      C       0.4214940000    -7.6415750000     0.6311430000
    3      S      -0.9116110000    -7.6386340000    -1.6287950000
    4      C       0.2332910000    -6.2647850000     0.3050970000
    5      H       0.9507370000    -7.9660810000     1.5359880000
    6      C      -0.4785570000    -6.0727140000    -0.9311140000
    7      C      -0.7813460000    -4.7870490000    -1.4057370000
    8      C       0.6645420000    -5.1628010000     1.0977470000
    9      C       0.3578540000    -3.8748170000     0.6249930000
   10      C      -0.3522780000    -3.6839520000    -0.6139700000
   11      O       1.3487090000    -5.4997720000     2.2263000000
   12      O      -1.4696580000    -4.4590550000    -2.5388270000
   13      C      -1.4193190000    -5.3290630000    -3.6631020000
   14      H      -1.8282370000    -4.7556940000    -4.5167560000
   15      H      -2.0437930000    -6.2380950000    -3.5207690000
   16      H      -0.3770210000    -5.6372620000    -3.8955460000
   17      C       1.4633510000    -4.5722610000     3.2984920000
   18      H       1.8782370000    -5.1397430000     4.1529450000
   19      H       0.4751760000    -4.1531310000     3.5858040000
   20      H       2.1594690000    -3.7395310000     3.0582300000
   21      C      -0.5406640000    -2.3066540000    -0.9357610000
   22      S       0.7808080000    -2.3065010000     1.3305500000
   23      C       0.0000000000    -1.4351850000     0.0000000000
   24      H      -1.0669460000    -1.9781380000    -1.8407800000
   25      H      -0.1275750000    -9.6140330000    -0.2964940000
   26      C       0.0000000000     0.0000000000     0.0000000000
   27      S       0.1575770000     0.8909370000     1.5075410000
   28      C       0.4298890000     2.4397200000     0.7188730000
   29      C       0.1577970000     0.8905760000    -1.0678720000
   30      C       0.3969150000     2.2600040000    -0.6864100000
   31      S       0.1183070000     0.6502070000    -2.8055160000
   32      C       0.4170360000     2.3762290000    -3.0545300000
   33      C       0.5376160000     3.0742020000    -1.8625510000
   34      F       0.7649920000     4.3913780000    -1.8190880000
   35      C       0.4966960000     2.8171180000    -4.4560840000
   36      O       0.3708740000     2.0575820000    -5.4065100000
   37      O       0.7238610000     4.1484180000    -4.5692250000
   38      C       0.8149760000     4.6350750000    -5.9162070000
   39      H       0.9992860000     5.7205910000    -5.8330640000
   40      H      -0.1259090000     4.4422260000    -6.4701680000
   41      H       1.6455040000     4.1404650000    -6.4592930000
   42      H       0.5889930000     3.3501820000     1.3064860000
 ----------------------------------------------------------------

   10   -2754.3152283477      7.29e-07  Convergence criterion met
 Total energy in the final basis set =    -2754.3152283477
        RIMP2         total energy =     -2759.3672795860 a.u.

                    Orbital Energies (a.u.)
 --------------------------------------------------------------

 Alpha MOs
 -- Occupied --
-92.0160 -91.9988 -91.9916 -91.9863 -26.3433 -20.6148 -20.5930 -20.5909
-20.5613 -11.4094 -11.3825 -11.3200 -11.3173 -11.3101 -11.3012 -11.3000
-11.2976 -11.2967 -11.2888 -11.2878 -11.2865 -11.2856 -11.2854 -11.2842
-11.2795 -11.2619 -11.2587 -11.2556 -11.2500  -9.0146  -8.9987  -8.9921
 -8.9862  -6.6954  -6.6948  -6.6942  -6.6797  -6.6790  -6.6779  -6.6731
 -6.6724  -6.6714  -6.6672  -6.6666  -6.6657  -1.6604  -1.4672  -1.4170
 -1.4137  -1.3699  -1.2219  -1.1949  -1.1662  -1.1366  -1.0855  -1.0522
 -1.0418  -1.0234  -1.0020  -0.9885  -0.9638  -0.9600  -0.9505  -0.9392
 -0.8966  -0.8680  -0.8522  -0.8083  -0.7985  -0.7878  -0.7865  -0.7645
 -0.7554  -0.7343  -0.7252  -0.7098  -0.7020  -0.6854  -0.6834  -0.6807
 -0.6738  -0.6594  -0.6583  -0.6524  -0.6307  -0.6199  -0.6172  -0.6031
 -0.5981  -0.5861  -0.5785  -0.5707  -0.5656  -0.5600  -0.5555  -0.5491
 -0.5357  -0.5306  -0.5224  -0.5185  -0.5169  -0.5113  -0.5051  -0.4952
 -0.4877  -0.4806  -0.4766  -0.4741  -0.4692  -0.4673  -0.4614  -0.4224
 -0.3964  -0.3850  -0.3597  -0.3496  -0.3255  -0.2906  -0.2519

          Ground-State Mulliken Net Atomic Charges

     Atom                 Charge (a.u.)
  ----------------------------------------
      1 C                    -0.189310
      2 C                    -0.254276
      3 S                    -0.021680
      4 C                    -0.015427
      5 H                     0.196166
      6 C                    -0.027035
      7 C                     0.243042
      8 C                     0.239836
      9 C                    -0.043371
     10 C                    -0.025121
     11 O                    -0.332841
     12 O                    -0.340222
     13 C                    -0.085954
     14 H                     0.123366
     15 H                     0.091031
     16 H                     0.094048
     17 C                    -0.087944
     18 H                     0.125538
     19 H                     0.094755
     20 H                     0.089741
     21 C                    -0.239236
     22 S                    -0.025140
     23 C                    -0.028577
     24 H                     0.196411
     25 H                     0.206334
     26 C                     0.003159
     27 S                     0.081818
     28 C                    -0.181551
     29 C                     0.032740
     30 C                    -0.117879
     31 S                     0.006377
     32 C                    -0.155038
     33 C                     0.396404
     34 F                    -0.206529
     35 C                     0.445279
     36 O                    -0.460741
     37 O                    -0.300671
     38 C                    -0.058596
     39 H                     0.121394
     40 H                     0.095126
     41 H                     0.095126
     42 H                     0.219452
  ----------------------------------------
  Sum of atomic charges =     0.000000

                    Cartesian Multipole Moments
 -----------------------------------------------------------------
    Charge (ESU x 10^10)
                 0.0000
    Dipole Moment (Debye)
         X       0.7719      Y       1.0942      Z       2.9796
       Tot       3.2667
    Quadrupole Moments (Debye-Ang)
        XX    -199.7011     XY       1.6088     YY    -160.0585
        XZ       5.6848     YZ      -6.5985     ZZ    -183.0960

 Total job time:  306.99s(wall), 9659.99s(cpu)
        *  Thank you very much for using Q-Chem.  Have a nice day.  *
