 Q-Chem 5.4, Q-Chem, Inc., Pleasanton, CA (2021)
 Q-Chem 5.4.0 for Intel X86 EM64T Linux

User input:
--------------------------------------------------------------
$molecule
0 1
C	-0.217225	-8.517702	-0.236226
C	0.611939	-7.641575	0.448921
S	-1.413715	-7.638634	-1.218777
C	0.323572	-6.264785	0.206907
H	1.418739	-7.966081	1.118185
C	-0.768156	-6.072714	-0.711285
C	-1.215016	-4.787049	-1.053725
C	0.999917	-5.162801	0.804258
C	0.550033	-3.874817	0.464908
C	-0.541024	-3.683952	-0.456457
O	2.028811	-5.499772	1.630752
O	-2.249357	-4.459055	-1.883064
C	-2.586579	-5.329063	-2.956754
H	-3.262802	-4.755694	-3.619069
H	-3.124711	-6.238095	-2.609423
H	-1.686639	-5.637262	-3.531667
C	2.503251	-4.572261	2.599073
H	3.185356	-5.139743	3.260097
H	1.672937	-4.153131	3.207034
H	3.075213	-3.739531	2.135214
C	-0.828107	-2.306654	-0.694410
S	1.188794	-2.306501	0.983256
C	0.000000	-1.435185	0.000000
H	-1.632185	-1.978138	-1.364851
H	-0.221288	-9.614033	-0.234980
C	0.000000	0.000000	0.000000
S	0.234628	0.873813	1.507541
C	0.640889	2.392969	0.718873
C	0.234815	0.873434	-1.067872
C	0.592377	2.216811	-0.686410
S	0.174526	0.637422	-2.805516
C	0.622551	2.330840	-3.054530
C	0.803505	3.015647	-1.862551
F	1.144815	4.307994	-1.819088
C	0.740334	2.763108	-4.456084
O	0.548793	2.017428	-5.406510
O	1.082665	4.069544	-4.569225
C	1.215848	4.546407	-5.916207
H	1.494066	5.611729	-5.833064
H	0.261736	4.436296	-6.470168
H	2.000108	3.981294	-6.459293
H	0.878739	3.286099	1.306486
$end

$rem
JOBTYPE		SP
EXCHANGE	HF
CORRELATION	pRIMP2
BASIS		cc-pvtz
METHOD		rimp2
AUX_BASIS	rimp2-cc-pvtz
SOLVENT_METHOD	PCM
PURECART	11111
SYMMETRY	false
MEM_TOTAL	110000
SCF_CONVERGENCE = 6
THRESH=10
GUI = 2
$end

$solvent
dielectric 4.90
$end
--------------------------------------------------------------

             Standard Nuclear Orientation (Angstroms)
    I     Atom           X                Y                Z
 ----------------------------------------------------------------
    1      C      -0.2172250000    -8.5177020000    -0.2362260000
    2      C       0.6119390000    -7.6415750000     0.4489210000
    3      S      -1.4137150000    -7.6386340000    -1.2187770000
    4      C       0.3235720000    -6.2647850000     0.2069070000
    5      H       1.4187390000    -7.9660810000     1.1181850000
    6      C      -0.7681560000    -6.0727140000    -0.7112850000
    7      C      -1.2150160000    -4.7870490000    -1.0537250000
    8      C       0.9999170000    -5.1628010000     0.8042580000
    9      C       0.5500330000    -3.8748170000     0.4649080000
   10      C      -0.5410240000    -3.6839520000    -0.4564570000
   11      O       2.0288110000    -5.4997720000     1.6307520000
   12      O      -2.2493570000    -4.4590550000    -1.8830640000
   13      C      -2.5865790000    -5.3290630000    -2.9567540000
   14      H      -3.2628020000    -4.7556940000    -3.6190690000
   15      H      -3.1247110000    -6.2380950000    -2.6094230000
   16      H      -1.6866390000    -5.6372620000    -3.5316670000
   17      C       2.5032510000    -4.5722610000     2.5990730000
   18      H       3.1853560000    -5.1397430000     3.2600970000
   19      H       1.6729370000    -4.1531310000     3.2070340000
   20      H       3.0752130000    -3.7395310000     2.1352140000
   21      C      -0.8281070000    -2.3066540000    -0.6944100000
   22      S       1.1887940000    -2.3065010000     0.9832560000
   23      C       0.0000000000    -1.4351850000     0.0000000000
   24      H      -1.6321850000    -1.9781380000    -1.3648510000
   25      H      -0.2212880000    -9.6140330000    -0.2349800000
   26      C       0.0000000000     0.0000000000     0.0000000000
   27      S       0.2346280000     0.8738130000     1.5075410000
   28      C       0.6408890000     2.3929690000     0.7188730000
   29      C       0.2348150000     0.8734340000    -1.0678720000
   30      C       0.5923770000     2.2168110000    -0.6864100000
   31      S       0.1745260000     0.6374220000    -2.8055160000
   32      C       0.6225510000     2.3308400000    -3.0545300000
   33      C       0.8035050000     3.0156470000    -1.8625510000
   34      F       1.1448150000     4.3079940000    -1.8190880000
   35      C       0.7403340000     2.7631080000    -4.4560840000
   36      O       0.5487930000     2.0174280000    -5.4065100000
   37      O       1.0826650000     4.0695440000    -4.5692250000
   38      C       1.2158480000     4.5464070000    -5.9162070000
   39      H       1.4940660000     5.6117290000    -5.8330640000
   40      H       0.2617360000     4.4362960000    -6.4701680000
   41      H       2.0001080000     3.9812940000    -6.4592930000
   42      H       0.8787390000     3.2860990000     1.3064860000
 ----------------------------------------------------------------

   10   -2754.3122087805      7.02e-07  Convergence criterion met
 Total energy in the final basis set =    -2754.3122087805
        RIMP2         total energy =     -2759.3634885737 a.u.

                    Orbital Energies (a.u.)
 --------------------------------------------------------------

 Alpha MOs
 -- Occupied --
-92.0151 -91.9979 -91.9908 -91.9862 -26.3429 -20.6145 -20.5927 -20.5909
-20.5609 -11.4090 -11.3820 -11.3196 -11.3174 -11.3104 -11.3015 -11.2978
-11.2970 -11.2943 -11.2886 -11.2875 -11.2859 -11.2856 -11.2847 -11.2840
-11.2795 -11.2608 -11.2587 -11.2553 -11.2499  -9.0137  -8.9978  -8.9912
 -8.9861  -6.6944  -6.6938  -6.6933  -6.6788  -6.6781  -6.6770  -6.6721
 -6.6715  -6.6705  -6.6671  -6.6665  -6.6656  -1.6600  -1.4670  -1.4168
 -1.4138  -1.3696  -1.2214  -1.1944  -1.1656  -1.1360  -1.0847  -1.0519
 -1.0413  -1.0227  -1.0017  -0.9879  -0.9627  -0.9602  -0.9504  -0.9387
 -0.8961  -0.8674  -0.8514  -0.8082  -0.7968  -0.7872  -0.7868  -0.7645
 -0.7551  -0.7338  -0.7249  -0.7094  -0.7015  -0.6849  -0.6830  -0.6804
 -0.6736  -0.6592  -0.6576  -0.6524  -0.6304  -0.6198  -0.6172  -0.6041
 -0.5978  -0.5865  -0.5775  -0.5698  -0.5659  -0.5601  -0.5553  -0.5471
 -0.5351  -0.5306  -0.5225  -0.5166  -0.5159  -0.5102  -0.5045  -0.4946
 -0.4884  -0.4800  -0.4751  -0.4737  -0.4693  -0.4680  -0.4617  -0.4152
 -0.3962  -0.3857  -0.3576  -0.3504  -0.3210  -0.2932  -0.2548

          Ground-State Mulliken Net Atomic Charges

     Atom                 Charge (a.u.)
  ----------------------------------------
      1 C                    -0.188967
      2 C                    -0.254450
      3 S                    -0.022216
      4 C                    -0.014973
      5 H                     0.196235
      6 C                    -0.026257
      7 C                     0.241133
      8 C                     0.240096
      9 C                    -0.044944
     10 C                    -0.023057
     11 O                    -0.333008
     12 O                    -0.340117
     13 C                    -0.085917
     14 H                     0.123001
     15 H                     0.090876
     16 H                     0.094216
     17 C                    -0.087238
     18 H                     0.125148
     19 H                     0.094445
     20 H                     0.089865
     21 C                    -0.241039
     22 S                    -0.009515
     23 C                    -0.045840
     24 H                     0.200722
     25 H                     0.206330
     26 C                    -0.007862
     27 S                     0.092560
     28 C                    -0.180173
     29 C                     0.021332
     30 C                    -0.106524
     31 S                     0.009499
     32 C                    -0.151030
     33 C                     0.389641
     34 F                    -0.206711
     35 C                     0.445252
     36 O                    -0.460855
     37 O                    -0.300745
     38 C                    -0.058440
     39 H                     0.121273
     40 H                     0.095006
     41 H                     0.095069
     42 H                     0.218180
  ----------------------------------------
  Sum of atomic charges =     0.000000

                    Cartesian Multipole Moments
 -----------------------------------------------------------------
    Charge (ESU x 10^10)
                 0.0000
    Dipole Moment (Debye)
         X       0.9859      Y       1.0339      Z       2.8796
       Tot       3.2145
    Quadrupole Moments (Debye-Ang)
        XX    -192.1437     XY       3.2223     YY    -161.0208
        XZ      10.2557     YZ      -5.9359     ZZ    -190.2053

 Total job time:  286.55s(wall), 8895.37s(cpu)
        *  Thank you very much for using Q-Chem.  Have a nice day.  *
