 Q-Chem 5.4, Q-Chem, Inc., Pleasanton, CA (2021)
 Q-Chem 5.4.0 for Intel X86 EM64T Linux

User input:
--------------------------------------------------------------
$molecule
0 1
C	0.296276	-8.517702	-0.123330
C	-0.631143	-7.641575	0.421494
S	1.628795	-7.638634	-0.911611
C	-0.305097	-6.264785	0.233291
H	-1.535988	-7.966081	0.950737
C	0.931114	-6.072714	-0.478557
C	1.405737	-4.787049	-0.781346
C	-1.097747	-5.162801	0.664542
C	-0.624993	-3.874817	0.357854
C	0.613970	-3.683952	-0.352278
O	-2.226300	-5.499772	1.348709
O	2.538827	-4.459055	-1.469658
C	3.663102	-5.329063	-1.419319
H	4.516756	-4.755694	-1.828237
H	3.520769	-6.238095	-2.043793
H	3.895546	-5.637262	-0.377021
C	-3.298492	-4.572261	1.463351
H	-4.152945	-5.139743	1.878237
H	-3.585804	-4.153131	0.475176
H	-3.058230	-3.739531	2.159469
C	0.935761	-2.306654	-0.540664
S	-1.330550	-2.306501	0.780808
C	-0.000000	-1.435185	-0.000000
H	1.840780	-1.978138	-1.066946
H	0.296494	-9.614033	-0.127575
C	0.000000	0.000000	0.000000
S	0.581934	0.692785	1.507541
C	1.592155	1.897915	0.718873
C	0.581944	0.692363	-1.067872
C	1.473741	1.758764	-0.686410
S	0.427560	0.503942	-2.805516
C	1.549278	1.849357	-3.054530
C	2.002690	2.393529	-1.862551
F	2.858191	3.420549	-1.819088
C	1.838710	2.191348	-4.456084
O	1.349977	1.596481	-5.406510
O	2.701091	3.230705	-4.569225
C	3.023327	3.606605	-5.916207
H	3.725703	4.454534	-5.833064
H	2.112072	3.910035	-6.470168
H	3.495281	2.762996	-6.459293
H	2.185174	2.606846	1.306486
$end

$rem
JOBTYPE		SP
EXCHANGE	HF
CORRELATION	pRIMP2
BASIS		cc-pvtz
METHOD		rimp2
AUX_BASIS	rimp2-cc-pvtz
SOLVENT_METHOD	PCM
PURECART	11111
SYMMETRY	false
MEM_TOTAL	110000
SCF_CONVERGENCE = 6
THRESH=10
GUI = 2
$end

$solvent
dielectric 4.90
$end
--------------------------------------------------------------

             Standard Nuclear Orientation (Angstroms)
    I     Atom           X                Y                Z
 ----------------------------------------------------------------
    1      C       0.2962760000    -8.5177020000    -0.1233300000
    2      C      -0.6311430000    -7.6415750000     0.4214940000
    3      S       1.6287950000    -7.6386340000    -0.9116110000
    4      C      -0.3050970000    -6.2647850000     0.2332910000
    5      H      -1.5359880000    -7.9660810000     0.9507370000
    6      C       0.9311140000    -6.0727140000    -0.4785570000
    7      C       1.4057370000    -4.7870490000    -0.7813460000
    8      C      -1.0977470000    -5.1628010000     0.6645420000
    9      C      -0.6249930000    -3.8748170000     0.3578540000
   10      C       0.6139700000    -3.6839520000    -0.3522780000
   11      O      -2.2263000000    -5.4997720000     1.3487090000
   12      O       2.5388270000    -4.4590550000    -1.4696580000
   13      C       3.6631020000    -5.3290630000    -1.4193190000
   14      H       4.5167560000    -4.7556940000    -1.8282370000
   15      H       3.5207690000    -6.2380950000    -2.0437930000
   16      H       3.8955460000    -5.6372620000    -0.3770210000
   17      C      -3.2984920000    -4.5722610000     1.4633510000
   18      H      -4.1529450000    -5.1397430000     1.8782370000
   19      H      -3.5858040000    -4.1531310000     0.4751760000
   20      H      -3.0582300000    -3.7395310000     2.1594690000
   21      C       0.9357610000    -2.3066540000    -0.5406640000
   22      S      -1.3305500000    -2.3065010000     0.7808080000
   23      C       0.0000000000    -1.4351850000     0.0000000000
   24      H       1.8407800000    -1.9781380000    -1.0669460000
   25      H       0.2964940000    -9.6140330000    -0.1275750000
   26      C       0.0000000000     0.0000000000     0.0000000000
   27      S       0.5819340000     0.6927850000     1.5075410000
   28      C       1.5921550000     1.8979150000     0.7188730000
   29      C       0.5819440000     0.6923630000    -1.0678720000
   30      C       1.4737410000     1.7587640000    -0.6864100000
   31      S       0.4275600000     0.5039420000    -2.8055160000
   32      C       1.5492780000     1.8493570000    -3.0545300000
   33      C       2.0026900000     2.3935290000    -1.8625510000
   34      F       2.8581910000     3.4205490000    -1.8190880000
   35      C       1.8387100000     2.1913480000    -4.4560840000
   36      O       1.3499770000     1.5964810000    -5.4065100000
   37      O       2.7010910000     3.2307050000    -4.5692250000
   38      C       3.0233270000     3.6066050000    -5.9162070000
   39      H       3.7257030000     4.4545340000    -5.8330640000
   40      H       2.1120720000     3.9100350000    -6.4701680000
   41      H       3.4952810000     2.7629960000    -6.4592930000
   42      H       2.1851740000     2.6068460000     1.3064860000
 ----------------------------------------------------------------

   10   -2754.2882777352      8.93e-07  Convergence criterion met
 Total energy in the final basis set =    -2754.2882777352
        RIMP2         total energy =     -2759.3445783293 a.u.

                    Orbital Energies (a.u.)
 --------------------------------------------------------------

 Alpha MOs
 -- Occupied --
-92.0138 -92.0015 -91.9851 -91.9845 -26.3441 -20.6148 -20.5914 -20.5898
-20.5612 -11.4095 -11.3836 -11.3212 -11.3177 -11.3152 -11.3089 -11.2974
-11.2923 -11.2889 -11.2862 -11.2859 -11.2853 -11.2840 -11.2828 -11.2826
-11.2781 -11.2589 -11.2565 -11.2507 -11.2490  -9.0127  -9.0013  -8.9852
 -8.9850  -6.6934  -6.6926  -6.6922  -6.6823  -6.6815  -6.6805  -6.6661
 -6.6660  -6.6654  -6.6654  -6.6645  -6.6645  -1.6612  -1.4673  -1.4154
 -1.4127  -1.3700  -1.2253  -1.1922  -1.1642  -1.1372  -1.0839  -1.0500
 -1.0430  -1.0238  -0.9991  -0.9868  -0.9628  -0.9591  -0.9493  -0.9393
 -0.8940  -0.8687  -0.8470  -0.8095  -0.7964  -0.7877  -0.7848  -0.7633
 -0.7553  -0.7322  -0.7260  -0.7107  -0.7007  -0.6853  -0.6816  -0.6808
 -0.6740  -0.6584  -0.6578  -0.6515  -0.6290  -0.6189  -0.6163  -0.6063
 -0.5990  -0.5845  -0.5743  -0.5702  -0.5655  -0.5616  -0.5543  -0.5489
 -0.5310  -0.5270  -0.5224  -0.5155  -0.5138  -0.5083  -0.5046  -0.4945
 -0.4873  -0.4817  -0.4750  -0.4736  -0.4681  -0.4648  -0.4592  -0.4093
 -0.3936  -0.3853  -0.3573  -0.3495  -0.3203  -0.2950  -0.2539

          Ground-State Mulliken Net Atomic Charges

     Atom                 Charge (a.u.)
  ----------------------------------------
      1 C                    -0.191778
      2 C                    -0.253960
      3 S                    -0.024586
      4 C                    -0.018244
      5 H                     0.195863
      6 C                    -0.027520
      7 C                     0.237906
      8 C                     0.244255
      9 C                    -0.046461
     10 C                    -0.019229
     11 O                    -0.333663
     12 O                    -0.340429
     13 C                    -0.085641
     14 H                     0.122087
     15 H                     0.090938
     16 H                     0.093217
     17 C                    -0.087000
     18 H                     0.124843
     19 H                     0.094601
     20 H                     0.089303
     21 C                    -0.234751
     22 S                    -0.021998
     23 C                    -0.002868
     24 H                     0.199394
     25 H                     0.205751
     26 C                    -0.077461
     27 S                     0.118279
     28 C                    -0.163909
     29 C                    -0.041700
     30 C                    -0.077597
     31 S                     0.041268
     32 C                    -0.152392
     33 C                     0.393606
     34 F                    -0.206170
     35 C                     0.446360
     36 O                    -0.461460
     37 O                    -0.301085
     38 C                    -0.058345
     39 H                     0.121312
     40 H                     0.095254
     41 H                     0.095110
     42 H                     0.218902
  ----------------------------------------
  Sum of atomic charges =     0.000000

                    Cartesian Multipole Moments
 -----------------------------------------------------------------
    Charge (ESU x 10^10)
                 0.0000
    Dipole Moment (Debye)
         X       2.2777      Y       1.4668      Z       3.0741
       Tot       4.0975
    Quadrupole Moments (Debye-Ang)
        XX    -172.3693     XY       7.5928     YY    -169.7354
        XZ     -11.2690     YZ      -6.6541     ZZ    -203.8398

 Total job time:  280.02s(wall), 8839.26s(cpu)
        *  Thank you very much for using Q-Chem.  Have a nice day.  *
