 Q-Chem 5.4, Q-Chem, Inc., Pleasanton, CA (2021)
 Q-Chem 5.4.0 for Intel X86 EM64T Linux

User input:
--------------------------------------------------------------
$molecule
0 1
C	0.217225	-8.517702	0.236226
C	-0.611939	-7.641575	-0.448921
S	1.413715	-7.638634	1.218777
C	-0.323572	-6.264785	-0.206907
H	-1.418739	-7.966081	-1.118185
C	0.768156	-6.072714	0.711285
C	1.215016	-4.787049	1.053725
C	-0.999917	-5.162801	-0.804258
C	-0.550033	-3.874817	-0.464908
C	0.541024	-3.683952	0.456457
O	-2.028811	-5.499772	-1.630752
O	2.249357	-4.459055	1.883064
C	2.586579	-5.329063	2.956754
H	3.262802	-4.755694	3.619069
H	3.124711	-6.238095	2.609423
H	1.686639	-5.637262	3.531667
C	-2.503251	-4.572261	-2.599073
H	-3.185356	-5.139743	-3.260097
H	-1.672937	-4.153131	-3.207034
H	-3.075213	-3.739531	-2.135214
C	0.828107	-2.306654	0.694410
S	-1.188794	-2.306501	-0.983256
C	-0.000000	-1.435185	-0.000000
H	1.632185	-1.978138	1.364851
H	0.221288	-9.614033	0.234980
C	0.000000	0.000000	0.000000
S	0.783786	0.451972	1.507541
C	2.145261	1.238908	0.718873
C	0.783650	0.451572	-1.067872
C	1.986396	1.148648	-0.686410
S	0.574133	0.327317	-2.805516
C	2.088363	1.207943	-3.054530
C	2.700548	1.564221	-1.862551
F	3.855718	2.236706	-1.819088
C	2.477307	1.430318	-4.456084
O	1.814592	1.038482	-5.406510
O	3.643162	2.112042	-4.569225
C	4.074530	2.355061	-5.916207
H	5.024556	2.911627	-5.833064
H	3.322010	2.951860	-6.470168
H	4.229490	1.400910	-6.459293
H	2.944986	1.702260	1.306486
$end

$rem
JOBTYPE		SP
EXCHANGE	HF
CORRELATION	pRIMP2
BASIS		cc-pvtz
METHOD		rimp2
AUX_BASIS	rimp2-cc-pvtz
SOLVENT_METHOD	PCM
PURECART	11111
SYMMETRY	false
MEM_TOTAL	110000
SCF_CONVERGENCE = 6
THRESH=10
GUI = 2
$end

$solvent
dielectric 4.90
$end
--------------------------------------------------------------

             Standard Nuclear Orientation (Angstroms)
    I     Atom           X                Y                Z
 ----------------------------------------------------------------
    1      C       0.2172250000    -8.5177020000     0.2362260000
    2      C      -0.6119390000    -7.6415750000    -0.4489210000
    3      S       1.4137150000    -7.6386340000     1.2187770000
    4      C      -0.3235720000    -6.2647850000    -0.2069070000
    5      H      -1.4187390000    -7.9660810000    -1.1181850000
    6      C       0.7681560000    -6.0727140000     0.7112850000
    7      C       1.2150160000    -4.7870490000     1.0537250000
    8      C      -0.9999170000    -5.1628010000    -0.8042580000
    9      C      -0.5500330000    -3.8748170000    -0.4649080000
   10      C       0.5410240000    -3.6839520000     0.4564570000
   11      O      -2.0288110000    -5.4997720000    -1.6307520000
   12      O       2.2493570000    -4.4590550000     1.8830640000
   13      C       2.5865790000    -5.3290630000     2.9567540000
   14      H       3.2628020000    -4.7556940000     3.6190690000
   15      H       3.1247110000    -6.2380950000     2.6094230000
   16      H       1.6866390000    -5.6372620000     3.5316670000
   17      C      -2.5032510000    -4.5722610000    -2.5990730000
   18      H      -3.1853560000    -5.1397430000    -3.2600970000
   19      H      -1.6729370000    -4.1531310000    -3.2070340000
   20      H      -3.0752130000    -3.7395310000    -2.1352140000
   21      C       0.8281070000    -2.3066540000     0.6944100000
   22      S      -1.1887940000    -2.3065010000    -0.9832560000
   23      C       0.0000000000    -1.4351850000     0.0000000000
   24      H       1.6321850000    -1.9781380000     1.3648510000
   25      H       0.2212880000    -9.6140330000     0.2349800000
   26      C       0.0000000000     0.0000000000     0.0000000000
   27      S       0.7837860000     0.4519720000     1.5075410000
   28      C       2.1452610000     1.2389080000     0.7188730000
   29      C       0.7836500000     0.4515720000    -1.0678720000
   30      C       1.9863960000     1.1486480000    -0.6864100000
   31      S       0.5741330000     0.3273170000    -2.8055160000
   32      C       2.0883630000     1.2079430000    -3.0545300000
   33      C       2.7005480000     1.5642210000    -1.8625510000
   34      F       3.8557180000     2.2367060000    -1.8190880000
   35      C       2.4773070000     1.4303180000    -4.4560840000
   36      O       1.8145920000     1.0384820000    -5.4065100000
   37      O       3.6431620000     2.1120420000    -4.5692250000
   38      C       4.0745300000     2.3550610000    -5.9162070000
   39      H       5.0245560000     2.9116270000    -5.8330640000
   40      H       3.3220100000     2.9518600000    -6.4701680000
   41      H       4.2294900000     1.4009100000    -6.4592930000
   42      H       2.9449860000     1.7022600000     1.3064860000
 ----------------------------------------------------------------

   10   -2754.2512239174      9.54e-07  Convergence criterion met
 Total energy in the final basis set =    -2754.2512239174
        RIMP2         total energy =     -2759.3151016800 a.u.

                    Orbital Energies (a.u.)
 --------------------------------------------------------------

 Alpha MOs
 -- Occupied --
-92.0139 -92.0101 -91.9831 -91.9823 -26.3464 -20.6154 -20.5902 -20.5875
-20.5616 -11.4104 -11.3871 -11.3355 -11.3244 -11.3163 -11.3102 -11.2978
-11.2973 -11.2893 -11.2883 -11.2851 -11.2844 -11.2809 -11.2785 -11.2748
-11.2716 -11.2565 -11.2522 -11.2474 -11.2386  -9.0133  -9.0097  -8.9831
 -8.9831  -6.6939  -6.6930  -6.6929  -6.6906  -6.6898  -6.6888  -6.6641
 -6.6641  -6.6635  -6.6634  -6.6626  -6.6625  -1.6634  -1.4679  -1.4141
 -1.4104  -1.3706  -1.2348  -1.1899  -1.1651  -1.1399  -1.0851  -1.0477
 -1.0457  -1.0276  -0.9968  -0.9872  -0.9660  -0.9563  -0.9478  -0.9407
 -0.8918  -0.8720  -0.8426  -0.8180  -0.7944  -0.7845  -0.7835  -0.7629
 -0.7556  -0.7300  -0.7281  -0.7133  -0.6985  -0.6863  -0.6829  -0.6794
 -0.6746  -0.6603  -0.6565  -0.6502  -0.6295  -0.6174  -0.6147  -0.6075
 -0.6022  -0.5910  -0.5767  -0.5676  -0.5650  -0.5646  -0.5527  -0.5463
 -0.5317  -0.5222  -0.5208  -0.5143  -0.5123  -0.5114  -0.5026  -0.4918
 -0.4882  -0.4828  -0.4756  -0.4732  -0.4663  -0.4606  -0.4549  -0.4154
 -0.3883  -0.3853  -0.3642  -0.3418  -0.3213  -0.2975  -0.2499

          Ground-State Mulliken Net Atomic Charges

     Atom                 Charge (a.u.)
  ----------------------------------------
      1 C                    -0.198554
      2 C                    -0.253137
      3 S                    -0.029431
      4 C                    -0.022502
      5 H                     0.195279
      6 C                    -0.023901
      7 C                     0.226511
      8 C                     0.244707
      9 C                    -0.041428
     10 C                    -0.012490
     11 O                    -0.333610
     12 O                    -0.342873
     13 C                    -0.085703
     14 H                     0.120593
     15 H                     0.090503
     16 H                     0.092731
     17 C                    -0.087245
     18 H                     0.124415
     19 H                     0.094756
     20 H                     0.089576
     21 C                    -0.293441
     22 S                    -0.035516
     23 C                     0.018741
     24 H                     0.190039
     25 H                     0.204549
     26 C                    -0.154617
     27 S                     0.115289
     28 C                    -0.126721
     29 C                     0.095484
     30 C                    -0.115537
     31 S                     0.058252
     32 C                    -0.155041
     33 C                     0.393743
     34 F                    -0.203968
     35 C                     0.449054
     36 O                    -0.462991
     37 O                    -0.301461
     38 C                    -0.058176
     39 H                     0.121470
     40 H                     0.095156
     41 H                     0.095330
     42 H                     0.222164
  ----------------------------------------
  Sum of atomic charges =     0.000000

                    Cartesian Multipole Moments
 -----------------------------------------------------------------
    Charge (ESU x 10^10)
                 0.0000
    Dipole Moment (Debye)
         X       3.2509      Y       2.0710      Z       2.4684
       Tot       4.5771
    Quadrupole Moments (Debye-Ang)
        XX    -180.1862     XY       9.8114     YY    -182.1244
        XZ       5.4405     YZ      -3.7755     ZZ    -188.5992

 Total job time:  325.79s(wall), 11434.80s(cpu)
        *  Thank you very much for using Q-Chem.  Have a nice day.  *
