 Q-Chem 5.4, Q-Chem, Inc., Pleasanton, CA (2021)
 Q-Chem 5.4.0 for Intel X86 EM64T Linux

User input:
--------------------------------------------------------------
$molecule
0 1
C	-0.147685	-8.517702	0.284919
C	0.212552	-7.641575	-0.728574
S	-0.661757	-7.638634	1.745304
C	0.083761	-6.264785	-0.374824
H	0.565513	-7.966081	-1.715621
C	-0.405665	-6.072714	0.965104
C	-0.574617	-4.787049	1.502136
C	0.413763	-5.162801	-1.214687
C	0.248748	-3.874817	-0.675870
C	-0.243888	-3.683952	0.664513
O	0.838511	-5.499772	-2.464209
O	-1.000176	-4.459055	2.757750
C	-1.893778	-5.329063	3.441858
H	-2.284868	-4.755694	4.303826
H	-1.383341	-6.238095	3.828743
H	-2.741817	-5.637262	2.792824
C	1.586168	-4.572261	-3.241222
H	1.974033	-5.139743	-4.108274
H	2.441448	-4.153131	-2.668916
H	0.954660	-3.739531	-3.620041
C	-0.369302	-2.306654	1.015668
S	0.517367	-2.306501	-1.453394
C	0.000000	-1.435185	0.000000
H	-0.724300	-1.978138	2.000559
H	-0.145124	-9.614033	0.288311
C	0.000000	0.000000	0.000000
S	0.234628	0.873813	1.507541
C	0.640889	2.392969	0.718873
C	0.234815	0.873434	-1.067872
C	0.592377	2.216811	-0.686410
S	0.174526	0.637422	-2.805516
C	0.622551	2.330840	-3.054530
C	0.803505	3.015647	-1.862551
F	1.144815	4.307994	-1.819088
C	0.740334	2.763108	-4.456084
O	0.548793	2.017428	-5.406510
O	1.082665	4.069544	-4.569225
C	1.215848	4.546407	-5.916207
H	1.494066	5.611729	-5.833064
H	0.261736	4.436296	-6.470168
H	2.000108	3.981294	-6.459293
H	0.878739	3.286099	1.306486
$end

$rem
JOBTYPE		SP
EXCHANGE	HF
CORRELATION	pRIMP2
BASIS		cc-pvtz
METHOD		rimp2
AUX_BASIS	rimp2-cc-pvtz
SOLVENT_METHOD	PCM
PURECART	11111
SYMMETRY	false
MEM_TOTAL	110000
SCF_CONVERGENCE = 6
THRESH=10
GUI = 2
$end

$solvent
dielectric 4.90
$end
--------------------------------------------------------------

             Standard Nuclear Orientation (Angstroms)
    I     Atom           X                Y                Z
 ----------------------------------------------------------------
    1      C      -0.1476850000    -8.5177020000     0.2849190000
    2      C       0.2125520000    -7.6415750000    -0.7285740000
    3      S      -0.6617570000    -7.6386340000     1.7453040000
    4      C       0.0837610000    -6.2647850000    -0.3748240000
    5      H       0.5655130000    -7.9660810000    -1.7156210000
    6      C      -0.4056650000    -6.0727140000     0.9651040000
    7      C      -0.5746170000    -4.7870490000     1.5021360000
    8      C       0.4137630000    -5.1628010000    -1.2146870000
    9      C       0.2487480000    -3.8748170000    -0.6758700000
   10      C      -0.2438880000    -3.6839520000     0.6645130000
   11      O       0.8385110000    -5.4997720000    -2.4642090000
   12      O      -1.0001760000    -4.4590550000     2.7577500000
   13      C      -1.8937780000    -5.3290630000     3.4418580000
   14      H      -2.2848680000    -4.7556940000     4.3038260000
   15      H      -1.3833410000    -6.2380950000     3.8287430000
   16      H      -2.7418170000    -5.6372620000     2.7928240000
   17      C       1.5861680000    -4.5722610000    -3.2412220000
   18      H       1.9740330000    -5.1397430000    -4.1082740000
   19      H       2.4414480000    -4.1531310000    -2.6689160000
   20      H       0.9546600000    -3.7395310000    -3.6200410000
   21      C      -0.3693020000    -2.3066540000     1.0156680000
   22      S       0.5173670000    -2.3065010000    -1.4533940000
   23      C       0.0000000000    -1.4351850000     0.0000000000
   24      H      -0.7243000000    -1.9781380000     2.0005590000
   25      H      -0.1451240000    -9.6140330000     0.2883110000
   26      C       0.0000000000     0.0000000000     0.0000000000
   27      S       0.2346280000     0.8738130000     1.5075410000
   28      C       0.6408890000     2.3929690000     0.7188730000
   29      C       0.2348150000     0.8734340000    -1.0678720000
   30      C       0.5923770000     2.2168110000    -0.6864100000
   31      S       0.1745260000     0.6374220000    -2.8055160000
   32      C       0.6225510000     2.3308400000    -3.0545300000
   33      C       0.8035050000     3.0156470000    -1.8625510000
   34      F       1.1448150000     4.3079940000    -1.8190880000
   35      C       0.7403340000     2.7631080000    -4.4560840000
   36      O       0.5487930000     2.0174280000    -5.4065100000
   37      O       1.0826650000     4.0695440000    -4.5692250000
   38      C       1.2158480000     4.5464070000    -5.9162070000
   39      H       1.4940660000     5.6117290000    -5.8330640000
   40      H       0.2617360000     4.4362960000    -6.4701680000
   41      H       2.0001080000     3.9812940000    -6.4592930000
   42      H       0.8787390000     3.2860990000     1.3064860000
 ----------------------------------------------------------------

   10   -2754.3118618589      7.65e-07  Convergence criterion met
 Total energy in the final basis set =    -2754.3118618589
        RIMP2         total energy =     -2759.3660025618 a.u.

                    Orbital Energies (a.u.)
 --------------------------------------------------------------

 Alpha MOs
 -- Occupied --
-92.0152 -91.9990 -91.9904 -91.9861 -26.3435 -20.6148 -20.5923 -20.5911
-20.5613 -11.4095 -11.3828 -11.3198 -11.3166 -11.3117 -11.3018 -11.2999
-11.2974 -11.2972 -11.2889 -11.2866 -11.2861 -11.2858 -11.2856 -11.2841
-11.2789 -11.2618 -11.2579 -11.2539 -11.2498  -9.0138  -8.9992  -8.9910
 -8.9860  -6.6945  -6.6939  -6.6934  -6.6801  -6.6794  -6.6783  -6.6720
 -6.6713  -6.6703  -6.6670  -6.6663  -6.6655  -1.6606  -1.4673  -1.4163
 -1.4138  -1.3700  -1.2229  -1.1944  -1.1657  -1.1366  -1.0859  -1.0519
 -1.0417  -1.0243  -1.0020  -0.9880  -0.9644  -0.9584  -0.9499  -0.9410
 -0.8957  -0.8683  -0.8514  -0.8151  -0.7922  -0.7877  -0.7856  -0.7651
 -0.7555  -0.7338  -0.7254  -0.7103  -0.6989  -0.6858  -0.6834  -0.6818
 -0.6739  -0.6591  -0.6582  -0.6524  -0.6308  -0.6197  -0.6167  -0.6037
 -0.5978  -0.5840  -0.5790  -0.5693  -0.5677  -0.5592  -0.5579  -0.5532
 -0.5326  -0.5295  -0.5245  -0.5190  -0.5172  -0.5112  -0.5064  -0.4953
 -0.4873  -0.4788  -0.4769  -0.4747  -0.4700  -0.4639  -0.4592  -0.4251
 -0.3942  -0.3853  -0.3599  -0.3516  -0.3251  -0.2903  -0.2493

          Ground-State Mulliken Net Atomic Charges

     Atom                 Charge (a.u.)
  ----------------------------------------
      1 C                    -0.190734
      2 C                    -0.253699
      3 S                    -0.023233
      4 C                    -0.018671
      5 H                     0.196310
      6 C                    -0.027094
      7 C                     0.238151
      8 C                     0.244490
      9 C                    -0.040888
     10 C                    -0.009796
     11 O                    -0.332812
     12 O                    -0.340706
     13 C                    -0.085674
     14 H                     0.122135
     15 H                     0.091012
     16 H                     0.094042
     17 C                    -0.089961
     18 H                     0.126142
     19 H                     0.094969
     20 H                     0.091340
     21 C                    -0.272848
     22 S                    -0.035722
     23 C                     0.024983
     24 H                     0.188458
     25 H                     0.206150
     26 C                     0.046774
     27 S                     0.103545
     28 C                    -0.192086
     29 C                    -0.055350
     30 C                    -0.102811
     31 S                     0.012298
     32 C                    -0.165203
     33 C                     0.411386
     34 F                    -0.206880
     35 C                     0.442348
     36 O                    -0.461066
     37 O                    -0.300768
     38 C                    -0.058500
     39 H                     0.121447
     40 H                     0.095190
     41 H                     0.095057
     42 H                     0.218273
  ----------------------------------------
  Sum of atomic charges =     0.000000

                    Cartesian Multipole Moments
 -----------------------------------------------------------------
    Charge (ESU x 10^10)
                 0.0000
    Dipole Moment (Debye)
         X       0.6279      Y       1.2876      Z       2.6475
       Tot       3.0102
    Quadrupole Moments (Debye-Ang)
        XX    -193.4795     XY       5.2364     YY    -161.8825
        XZ     -13.5331     YZ      -6.4024     ZZ    -188.5630

 Total job time:  299.09s(wall), 9966.17s(cpu)
        *  Thank you very much for using Q-Chem.  Have a nice day.  *
