 Q-Chem 5.4, Q-Chem, Inc., Pleasanton, CA (2021)
 Q-Chem 5.4.0 for Intel X86 EM64T Linux

User input:
--------------------------------------------------------------
$molecule
0 1
C	0.194917	-8.517702	-0.254945
C	-0.335839	-7.641575	0.680596
S	0.954772	-7.638634	-1.603876
C	-0.147576	-6.264785	0.354585
H	-0.854836	-7.966081	1.591356
C	0.567090	-6.072714	-0.879999
C	0.826731	-4.787049	-1.379534
C	-0.618405	-5.162801	1.124384
C	-0.362333	-3.874817	0.622407
C	0.355575	-3.683952	-0.612067
O	-1.253677	-5.499772	2.281166
O	1.463859	-4.459055	-2.542174
C	2.462679	-5.329063	-3.060718
H	2.997507	-4.755694	-3.841678
H	2.027179	-6.238095	-3.530361
H	3.185132	-5.637262	-2.274283
C	-2.124902	-4.572261	2.916545
H	-2.657438	-5.139743	3.703073
H	-2.867810	-4.153131	2.204417
H	-1.568770	-3.739531	3.399269
C	0.540061	-2.306654	-0.936109
S	-0.761887	-2.306501	1.341474
C	-0.000000	-1.435185	-0.000000
H	1.060690	-1.978138	-1.844392
H	0.192984	-9.614033	-0.258730
C	0.000000	0.000000	0.000000
S	0.382799	0.819795	1.507541
C	1.046687	2.245325	0.718873
C	0.382918	0.819389	-1.067872
C	0.968323	2.080267	-0.686410
S	0.282561	0.597432	-2.805516
C	1.017839	2.187324	-3.054530
C	1.314960	2.830306	-1.862551
F	1.875498	4.043751	-1.819088
C	1.208895	2.592573	-4.456084
O	0.890778	1.891482	-5.406510
O	1.772886	3.819715	-4.569225
C	1.986852	4.266207	-5.916207
H	2.445834	5.267032	-5.833064
H	1.028114	4.323448	-6.470168
H	2.661066	3.573494	-6.459293
H	1.436015	3.083584	1.306486
$end

$rem
JOBTYPE		SP
EXCHANGE	HF
CORRELATION	pRIMP2
BASIS		cc-pvtz
METHOD		rimp2
AUX_BASIS	rimp2-cc-pvtz
SOLVENT_METHOD	PCM
PURECART	11111
SYMMETRY	false
MEM_TOTAL	110000
SCF_CONVERGENCE = 6
THRESH=10
GUI = 2
$end

$solvent
dielectric 4.90
$end
--------------------------------------------------------------

             Standard Nuclear Orientation (Angstroms)
    I     Atom           X                Y                Z
 ----------------------------------------------------------------
    1      C       0.1949170000    -8.5177020000    -0.2549450000
    2      C      -0.3358390000    -7.6415750000     0.6805960000
    3      S       0.9547720000    -7.6386340000    -1.6038760000
    4      C      -0.1475760000    -6.2647850000     0.3545850000
    5      H      -0.8548360000    -7.9660810000     1.5913560000
    6      C       0.5670900000    -6.0727140000    -0.8799990000
    7      C       0.8267310000    -4.7870490000    -1.3795340000
    8      C      -0.6184050000    -5.1628010000     1.1243840000
    9      C      -0.3623330000    -3.8748170000     0.6224070000
   10      C       0.3555750000    -3.6839520000    -0.6120670000
   11      O      -1.2536770000    -5.4997720000     2.2811660000
   12      O       1.4638590000    -4.4590550000    -2.5421740000
   13      C       2.4626790000    -5.3290630000    -3.0607180000
   14      H       2.9975070000    -4.7556940000    -3.8416780000
   15      H       2.0271790000    -6.2380950000    -3.5303610000
   16      H       3.1851320000    -5.6372620000    -2.2742830000
   17      C      -2.1249020000    -4.5722610000     2.9165450000
   18      H      -2.6574380000    -5.1397430000     3.7030730000
   19      H      -2.8678100000    -4.1531310000     2.2044170000
   20      H      -1.5687700000    -3.7395310000     3.3992690000
   21      C       0.5400610000    -2.3066540000    -0.9361090000
   22      S      -0.7618870000    -2.3065010000     1.3414740000
   23      C       0.0000000000    -1.4351850000     0.0000000000
   24      H       1.0606900000    -1.9781380000    -1.8443920000
   25      H       0.1929840000    -9.6140330000    -0.2587300000
   26      C       0.0000000000     0.0000000000     0.0000000000
   27      S       0.3827990000     0.8197950000     1.5075410000
   28      C       1.0466870000     2.2453250000     0.7188730000
   29      C       0.3829180000     0.8193890000    -1.0678720000
   30      C       0.9683230000     2.0802670000    -0.6864100000
   31      S       0.2825610000     0.5974320000    -2.8055160000
   32      C       1.0178390000     2.1873240000    -3.0545300000
   33      C       1.3149600000     2.8303060000    -1.8625510000
   34      F       1.8754980000     4.0437510000    -1.8190880000
   35      C       1.2088950000     2.5925730000    -4.4560840000
   36      O       0.8907780000     1.8914820000    -5.4065100000
   37      O       1.7728860000     3.8197150000    -4.5692250000
   38      C       1.9868520000     4.2662070000    -5.9162070000
   39      H       2.4458340000     5.2670320000    -5.8330640000
   40      H       1.0281140000     4.3234480000    -6.4701680000
   41      H       2.6610660000     3.5734940000    -6.4592930000
   42      H       1.4360150000     3.0835840000     1.3064860000
 ----------------------------------------------------------------

   10   -2754.3057655080      7.40e-07  Convergence criterion met
 Total energy in the final basis set =    -2754.3057655080
        RIMP2         total energy =     -2759.3602019987 a.u.

                    Orbital Energies (a.u.)
 --------------------------------------------------------------

 Alpha MOs
 -- Occupied --
-92.0156 -92.0002 -91.9889 -91.9858 -26.3437 -20.6149 -20.5924 -20.5903
-20.5614 -11.4096 -11.3830 -11.3193 -11.3163 -11.3141 -11.3032 -11.2978
-11.2966 -11.2957 -11.2889 -11.2873 -11.2862 -11.2854 -11.2852 -11.2836
-11.2788 -11.2609 -11.2577 -11.2529 -11.2496  -9.0143  -9.0002  -8.9895
 -8.9857  -6.6951  -6.6945  -6.6939  -6.6811  -6.6804  -6.6793  -6.6705
 -6.6699  -6.6689  -6.6667  -6.6661  -6.6652  -1.6608  -1.4674  -1.4165
 -1.4131  -1.3701  -1.2234  -1.1940  -1.1656  -1.1371  -1.0851  -1.0514
 -1.0425  -1.0239  -1.0008  -0.9880  -0.9637  -0.9596  -0.9501  -0.9395
 -0.8957  -0.8685  -0.8505  -0.8086  -0.7984  -0.7877  -0.7859  -0.7639
 -0.7554  -0.7336  -0.7256  -0.7104  -0.7016  -0.6855  -0.6828  -0.6810
 -0.6740  -0.6589  -0.6585  -0.6520  -0.6302  -0.6194  -0.6167  -0.6040
 -0.5988  -0.5820  -0.5787  -0.5709  -0.5649  -0.5616  -0.5556  -0.5487
 -0.5337  -0.5304  -0.5240  -0.5168  -0.5158  -0.5084  -0.5066  -0.4959
 -0.4874  -0.4813  -0.4765  -0.4739  -0.4690  -0.4660  -0.4596  -0.4220
 -0.3950  -0.3847  -0.3596  -0.3499  -0.3259  -0.2899  -0.2510

          Ground-State Mulliken Net Atomic Charges

     Atom                 Charge (a.u.)
  ----------------------------------------
      1 C                    -0.190906
      2 C                    -0.253826
      3 S                    -0.022469
      4 C                    -0.018407
      5 H                     0.195997
      6 C                    -0.027450
      7 C                     0.239579
      8 C                     0.244711
      9 C                    -0.042526
     10 C                    -0.021991
     11 O                    -0.333326
     12 O                    -0.339806
     13 C                    -0.085984
     14 H                     0.122918
     15 H                     0.091140
     16 H                     0.093455
     17 C                    -0.087650
     18 H                     0.125674
     19 H                     0.095183
     20 H                     0.089106
     21 C                    -0.234646
     22 S                    -0.032298
     23 C                     0.001797
     24 H                     0.197863
     25 H                     0.206057
     26 C                    -0.008838
     27 S                     0.109691
     28 C                    -0.194527
     29 C                    -0.046246
     30 C                    -0.089594
     31 S                     0.025421
     32 C                    -0.160108
     33 C                     0.404304
     34 F                    -0.206605
     35 C                     0.443803
     36 O                    -0.460816
     37 O                    -0.300879
     38 C                    -0.058419
     39 H                     0.121443
     40 H                     0.095290
     41 H                     0.095082
     42 H                     0.218803
  ----------------------------------------
  Sum of atomic charges =     0.000000

                    Cartesian Multipole Moments
 -----------------------------------------------------------------
    Charge (ESU x 10^10)
                -0.0000
    Dipole Moment (Debye)
         X       1.4494      Y       1.3181      Z       3.1270
       Tot       3.6900
    Quadrupole Moments (Debye-Ang)
        XX    -187.3555     XY       5.0506     YY    -163.8336
        XZ     -15.6448     YZ      -7.3473     ZZ    -192.8665

 Total job time:  302.23s(wall), 9876.90s(cpu)
        *  Thank you very much for using Q-Chem.  Have a nice day.  *
