 Q-Chem 5.4, Q-Chem, Inc., Pleasanton, CA (2021)
 Q-Chem 5.4.0 for Intel X86 EM64T Linux

User input:
--------------------------------------------------------------
$molecule
0 1
C	0.296276	-8.517702	-0.123330
C	-0.631143	-7.641575	0.421494
S	1.628795	-7.638634	-0.911611
C	-0.305097	-6.264785	0.233291
H	-1.535988	-7.966081	0.950737
C	0.931114	-6.072714	-0.478557
C	1.405737	-4.787049	-0.781346
C	-1.097747	-5.162801	0.664542
C	-0.624993	-3.874817	0.357854
C	0.613970	-3.683952	-0.352278
O	-2.226300	-5.499772	1.348709
O	2.538827	-4.459055	-1.469658
C	3.663102	-5.329063	-1.419319
H	4.516756	-4.755694	-1.828237
H	3.520769	-6.238095	-2.043793
H	3.895546	-5.637262	-0.377021
C	-3.298492	-4.572261	1.463351
H	-4.152945	-5.139743	1.878237
H	-3.585804	-4.153131	0.475176
H	-3.058230	-3.739531	2.159469
C	0.935761	-2.306654	-0.540664
S	-1.330550	-2.306501	0.780808
C	0.000000	-1.435185	0.000000
H	1.840780	-1.978138	-1.066946
H	0.296494	-9.614033	-0.127575
C	0.000000	0.000000	0.000000
S	0.693394	0.581209	1.507541
C	1.897536	1.592607	0.718873
C	0.693330	0.580791	-1.067872
C	1.756758	1.476132	-0.686410
S	0.508573	0.422041	-2.805516
C	1.846879	1.552232	-3.054530
C	2.387897	2.009402	-1.862551
F	3.408741	2.872264	-1.819088
C	2.191300	1.838768	-4.456084
O	1.606694	1.337806	-5.406510
O	3.221062	2.712584	-4.569225
C	3.603677	3.026817	-5.916207
H	4.442623	3.739898	-5.833064
H	2.758956	3.483875	-6.470168
H	3.921969	2.114070	-6.459293
H	2.604650	2.187790	1.306486
$end

$rem
JOBTYPE		SP
EXCHANGE	HF
CORRELATION	pRIMP2
BASIS		cc-pvtz
METHOD		rimp2
AUX_BASIS	rimp2-cc-pvtz
SOLVENT_METHOD	PCM
PURECART	11111
SYMMETRY	false
MEM_TOTAL	110000
SCF_CONVERGENCE = 6
THRESH=10
GUI = 2
$end

$solvent
dielectric 4.90
$end
--------------------------------------------------------------

             Standard Nuclear Orientation (Angstroms)
    I     Atom           X                Y                Z
 ----------------------------------------------------------------
    1      C       0.2962760000    -8.5177020000    -0.1233300000
    2      C      -0.6311430000    -7.6415750000     0.4214940000
    3      S       1.6287950000    -7.6386340000    -0.9116110000
    4      C      -0.3050970000    -6.2647850000     0.2332910000
    5      H      -1.5359880000    -7.9660810000     0.9507370000
    6      C       0.9311140000    -6.0727140000    -0.4785570000
    7      C       1.4057370000    -4.7870490000    -0.7813460000
    8      C      -1.0977470000    -5.1628010000     0.6645420000
    9      C      -0.6249930000    -3.8748170000     0.3578540000
   10      C       0.6139700000    -3.6839520000    -0.3522780000
   11      O      -2.2263000000    -5.4997720000     1.3487090000
   12      O       2.5388270000    -4.4590550000    -1.4696580000
   13      C       3.6631020000    -5.3290630000    -1.4193190000
   14      H       4.5167560000    -4.7556940000    -1.8282370000
   15      H       3.5207690000    -6.2380950000    -2.0437930000
   16      H       3.8955460000    -5.6372620000    -0.3770210000
   17      C      -3.2984920000    -4.5722610000     1.4633510000
   18      H      -4.1529450000    -5.1397430000     1.8782370000
   19      H      -3.5858040000    -4.1531310000     0.4751760000
   20      H      -3.0582300000    -3.7395310000     2.1594690000
   21      C       0.9357610000    -2.3066540000    -0.5406640000
   22      S      -1.3305500000    -2.3065010000     0.7808080000
   23      C       0.0000000000    -1.4351850000     0.0000000000
   24      H       1.8407800000    -1.9781380000    -1.0669460000
   25      H       0.2964940000    -9.6140330000    -0.1275750000
   26      C       0.0000000000     0.0000000000     0.0000000000
   27      S       0.6933940000     0.5812090000     1.5075410000
   28      C       1.8975360000     1.5926070000     0.7188730000
   29      C       0.6933300000     0.5807910000    -1.0678720000
   30      C       1.7567580000     1.4761320000    -0.6864100000
   31      S       0.5085730000     0.4220410000    -2.8055160000
   32      C       1.8468790000     1.5522320000    -3.0545300000
   33      C       2.3878970000     2.0094020000    -1.8625510000
   34      F       3.4087410000     2.8722640000    -1.8190880000
   35      C       2.1913000000     1.8387680000    -4.4560840000
   36      O       1.6066940000     1.3378060000    -5.4065100000
   37      O       3.2210620000     2.7125840000    -4.5692250000
   38      C       3.6036770000     3.0268170000    -5.9162070000
   39      H       4.4426230000     3.7398980000    -5.8330640000
   40      H       2.7589560000     3.4838750000    -6.4701680000
   41      H       3.9219690000     2.1140700000    -6.4592930000
   42      H       2.6046500000     2.1877900000     1.3064860000
 ----------------------------------------------------------------

   10   -2754.2726826938      9.88e-07  Convergence criterion met
 Total energy in the final basis set =    -2754.2726826938
        RIMP2         total energy =     -2759.3320628056 a.u.

                    Orbital Energies (a.u.)
 --------------------------------------------------------------

 Alpha MOs
 -- Occupied --
-92.0138 -92.0044 -91.9843 -91.9823 -26.3451 -20.6152 -20.5908 -20.5889
-20.5617 -11.4100 -11.3851 -11.3283 -11.3168 -11.3142 -11.3135 -11.2980
-11.2923 -11.2892 -11.2873 -11.2858 -11.2849 -11.2818 -11.2809 -11.2770
-11.2764 -11.2578 -11.2550 -11.2484 -11.2467  -9.0129  -9.0042  -8.9843
 -8.9831  -6.6936  -6.6928  -6.6924  -6.6851  -6.6844  -6.6833  -6.6653
 -6.6646  -6.6641  -6.6638  -6.6633  -6.6625  -1.6622  -1.4677  -1.4148
 -1.4118  -1.3704  -1.2289  -1.1910  -1.1640  -1.1385  -1.0841  -1.0490
 -1.0442  -1.0250  -0.9979  -0.9867  -0.9636  -0.9584  -0.9488  -0.9396
 -0.8931  -0.8700  -0.8449  -0.8105  -0.7968  -0.7876  -0.7838  -0.7627
 -0.7556  -0.7314  -0.7270  -0.7119  -0.7003  -0.6858  -0.6819  -0.6803
 -0.6744  -0.6589  -0.6574  -0.6509  -0.6286  -0.6183  -0.6161  -0.6075
 -0.6000  -0.5853  -0.5732  -0.5698  -0.5654  -0.5615  -0.5542  -0.5472
 -0.5313  -0.5252  -0.5212  -0.5159  -0.5129  -0.5084  -0.5045  -0.4942
 -0.4867  -0.4830  -0.4753  -0.4736  -0.4675  -0.4634  -0.4584  -0.4083
 -0.3922  -0.3844  -0.3576  -0.3492  -0.3210  -0.2955  -0.2525

          Ground-State Mulliken Net Atomic Charges

     Atom                 Charge (a.u.)
  ----------------------------------------
      1 C                    -0.193828
      2 C                    -0.253984
      3 S                    -0.026314
      4 C                    -0.019434
      5 H                     0.195599
      6 C                    -0.026106
      7 C                     0.235001
      8 C                     0.244033
      9 C                    -0.045738
     10 C                    -0.020898
     11 O                    -0.333755
     12 O                    -0.341173
     13 C                    -0.085654
     14 H                     0.121631
     15 H                     0.090841
     16 H                     0.092911
     17 C                    -0.087093
     18 H                     0.124758
     19 H                     0.094426
     20 H                     0.089367
     21 C                    -0.249852
     22 S                    -0.031113
     23 C                     0.014472
     24 H                     0.196562
     25 H                     0.205332
     26 C                    -0.126993
     27 S                     0.123662
     28 C                    -0.143192
     29 C                    -0.008517
     30 C                    -0.087832
     31 S                     0.056062
     32 C                    -0.151683
     33 C                     0.396042
     34 F                    -0.205570
     35 C                     0.447079
     36 O                    -0.461613
     37 O                    -0.301157
     38 C                    -0.058242
     39 H                     0.121370
     40 H                     0.095291
     41 H                     0.095252
     42 H                     0.220049
  ----------------------------------------
  Sum of atomic charges =     0.000000

                    Cartesian Multipole Moments
 -----------------------------------------------------------------
    Charge (ESU x 10^10)
                 0.0000
    Dipole Moment (Debye)
         X       2.9620      Y       1.6960      Z       2.9761
       Tot       4.5285
    Quadrupole Moments (Debye-Ang)
        XX    -169.3064     XY       8.2326     YY    -174.8623
        XZ     -11.9812     YZ      -5.8567     ZZ    -203.2343

 Total job time:  372.22s(wall), 12517.79s(cpu)
        *  Thank you very much for using Q-Chem.  Have a nice day.  *
