 Q-Chem 5.4, Q-Chem, Inc., Pleasanton, CA (2021)
 Q-Chem 5.4.0 for Intel X86 EM64T Linux

User input:
--------------------------------------------------------------
$molecule
0 1
C	-0.318247	-8.517702	-0.041330
C	0.757333	-7.641575	-0.049453
S	-1.866383	-7.638634	-0.024919
C	0.380867	-6.264785	-0.049488
H	1.805573	-7.966081	-0.055368
C	-1.045647	-6.072714	-0.051115
C	-1.608077	-4.787049	-0.026203
C	1.282948	-5.162801	-0.026637
C	0.720187	-3.874817	0.002586
C	-0.707853	-3.683952	-0.001903
O	2.602386	-5.499772	-0.054867
O	-2.933517	-4.459055	0.003348
C	-3.881999	-5.329063	-0.602384
H	-4.825744	-4.755694	-0.675079
H	-4.070972	-6.238095	0.009592
H	-3.562152	-5.637262	-1.621263
C	3.588253	-4.572261	0.381947
H	4.535674	-5.139743	0.449872
H	3.342986	-4.153131	1.381388
H	3.728239	-3.739531	-0.341040
C	-1.080725	-2.306654	0.000348
S	1.542694	-2.306501	-0.010924
C	0.000000	-1.435185	0.000000
H	-2.127635	-1.978138	0.003612
H	-0.320559	-9.614033	-0.037764
C	0.000000	0.000000	0.000000
S	0.234628	0.873813	1.507541
C	0.640889	2.392969	0.718873
C	0.234815	0.873434	-1.067872
C	0.592377	2.216811	-0.686410
S	0.174526	0.637422	-2.805516
C	0.622551	2.330840	-3.054530
C	0.803505	3.015647	-1.862551
F	1.144815	4.307994	-1.819088
C	0.740334	2.763108	-4.456084
O	0.548793	2.017428	-5.406510
O	1.082665	4.069544	-4.569225
C	1.215848	4.546407	-5.916207
H	1.494066	5.611729	-5.833064
H	0.261736	4.436296	-6.470168
H	2.000108	3.981294	-6.459293
H	0.878739	3.286099	1.306486
$end

$rem
JOBTYPE		SP
EXCHANGE	HF
CORRELATION	pRIMP2
BASIS		cc-pvtz
METHOD		rimp2
AUX_BASIS	rimp2-cc-pvtz
SOLVENT_METHOD	PCM
PURECART	11111
SYMMETRY	false
MEM_TOTAL	110000
SCF_CONVERGENCE = 6
THRESH=10
GUI = 2
$end

$solvent
dielectric 4.90
$end
--------------------------------------------------------------

             Standard Nuclear Orientation (Angstroms)
    I     Atom           X                Y                Z
 ----------------------------------------------------------------
    1      C      -0.3182470000    -8.5177020000    -0.0413300000
    2      C       0.7573330000    -7.6415750000    -0.0494530000
    3      S      -1.8663830000    -7.6386340000    -0.0249190000
    4      C       0.3808670000    -6.2647850000    -0.0494880000
    5      H       1.8055730000    -7.9660810000    -0.0553680000
    6      C      -1.0456470000    -6.0727140000    -0.0511150000
    7      C      -1.6080770000    -4.7870490000    -0.0262030000
    8      C       1.2829480000    -5.1628010000    -0.0266370000
    9      C       0.7201870000    -3.8748170000     0.0025860000
   10      C      -0.7078530000    -3.6839520000    -0.0019030000
   11      O       2.6023860000    -5.4997720000    -0.0548670000
   12      O      -2.9335170000    -4.4590550000     0.0033480000
   13      C      -3.8819990000    -5.3290630000    -0.6023840000
   14      H      -4.8257440000    -4.7556940000    -0.6750790000
   15      H      -4.0709720000    -6.2380950000     0.0095920000
   16      H      -3.5621520000    -5.6372620000    -1.6212630000
   17      C       3.5882530000    -4.5722610000     0.3819470000
   18      H       4.5356740000    -5.1397430000     0.4498720000
   19      H       3.3429860000    -4.1531310000     1.3813880000
   20      H       3.7282390000    -3.7395310000    -0.3410400000
   21      C      -1.0807250000    -2.3066540000     0.0003480000
   22      S       1.5426940000    -2.3065010000    -0.0109240000
   23      C       0.0000000000    -1.4351850000     0.0000000000
   24      H      -2.1276350000    -1.9781380000     0.0036120000
   25      H      -0.3205590000    -9.6140330000    -0.0377640000
   26      C       0.0000000000     0.0000000000     0.0000000000
   27      S       0.2346280000     0.8738130000     1.5075410000
   28      C       0.6408890000     2.3929690000     0.7188730000
   29      C       0.2348150000     0.8734340000    -1.0678720000
   30      C       0.5923770000     2.2168110000    -0.6864100000
   31      S       0.1745260000     0.6374220000    -2.8055160000
   32      C       0.6225510000     2.3308400000    -3.0545300000
   33      C       0.8035050000     3.0156470000    -1.8625510000
   34      F       1.1448150000     4.3079940000    -1.8190880000
   35      C       0.7403340000     2.7631080000    -4.4560840000
   36      O       0.5487930000     2.0174280000    -5.4065100000
   37      O       1.0826650000     4.0695440000    -4.5692250000
   38      C       1.2158480000     4.5464070000    -5.9162070000
   39      H       1.4940660000     5.6117290000    -5.8330640000
   40      H       0.2617360000     4.4362960000    -6.4701680000
   41      H       2.0001080000     3.9812940000    -6.4592930000
   42      H       0.8787390000     3.2860990000     1.3064860000
 ----------------------------------------------------------------

   10   -2754.3106107002      7.12e-07  Convergence criterion met
 Total energy in the final basis set =    -2754.3106107002
        RIMP2         total energy =     -2759.3605744994 a.u.

                    Orbital Energies (a.u.)
 --------------------------------------------------------------

 Alpha MOs
 -- Occupied --
-92.0141 -91.9971 -91.9886 -91.9865 -26.3426 -20.6142 -20.5923 -20.5917
-20.5605 -11.4086 -11.3815 -11.3190 -11.3185 -11.3100 -11.3008 -11.2963
-11.2946 -11.2906 -11.2885 -11.2870 -11.2862 -11.2862 -11.2839 -11.2834
-11.2802 -11.2600 -11.2595 -11.2575 -11.2500  -9.0126  -8.9971  -8.9889
 -8.9864  -6.6933  -6.6927  -6.6922  -6.6781  -6.6773  -6.6762  -6.6699
 -6.6692  -6.6682  -6.6674  -6.6668  -6.6659  -1.6598  -1.4666  -1.4164
 -1.4144  -1.3693  -1.2202  -1.1942  -1.1651  -1.1350  -1.0841  -1.0519
 -1.0406  -1.0217  -1.0015  -0.9875  -0.9615  -0.9604  -0.9503  -0.9384
 -0.8957  -0.8667  -0.8509  -0.8096  -0.7929  -0.7885  -0.7862  -0.7649
 -0.7548  -0.7338  -0.7246  -0.7090  -0.7005  -0.6845  -0.6831  -0.6800
 -0.6733  -0.6591  -0.6571  -0.6527  -0.6303  -0.6201  -0.6173  -0.6050
 -0.5970  -0.5855  -0.5773  -0.5690  -0.5661  -0.5602  -0.5555  -0.5481
 -0.5332  -0.5305  -0.5235  -0.5158  -0.5149  -0.5089  -0.5037  -0.4945
 -0.4897  -0.4794  -0.4746  -0.4729  -0.4691  -0.4666  -0.4613  -0.4046
 -0.3975  -0.3870  -0.3567  -0.3490  -0.3135  -0.2990  -0.2596

          Ground-State Mulliken Net Atomic Charges

     Atom                 Charge (a.u.)
  ----------------------------------------
      1 C                    -0.187224
      2 C                    -0.254773
      3 S                    -0.022138
      4 C                    -0.012631
      5 H                     0.196548
      6 C                    -0.028620
      7 C                     0.246627
      8 C                     0.238775
      9 C                    -0.042051
     10 C                    -0.028892
     11 O                    -0.333197
     12 O                    -0.339653
     13 C                    -0.085765
     14 H                     0.122765
     15 H                     0.090895
     16 H                     0.094456
     17 C                    -0.086393
     18 H                     0.124765
     19 H                     0.094111
     20 H                     0.090332
     21 C                    -0.214388
     22 S                     0.001433
     23 C                    -0.070113
     24 H                     0.197364
     25 H                     0.206557
     26 C                    -0.010588
     27 S                     0.109469
     28 C                    -0.186473
     29 C                    -0.009821
     30 C                    -0.094518
     31 S                     0.009946
     32 C                    -0.154234
     33 C                     0.390618
     34 F                    -0.206901
     35 C                     0.445911
     36 O                    -0.461307
     37 O                    -0.300798
     38 C                    -0.058436
     39 H                     0.121163
     40 H                     0.094984
     41 H                     0.094978
     42 H                     0.217214
  ----------------------------------------
  Sum of atomic charges =     0.000000

                    Cartesian Multipole Moments
 -----------------------------------------------------------------
    Charge (ESU x 10^10)
                 0.0000
    Dipole Moment (Debye)
         X       0.7703      Y       0.8309      Z       2.7819
       Tot       3.0038
    Quadrupole Moments (Debye-Ang)
        XX    -177.1328     XY       4.4955     YY    -160.2188
        XZ       3.8555     YZ      -5.5943     ZZ    -205.3713

 Total job time:  305.39s(wall), 9481.61s(cpu)
        *  Thank you very much for using Q-Chem.  Have a nice day.  *
