 Q-Chem 5.4, Q-Chem, Inc., Pleasanton, CA (2021)
 Q-Chem 5.4.0 for Intel X86 EM64T Linux

User input:
--------------------------------------------------------------
$molecule
0 1
C	0.194917	-8.517702	-0.254945
C	-0.335839	-7.641575	0.680596
S	0.954772	-7.638634	-1.603876
C	-0.147576	-6.264785	0.354585
H	-0.854836	-7.966081	1.591356
C	0.567090	-6.072714	-0.879999
C	0.826731	-4.787049	-1.379534
C	-0.618405	-5.162801	1.124384
C	-0.362333	-3.874817	0.622407
C	0.355575	-3.683952	-0.612067
O	-1.253677	-5.499772	2.281166
O	1.463859	-4.459055	-2.542174
C	2.462679	-5.329063	-3.060718
H	2.997507	-4.755694	-3.841678
H	2.027179	-6.238095	-3.530361
H	3.185132	-5.637262	-2.274283
C	-2.124902	-4.572261	2.916545
H	-2.657438	-5.139743	3.703073
H	-2.867810	-4.153131	2.204417
H	-1.568770	-3.739531	3.399269
C	0.540061	-2.306654	-0.936109
S	-0.761887	-2.306501	1.341474
C	-0.000000	-1.435185	-0.000000
H	1.060690	-1.978138	-1.844392
H	0.192984	-9.614033	-0.258730
C	0.000000	0.000000	0.000000
S	0.079327	0.901280	1.507541
C	0.215617	2.467903	0.718873
C	0.079577	0.900940	-1.067872
C	0.198433	2.285998	-0.686410
S	0.061187	0.658044	-2.805516
C	0.208347	2.403534	-3.054530
C	0.267636	3.109360	-1.862551
F	0.379347	4.441341	-1.819088
C	0.249278	2.849688	-4.456084
O	0.190132	2.082076	-5.406510
O	0.359548	4.195721	-4.569225
C	0.407901	4.688467	-5.916207
H	0.496901	5.785916	-5.833064
H	-0.512596	4.414348	-6.470168
H	1.278377	4.268124	-6.459293
H	0.294764	3.388767	1.306486
$end

$rem
JOBTYPE		SP
EXCHANGE	HF
CORRELATION	pRIMP2
BASIS		cc-pvtz
METHOD		rimp2
AUX_BASIS	rimp2-cc-pvtz
SOLVENT_METHOD	PCM
PURECART	11111
SYMMETRY	false
MEM_TOTAL	110000
SCF_CONVERGENCE = 6
THRESH=10
GUI = 2
$end

$solvent
dielectric 4.90
$end
--------------------------------------------------------------

             Standard Nuclear Orientation (Angstroms)
    I     Atom           X                Y                Z
 ----------------------------------------------------------------
    1      C       0.1949170000    -8.5177020000    -0.2549450000
    2      C      -0.3358390000    -7.6415750000     0.6805960000
    3      S       0.9547720000    -7.6386340000    -1.6038760000
    4      C      -0.1475760000    -6.2647850000     0.3545850000
    5      H      -0.8548360000    -7.9660810000     1.5913560000
    6      C       0.5670900000    -6.0727140000    -0.8799990000
    7      C       0.8267310000    -4.7870490000    -1.3795340000
    8      C      -0.6184050000    -5.1628010000     1.1243840000
    9      C      -0.3623330000    -3.8748170000     0.6224070000
   10      C       0.3555750000    -3.6839520000    -0.6120670000
   11      O      -1.2536770000    -5.4997720000     2.2811660000
   12      O       1.4638590000    -4.4590550000    -2.5421740000
   13      C       2.4626790000    -5.3290630000    -3.0607180000
   14      H       2.9975070000    -4.7556940000    -3.8416780000
   15      H       2.0271790000    -6.2380950000    -3.5303610000
   16      H       3.1851320000    -5.6372620000    -2.2742830000
   17      C      -2.1249020000    -4.5722610000     2.9165450000
   18      H      -2.6574380000    -5.1397430000     3.7030730000
   19      H      -2.8678100000    -4.1531310000     2.2044170000
   20      H      -1.5687700000    -3.7395310000     3.3992690000
   21      C       0.5400610000    -2.3066540000    -0.9361090000
   22      S      -0.7618870000    -2.3065010000     1.3414740000
   23      C       0.0000000000    -1.4351850000     0.0000000000
   24      H       1.0606900000    -1.9781380000    -1.8443920000
   25      H       0.1929840000    -9.6140330000    -0.2587300000
   26      C       0.0000000000     0.0000000000     0.0000000000
   27      S       0.0793270000     0.9012800000     1.5075410000
   28      C       0.2156170000     2.4679030000     0.7188730000
   29      C       0.0795770000     0.9009400000    -1.0678720000
   30      C       0.1984330000     2.2859980000    -0.6864100000
   31      S       0.0611870000     0.6580440000    -2.8055160000
   32      C       0.2083470000     2.4035340000    -3.0545300000
   33      C       0.2676360000     3.1093600000    -1.8625510000
   34      F       0.3793470000     4.4413410000    -1.8190880000
   35      C       0.2492780000     2.8496880000    -4.4560840000
   36      O       0.1901320000     2.0820760000    -5.4065100000
   37      O       0.3595480000     4.1957210000    -4.5692250000
   38      C       0.4079010000     4.6884670000    -5.9162070000
   39      H       0.4969010000     5.7859160000    -5.8330640000
   40      H      -0.5125960000     4.4143480000    -6.4701680000
   41      H       1.2783770000     4.2681240000    -6.4592930000
   42      H       0.2947640000     3.3887670000     1.3064860000
 ----------------------------------------------------------------

   10   -2754.3166400971      7.40e-07  Convergence criterion met
 Total energy in the final basis set =    -2754.3166400971
        RIMP2         total energy =     -2759.3683038433 a.u.

                    Orbital Energies (a.u.)
 --------------------------------------------------------------

 Alpha MOs
 -- Occupied --
-92.0159 -91.9983 -91.9912 -91.9865 -26.3431 -20.6147 -20.5930 -20.5912
-20.5611 -11.4092 -11.3821 -11.3201 -11.3179 -11.3093 -11.3013 -11.2994
-11.2975 -11.2967 -11.2887 -11.2877 -11.2870 -11.2856 -11.2853 -11.2844
-11.2798 -11.2621 -11.2590 -11.2567 -11.2501  -9.0145  -8.9983  -8.9917
 -8.9864  -6.6952  -6.6947  -6.6941  -6.6793  -6.6785  -6.6774  -6.6727
 -6.6720  -6.6711  -6.6674  -6.6668  -6.6659  -1.6601  -1.4671  -1.4171
 -1.4140  -1.3698  -1.2215  -1.1952  -1.1663  -1.1363  -1.0856  -1.0525
 -1.0416  -1.0232  -1.0021  -0.9885  -0.9637  -0.9599  -0.9506  -0.9393
 -0.8966  -0.8677  -0.8524  -0.8080  -0.7988  -0.7878  -0.7867  -0.7646
 -0.7552  -0.7345  -0.7250  -0.7096  -0.7021  -0.6853  -0.6836  -0.6806
 -0.6737  -0.6595  -0.6583  -0.6526  -0.6308  -0.6201  -0.6172  -0.6031
 -0.5979  -0.5841  -0.5792  -0.5709  -0.5653  -0.5621  -0.5540  -0.5501
 -0.5353  -0.5304  -0.5248  -0.5178  -0.5164  -0.5088  -0.5067  -0.4962
 -0.4881  -0.4810  -0.4763  -0.4737  -0.4689  -0.4670  -0.4604  -0.4232
 -0.3963  -0.3852  -0.3600  -0.3496  -0.3258  -0.2899  -0.2522

          Ground-State Mulliken Net Atomic Charges

     Atom                 Charge (a.u.)
  ----------------------------------------
      1 C                    -0.188907
      2 C                    -0.253828
      3 S                    -0.020997
      4 C                    -0.016260
      5 H                     0.196246
      6 C                    -0.028561
      7 C                     0.244090
      8 C                     0.240892
      9 C                    -0.043293
     10 C                    -0.028473
     11 O                    -0.333107
     12 O                    -0.339331
     13 C                    -0.086076
     14 H                     0.123212
     15 H                     0.091323
     16 H                     0.093773
     17 C                    -0.087807
     18 H                     0.125695
     19 H                     0.095359
     20 H                     0.089363
     21 C                    -0.224743
     22 S                    -0.027732
     23 C                    -0.007281
     24 H                     0.196630
     25 H                     0.206420
     26 C                    -0.006732
     27 S                     0.092024
     28 C                    -0.194009
     29 C                     0.003678
     30 C                    -0.111717
     31 S                     0.008993
     32 C                    -0.157182
     33 C                     0.400878
     34 F                    -0.207101
     35 C                     0.443667
     36 O                    -0.460718
     37 O                    -0.300557
     38 C                    -0.058672
     39 H                     0.121390
     40 H                     0.095253
     41 H                     0.095036
     42 H                     0.219160
  ----------------------------------------
  Sum of atomic charges =     0.000000

                    Cartesian Multipole Moments
 -----------------------------------------------------------------
    Charge (ESU x 10^10)
                 0.0000
    Dipole Moment (Debye)
         X       0.4014      Y       0.9774      Z       3.1899
       Tot       3.3603
    Quadrupole Moments (Debye-Ang)
        XX    -190.1312     XY       0.0346     YY    -159.1448
        XZ     -13.2698     YZ      -7.9304     ZZ    -193.0702

 Total job time:  282.70s(wall), 9344.62s(cpu)
        *  Thank you very much for using Q-Chem.  Have a nice day.  *
