 Q-Chem 5.4, Q-Chem, Inc., Pleasanton, CA (2021)
 Q-Chem 5.4.0 for Intel X86 EM64T Linux

User input:
--------------------------------------------------------------
$molecule
0 1
C	0.254945	-8.517702	0.194917
C	-0.680596	-7.641575	-0.335839
S	1.603876	-7.638634	0.954772
C	-0.354585	-6.264785	-0.147576
H	-1.591356	-7.966081	-0.854836
C	0.879999	-6.072714	0.567090
C	1.379534	-4.787049	0.826731
C	-1.124384	-5.162801	-0.618405
C	-0.622407	-3.874817	-0.362333
C	0.612067	-3.683952	0.355575
O	-2.281166	-5.499772	-1.253677
O	2.542174	-4.459055	1.463859
C	3.060718	-5.329063	2.462679
H	3.841678	-4.755694	2.997507
H	3.530361	-6.238095	2.027179
H	2.274283	-5.637262	3.185132
C	-2.916545	-4.572261	-2.124902
H	-3.703073	-5.139743	-2.657438
H	-2.204417	-4.153131	-2.867810
H	-3.399269	-3.739531	-1.568770
C	0.936109	-2.306654	0.540061
S	-1.341474	-2.306501	-0.761887
C	-0.000000	-1.435185	-0.000000
H	1.844392	-1.978138	1.060690
H	0.258730	-9.614033	0.192984
C	0.000000	0.000000	0.000000
S	0.382799	0.819795	1.507541
C	1.046687	2.245325	0.718873
C	0.382918	0.819389	-1.067872
C	0.968323	2.080267	-0.686410
S	0.282561	0.597432	-2.805516
C	1.017839	2.187324	-3.054530
C	1.314960	2.830306	-1.862551
F	1.875498	4.043751	-1.819088
C	1.208895	2.592573	-4.456084
O	0.890778	1.891482	-5.406510
O	1.772886	3.819715	-4.569225
C	1.986852	4.266207	-5.916207
H	2.445834	5.267032	-5.833064
H	1.028114	4.323448	-6.470168
H	2.661066	3.573494	-6.459293
H	1.436015	3.083584	1.306486
$end

$rem
JOBTYPE		SP
EXCHANGE	HF
CORRELATION	pRIMP2
BASIS		cc-pvtz
METHOD		rimp2
AUX_BASIS	rimp2-cc-pvtz
SOLVENT_METHOD	PCM
PURECART	11111
SYMMETRY	false
MEM_TOTAL	110000
SCF_CONVERGENCE = 6
THRESH=10
GUI = 2
$end

$solvent
dielectric 4.90
$end
--------------------------------------------------------------

             Standard Nuclear Orientation (Angstroms)
    I     Atom           X                Y                Z
 ----------------------------------------------------------------
    1      C       0.2549450000    -8.5177020000     0.1949170000
    2      C      -0.6805960000    -7.6415750000    -0.3358390000
    3      S       1.6038760000    -7.6386340000     0.9547720000
    4      C      -0.3545850000    -6.2647850000    -0.1475760000
    5      H      -1.5913560000    -7.9660810000    -0.8548360000
    6      C       0.8799990000    -6.0727140000     0.5670900000
    7      C       1.3795340000    -4.7870490000     0.8267310000
    8      C      -1.1243840000    -5.1628010000    -0.6184050000
    9      C      -0.6224070000    -3.8748170000    -0.3623330000
   10      C       0.6120670000    -3.6839520000     0.3555750000
   11      O      -2.2811660000    -5.4997720000    -1.2536770000
   12      O       2.5421740000    -4.4590550000     1.4638590000
   13      C       3.0607180000    -5.3290630000     2.4626790000
   14      H       3.8416780000    -4.7556940000     2.9975070000
   15      H       3.5303610000    -6.2380950000     2.0271790000
   16      H       2.2742830000    -5.6372620000     3.1851320000
   17      C      -2.9165450000    -4.5722610000    -2.1249020000
   18      H      -3.7030730000    -5.1397430000    -2.6574380000
   19      H      -2.2044170000    -4.1531310000    -2.8678100000
   20      H      -3.3992690000    -3.7395310000    -1.5687700000
   21      C       0.9361090000    -2.3066540000     0.5400610000
   22      S      -1.3414740000    -2.3065010000    -0.7618870000
   23      C       0.0000000000    -1.4351850000     0.0000000000
   24      H       1.8443920000    -1.9781380000     1.0606900000
   25      H       0.2587300000    -9.6140330000     0.1929840000
   26      C       0.0000000000     0.0000000000     0.0000000000
   27      S       0.3827990000     0.8197950000     1.5075410000
   28      C       1.0466870000     2.2453250000     0.7188730000
   29      C       0.3829180000     0.8193890000    -1.0678720000
   30      C       0.9683230000     2.0802670000    -0.6864100000
   31      S       0.2825610000     0.5974320000    -2.8055160000
   32      C       1.0178390000     2.1873240000    -3.0545300000
   33      C       1.3149600000     2.8303060000    -1.8625510000
   34      F       1.8754980000     4.0437510000    -1.8190880000
   35      C       1.2088950000     2.5925730000    -4.4560840000
   36      O       0.8907780000     1.8914820000    -5.4065100000
   37      O       1.7728860000     3.8197150000    -4.5692250000
   38      C       1.9868520000     4.2662070000    -5.9162070000
   39      H       2.4458340000     5.2670320000    -5.8330640000
   40      H       1.0281140000     4.3234480000    -6.4701680000
   41      H       2.6610660000     3.5734940000    -6.4592930000
   42      H       1.4360150000     3.0835840000     1.3064860000
 ----------------------------------------------------------------

   10   -2754.3046931636      7.12e-07  Convergence criterion met
 Total energy in the final basis set =    -2754.3046931636
        RIMP2         total energy =     -2759.3576238230 a.u.

                    Orbital Energies (a.u.)
 --------------------------------------------------------------

 Alpha MOs
 -- Occupied --
-92.0153 -91.9991 -91.9881 -91.9858 -26.3433 -20.6144 -20.5919 -20.5910
-20.5607 -11.4090 -11.3824 -11.3188 -11.3168 -11.3128 -11.3040 -11.2967
-11.2943 -11.2930 -11.2886 -11.2864 -11.2860 -11.2848 -11.2846 -11.2835
-11.2790 -11.2603 -11.2579 -11.2548 -11.2496  -9.0137  -8.9990  -8.9885
 -8.9858  -6.6944  -6.6937  -6.6933  -6.6800  -6.6793  -6.6782  -6.6694
 -6.6687  -6.6678  -6.6668  -6.6661  -6.6653  -1.6604  -1.4669  -1.4160
 -1.4137  -1.3695  -1.2222  -1.1937  -1.1650  -1.1360  -1.0844  -1.0512
 -1.0416  -1.0229  -1.0008  -0.9875  -0.9628  -0.9590  -0.9497  -0.9395
 -0.8949  -0.8676  -0.8497  -0.8125  -0.7918  -0.7881  -0.7862  -0.7645
 -0.7551  -0.7331  -0.7252  -0.7099  -0.6995  -0.6849  -0.6828  -0.6807
 -0.6736  -0.6589  -0.6573  -0.6523  -0.6299  -0.6196  -0.6163  -0.6046
 -0.5981  -0.5874  -0.5755  -0.5693  -0.5667  -0.5630  -0.5540  -0.5528
 -0.5308  -0.5274  -0.5222  -0.5159  -0.5148  -0.5097  -0.5045  -0.4938
 -0.4890  -0.4797  -0.4753  -0.4732  -0.4701  -0.4646  -0.4602  -0.4113
 -0.3958  -0.3860  -0.3597  -0.3467  -0.3186  -0.2957  -0.2558

          Ground-State Mulliken Net Atomic Charges

     Atom                 Charge (a.u.)
  ----------------------------------------
      1 C                    -0.190085
      2 C                    -0.253787
      3 S                    -0.023194
      4 C                    -0.016685
      5 H                     0.196237
      6 C                    -0.028153
      7 C                     0.238975
      8 C                     0.244823
      9 C                    -0.047062
     10 C                    -0.020082
     11 O                    -0.333552
     12 O                    -0.340533
     13 C                    -0.085638
     14 H                     0.122166
     15 H                     0.091131
     16 H                     0.093700
     17 C                    -0.086757
     18 H                     0.124614
     19 H                     0.095416
     20 H                     0.089660
     21 C                    -0.230345
     22 S                    -0.004214
     23 C                    -0.031268
     24 H                     0.200048
     25 H                     0.206120
     26 C                    -0.052846
     27 S                     0.103397
     28 C                    -0.177514
     29 C                     0.015002
     30 C                    -0.100724
     31 S                     0.014296
     32 C                    -0.151095
     33 C                     0.390309
     34 F                    -0.206271
     35 C                     0.445879
     36 O                    -0.461338
     37 O                    -0.301002
     38 C                    -0.058456
     39 H                     0.121243
     40 H                     0.095040
     41 H                     0.095077
     42 H                     0.217468
  ----------------------------------------
  Sum of atomic charges =     0.000000

                    Cartesian Multipole Moments
 -----------------------------------------------------------------
    Charge (ESU x 10^10)
                -0.0000
    Dipole Moment (Debye)
         X       1.0284      Y       1.1934      Z       3.0968
       Tot       3.4745
    Quadrupole Moments (Debye-Ang)
        XX    -186.0824     XY       6.8512     YY    -164.0608
        XZ       9.4971     YZ      -7.8330     ZZ    -194.4851

 Total job time:  305.92s(wall), 10383.56s(cpu)
        *  Thank you very much for using Q-Chem.  Have a nice day.  *
