 Q-Chem 5.4, Q-Chem, Inc., Pleasanton, CA (2021)
 Q-Chem 5.4.0 for Intel X86 EM64T Linux

User input:
--------------------------------------------------------------
$molecule
0 1
C	0.172904	-8.517702	0.270358
C	-0.524688	-7.641575	-0.548363
S	1.180599	-7.638634	1.445750
C	-0.282727	-6.264785	-0.259951
H	-1.203014	-7.966081	-1.347559
C	0.632972	-6.072714	0.833868
C	1.013580	-4.787049	1.248701
C	-0.845068	-5.162801	-0.965673
C	-0.460946	-3.874817	-0.553357
C	0.453541	-3.683952	0.543470
O	-1.714812	-5.499772	-1.958276
O	1.888193	-4.459055	2.245053
C	2.033848	-5.329063	3.360989
H	2.584788	-4.755694	4.130667
H	2.624118	-6.238095	3.112380
H	1.047748	-5.637262	3.770895
C	-2.013896	-4.572261	-2.994272
H	-2.570853	-5.139743	-3.763700
H	-1.090625	-4.153131	-3.448815
H	-2.657717	-3.739531	-2.636780
C	0.694943	-2.306654	0.827659
S	-0.999993	-2.306501	-1.174750
C	-0.000000	-1.435185	-0.000000
H	1.370385	-1.978138	1.627541
H	0.177122	-9.614033	0.269836
C	0.000000	0.000000	0.000000
S	0.452792	0.783312	1.507541
C	1.238397	2.145556	0.718873
C	0.452875	0.782898	-1.067872
C	1.145945	1.987956	-0.686410
S	0.333556	0.570531	-2.805516
C	1.204604	2.090290	-3.054530
C	1.556633	2.704929	-1.862551
F	2.220797	3.864903	-1.819088
C	1.430252	2.477345	-4.456084
O	1.052242	1.806648	-5.406510
O	2.099050	3.650663	-4.569225
C	2.351116	4.076808	-5.916207
H	2.895579	5.033821	-5.833064
H	1.401015	4.217390	-6.470168
H	2.962391	3.327969	-6.459293
H	1.699302	2.946693	1.306486
$end

$rem
JOBTYPE		SP
EXCHANGE	HF
CORRELATION	pRIMP2
BASIS		cc-pvtz
METHOD		rimp2
AUX_BASIS	rimp2-cc-pvtz
SOLVENT_METHOD	PCM
PURECART	11111
SYMMETRY	false
MEM_TOTAL	110000
SCF_CONVERGENCE = 6
THRESH=10
GUI = 2
$end

$solvent
dielectric 4.90
$end
--------------------------------------------------------------

             Standard Nuclear Orientation (Angstroms)
    I     Atom           X                Y                Z
 ----------------------------------------------------------------
    1      C       0.1729040000    -8.5177020000     0.2703580000
    2      C      -0.5246880000    -7.6415750000    -0.5483630000
    3      S       1.1805990000    -7.6386340000     1.4457500000
    4      C      -0.2827270000    -6.2647850000    -0.2599510000
    5      H      -1.2030140000    -7.9660810000    -1.3475590000
    6      C       0.6329720000    -6.0727140000     0.8338680000
    7      C       1.0135800000    -4.7870490000     1.2487010000
    8      C      -0.8450680000    -5.1628010000    -0.9656730000
    9      C      -0.4609460000    -3.8748170000    -0.5533570000
   10      C       0.4535410000    -3.6839520000     0.5434700000
   11      O      -1.7148120000    -5.4997720000    -1.9582760000
   12      O       1.8881930000    -4.4590550000     2.2450530000
   13      C       2.0338480000    -5.3290630000     3.3609890000
   14      H       2.5847880000    -4.7556940000     4.1306670000
   15      H       2.6241180000    -6.2380950000     3.1123800000
   16      H       1.0477480000    -5.6372620000     3.7708950000
   17      C      -2.0138960000    -4.5722610000    -2.9942720000
   18      H      -2.5708530000    -5.1397430000    -3.7637000000
   19      H      -1.0906250000    -4.1531310000    -3.4488150000
   20      H      -2.6577170000    -3.7395310000    -2.6367800000
   21      C       0.6949430000    -2.3066540000     0.8276590000
   22      S      -0.9999930000    -2.3065010000    -1.1747500000
   23      C       0.0000000000    -1.4351850000     0.0000000000
   24      H       1.3703850000    -1.9781380000     1.6275410000
   25      H       0.1771220000    -9.6140330000     0.2698360000
   26      C       0.0000000000     0.0000000000     0.0000000000
   27      S       0.4527920000     0.7833120000     1.5075410000
   28      C       1.2383970000     2.1455560000     0.7188730000
   29      C       0.4528750000     0.7828980000    -1.0678720000
   30      C       1.1459450000     1.9879560000    -0.6864100000
   31      S       0.3335560000     0.5705310000    -2.8055160000
   32      C       1.2046040000     2.0902900000    -3.0545300000
   33      C       1.5566330000     2.7049290000    -1.8625510000
   34      F       2.2207970000     3.8649030000    -1.8190880000
   35      C       1.4302520000     2.4773450000    -4.4560840000
   36      O       1.0522420000     1.8066480000    -5.4065100000
   37      O       2.0990500000     3.6506630000    -4.5692250000
   38      C       2.3511160000     4.0768080000    -5.9162070000
   39      H       2.8955790000     5.0338210000    -5.8330640000
   40      H       1.4010150000     4.2173900000    -6.4701680000
   41      H       2.9623910000     3.3279690000    -6.4592930000
   42      H       1.6993020000     2.9466930000     1.3064860000
 ----------------------------------------------------------------

   10   -2754.3012339785      6.99e-07  Convergence criterion met
 Total energy in the final basis set =    -2754.3012339785
        RIMP2         total energy =     -2759.3563174044 a.u.

                    Orbital Energies (a.u.)
 --------------------------------------------------------------

 Alpha MOs
 -- Occupied --
-92.0152 -92.0009 -91.9887 -91.9854 -26.3439 -20.6148 -20.5918 -20.5902
-20.5612 -11.4095 -11.3833 -11.3189 -11.3160 -11.3153 -11.3067 -11.2972
-11.2971 -11.2935 -11.2888 -11.2863 -11.2861 -11.2856 -11.2842 -11.2833
-11.2780 -11.2603 -11.2566 -11.2510 -11.2492  -9.0139  -9.0008  -8.9892
 -8.9853  -6.6946  -6.6940  -6.6935  -6.6818  -6.6810  -6.6799  -6.6702
 -6.6695  -6.6686  -6.6663  -6.6657  -6.6648  -1.6610  -1.4673  -1.4158
 -1.4130  -1.3700  -1.2244  -1.1933  -1.1651  -1.1371  -1.0850  -1.0508
 -1.0425  -1.0244  -1.0005  -0.9876  -0.9641  -0.9583  -0.9493  -0.9405
 -0.8946  -0.8686  -0.8493  -0.8148  -0.7923  -0.7864  -0.7863  -0.7643
 -0.7554  -0.7327  -0.7258  -0.7107  -0.6989  -0.6855  -0.6826  -0.6814
 -0.6739  -0.6589  -0.6578  -0.6519  -0.6299  -0.6191  -0.6159  -0.6040
 -0.5994  -0.5883  -0.5761  -0.5682  -0.5670  -0.5639  -0.5544  -0.5521
 -0.5314  -0.5272  -0.5218  -0.5163  -0.5158  -0.5107  -0.5053  -0.4939
 -0.4882  -0.4798  -0.4760  -0.4736  -0.4698  -0.4645  -0.4594  -0.4197
 -0.3933  -0.3855  -0.3606  -0.3488  -0.3220  -0.2933  -0.2518

          Ground-State Mulliken Net Atomic Charges

     Atom                 Charge (a.u.)
  ----------------------------------------
      1 C                    -0.192404
      2 C                    -0.253246
      3 S                    -0.024255
      4 C                    -0.018327
      5 H                     0.196108
      6 C                    -0.026661
      7 C                     0.235977
      8 C                     0.245624
      9 C                    -0.042519
     10 C                    -0.017890
     11 O                    -0.333294
     12 O                    -0.341025
     13 C                    -0.085672
     14 H                     0.121857
     15 H                     0.091052
     16 H                     0.093448
     17 C                    -0.087761
     18 H                     0.124946
     19 H                     0.095612
     20 H                     0.089775
     21 C                    -0.259055
     22 S                    -0.018027
     23 C                    -0.012856
     24 H                     0.196145
     25 H                     0.205769
     26 C                    -0.042541
     27 S                     0.092431
     28 C                    -0.164526
     29 C                     0.031071
     30 C                    -0.110466
     31 S                     0.020610
     32 C                    -0.155605
     33 C                     0.395525
     34 F                    -0.205831
     35 C                     0.446286
     36 O                    -0.461228
     37 O                    -0.301049
     38 C                    -0.058435
     39 H                     0.121390
     40 H                     0.095072
     41 H                     0.095156
     42 H                     0.218819
  ----------------------------------------
  Sum of atomic charges =     0.000000

                    Cartesian Multipole Moments
 -----------------------------------------------------------------
    Charge (ESU x 10^10)
                 0.0000
    Dipole Moment (Debye)
         X       1.2509      Y       1.5256      Z       2.8197
       Tot       3.4413
    Quadrupole Moments (Debye-Ang)
        XX    -193.0937     XY       8.5150     YY    -166.6824
        XZ       6.3427     YZ      -6.8668     ZZ    -185.9834

 Total job time:  287.17s(wall), 8822.37s(cpu)
        *  Thank you very much for using Q-Chem.  Have a nice day.  *
