 Q-Chem 5.4, Q-Chem, Inc., Pleasanton, CA (2021)
 Q-Chem 5.4.0 for Intel X86 EM64T Linux

User input:
--------------------------------------------------------------
$molecule
0 1
C	0.306235	-8.517702	0.095966
C	-0.754415	-7.641575	-0.082807
S	1.833702	-7.638634	0.348635
C	-0.383675	-6.264785	-0.017401
H	-1.787757	-7.966081	-0.259008
C	1.020885	-6.072714	0.231913
C	1.579097	-4.787049	0.305044
C	-1.268082	-5.162801	-0.196549
C	-0.708796	-3.874817	-0.127606
C	0.696769	-3.683952	0.124792
O	-2.572378	-5.499772	-0.397867
O	2.889532	-4.459055	0.506103
C	3.718420	-5.329063	1.267335
H	4.635204	-4.755694	1.502804
H	4.010790	-6.238095	0.697471
H	3.226506	-5.637262	2.215194
C	-3.467415	-4.572261	-0.999238
H	-4.388648	-5.139743	-1.230649
H	-3.052323	-4.153131	-1.940905
H	-3.730819	-3.739531	-0.311543
C	1.064366	-2.306654	0.187323
S	-1.521154	-2.306501	-0.257128
C	0.000000	-1.435185	0.000000
H	2.095939	-1.978138	0.365903
H	0.309131	-9.614033	0.092855
C	0.000000	0.000000	0.000000
S	0.000474	0.904764	1.507541
C	-0.000295	2.477305	0.718873
C	0.000752	0.904447	-1.067872
C	-0.001560	2.294593	-0.686410
S	0.003602	0.660872	-2.805516
C	-0.001928	2.412546	-3.054530
C	-0.004381	3.120854	-1.862551
F	-0.009185	4.457503	-1.819088
C	-0.000038	2.860570	-4.456084
O	0.007944	2.090724	-5.406510
O	-0.007501	4.211092	-4.569225
C	-0.002278	4.706177	-5.916207
H	-0.009265	5.807207	-5.833064
H	-0.895381	4.352875	-6.470168
H	0.901521	4.363301	-6.459293
H	-0.001708	3.401562	1.306486
$end

$rem
JOBTYPE		SP
EXCHANGE	HF
CORRELATION	pRIMP2
BASIS		cc-pvtz
METHOD		rimp2
AUX_BASIS	rimp2-cc-pvtz
SOLVENT_METHOD	PCM
PURECART	11111
SYMMETRY	false
MEM_TOTAL	110000
SCF_CONVERGENCE = 6
THRESH=10
GUI = 2
$end

$solvent
dielectric 4.90
$end
--------------------------------------------------------------

             Standard Nuclear Orientation (Angstroms)
    I     Atom           X                Y                Z
 ----------------------------------------------------------------
    1      C       0.3062350000    -8.5177020000     0.0959660000
    2      C      -0.7544150000    -7.6415750000    -0.0828070000
    3      S       1.8337020000    -7.6386340000     0.3486350000
    4      C      -0.3836750000    -6.2647850000    -0.0174010000
    5      H      -1.7877570000    -7.9660810000    -0.2590080000
    6      C       1.0208850000    -6.0727140000     0.2319130000
    7      C       1.5790970000    -4.7870490000     0.3050440000
    8      C      -1.2680820000    -5.1628010000    -0.1965490000
    9      C      -0.7087960000    -3.8748170000    -0.1276060000
   10      C       0.6967690000    -3.6839520000     0.1247920000
   11      O      -2.5723780000    -5.4997720000    -0.3978670000
   12      O       2.8895320000    -4.4590550000     0.5061030000
   13      C       3.7184200000    -5.3290630000     1.2673350000
   14      H       4.6352040000    -4.7556940000     1.5028040000
   15      H       4.0107900000    -6.2380950000     0.6974710000
   16      H       3.2265060000    -5.6372620000     2.2151940000
   17      C      -3.4674150000    -4.5722610000    -0.9992380000
   18      H      -4.3886480000    -5.1397430000    -1.2306490000
   19      H      -3.0523230000    -4.1531310000    -1.9409050000
   20      H      -3.7308190000    -3.7395310000    -0.3115430000
   21      C       1.0643660000    -2.3066540000     0.1873230000
   22      S      -1.5211540000    -2.3065010000    -0.2571280000
   23      C       0.0000000000    -1.4351850000     0.0000000000
   24      H       2.0959390000    -1.9781380000     0.3659030000
   25      H       0.3091310000    -9.6140330000     0.0928550000
   26      C       0.0000000000     0.0000000000     0.0000000000
   27      S       0.0004740000     0.9047640000     1.5075410000
   28      C      -0.0002950000     2.4773050000     0.7188730000
   29      C       0.0007520000     0.9044470000    -1.0678720000
   30      C      -0.0015600000     2.2945930000    -0.6864100000
   31      S       0.0036020000     0.6608720000    -2.8055160000
   32      C      -0.0019280000     2.4125460000    -3.0545300000
   33      C      -0.0043810000     3.1208540000    -1.8625510000
   34      F      -0.0091850000     4.4575030000    -1.8190880000
   35      C      -0.0000380000     2.8605700000    -4.4560840000
   36      O       0.0079440000     2.0907240000    -5.4065100000
   37      O      -0.0075010000     4.2110920000    -4.5692250000
   38      C      -0.0022780000     4.7061770000    -5.9162070000
   39      H      -0.0092650000     5.8072070000    -5.8330640000
   40      H      -0.8953810000     4.3528750000    -6.4701680000
   41      H       0.9015210000     4.3633010000    -6.4592930000
   42      H      -0.0017080000     3.4015620000     1.3064860000
 ----------------------------------------------------------------

   10   -2754.3142708514      6.93e-07  Convergence criterion met
 Total energy in the final basis set =    -2754.3142708514
        RIMP2         total energy =     -2759.3635214469 a.u.

                    Orbital Energies (a.u.)
 --------------------------------------------------------------

 Alpha MOs
 -- Occupied --
-92.0147 -91.9964 -91.9890 -91.9866 -26.3424 -20.6141 -20.5923 -20.5920
-20.5604 -11.4085 -11.3812 -11.3192 -11.3188 -11.3082 -11.2997 -11.2968
-11.2962 -11.2916 -11.2884 -11.2868 -11.2865 -11.2864 -11.2841 -11.2833
-11.2804 -11.2607 -11.2596 -11.2587 -11.2502  -9.0130  -8.9964  -8.9893
 -8.9866  -6.6937  -6.6931  -6.6926  -6.6774  -6.6767  -6.6756  -6.6702
 -6.6696  -6.6686  -6.6675  -6.6669  -6.6661  -1.6595  -1.4666  -1.4165
 -1.4147  -1.3692  -1.2195  -1.1945  -1.1653  -1.1347  -1.0844  -1.0522
 -1.0403  -1.0215  -1.0018  -0.9877  -0.9618  -0.9600  -0.9503  -0.9386
 -0.8958  -0.8665  -0.8514  -0.8099  -0.7924  -0.7889  -0.7865  -0.7650
 -0.7548  -0.7340  -0.7244  -0.7090  -0.7003  -0.6845  -0.6834  -0.6800
 -0.6733  -0.6593  -0.6569  -0.6529  -0.6305  -0.6203  -0.6172  -0.6045
 -0.5967  -0.5849  -0.5772  -0.5697  -0.5670  -0.5616  -0.5550  -0.5504
 -0.5315  -0.5304  -0.5237  -0.5167  -0.5149  -0.5086  -0.5039  -0.4943
 -0.4897  -0.4782  -0.4757  -0.4727  -0.4702  -0.4662  -0.4611  -0.4050
 -0.3981  -0.3871  -0.3575  -0.3479  -0.3153  -0.2976  -0.2594

          Ground-State Mulliken Net Atomic Charges

     Atom                 Charge (a.u.)
  ----------------------------------------
      1 C                    -0.187272
      2 C                    -0.254194
      3 S                    -0.021807
      4 C                    -0.013132
      5 H                     0.196540
      6 C                    -0.027963
      7 C                     0.245046
      8 C                     0.238880
      9 C                    -0.046572
     10 C                    -0.032253
     11 O                    -0.333399
     12 O                    -0.339740
     13 C                    -0.085850
     14 H                     0.122751
     15 H                     0.091385
     16 H                     0.093926
     17 C                    -0.086705
     18 H                     0.124577
     19 H                     0.095454
     20 H                     0.089758
     21 C                    -0.213537
     22 S                     0.002495
     23 C                    -0.052246
     24 H                     0.197452
     25 H                     0.206605
     26 C                    -0.026738
     27 S                     0.109031
     28 C                    -0.187650
     29 C                     0.013685
     30 C                    -0.109627
     31 S                     0.006849
     32 C                    -0.154526
     33 C                     0.392944
     34 F                    -0.207223
     35 C                     0.445261
     36 O                    -0.461350
     37 O                    -0.300606
     38 C                    -0.058645
     39 H                     0.121191
     40 H                     0.094974
     41 H                     0.094997
     42 H                     0.217231
  ----------------------------------------
  Sum of atomic charges =     0.000000

                    Cartesian Multipole Moments
 -----------------------------------------------------------------
    Charge (ESU x 10^10)
                -0.0000
    Dipole Moment (Debye)
         X      -0.0854      Y       0.7838      Z       3.2965
       Tot       3.3895
    Quadrupole Moments (Debye-Ang)
        XX    -180.8172     XY      -0.2641     YY    -158.9842
        XZ       9.3441     YZ      -8.7647     ZZ    -202.8590

 Total job time:  340.09s(wall), 11635.58s(cpu)
        *  Thank you very much for using Q-Chem.  Have a nice day.  *
