 Q-Chem 5.4, Q-Chem, Inc., Pleasanton, CA (2021)
 Q-Chem 5.4.0 for Intel X86 EM64T Linux

User input:
--------------------------------------------------------------
$molecule
0 1
C	-0.254945	-8.517702	-0.194917
C	0.680596	-7.641575	0.335839
S	-1.603876	-7.638634	-0.954772
C	0.354585	-6.264785	0.147576
H	1.591356	-7.966081	0.854836
C	-0.879999	-6.072714	-0.567090
C	-1.379534	-4.787049	-0.826731
C	1.124384	-5.162801	0.618405
C	0.622407	-3.874817	0.362333
C	-0.612067	-3.683952	-0.355575
O	2.281166	-5.499772	1.253677
O	-2.542174	-4.459055	-1.463859
C	-3.060718	-5.329063	-2.462679
H	-3.841678	-4.755694	-2.997507
H	-3.530361	-6.238095	-2.027179
H	-2.274283	-5.637262	-3.185132
C	2.916545	-4.572261	2.124902
H	3.703073	-5.139743	2.657438
H	2.204417	-4.153131	2.867810
H	3.399269	-3.739531	1.568770
C	-0.936109	-2.306654	-0.540061
S	1.341474	-2.306501	0.761887
C	0.000000	-1.435185	0.000000
H	-1.844392	-1.978138	-1.060690
H	-0.258730	-9.614033	-0.192984
C	0.000000	0.000000	0.000000
S	0.000474	0.904764	1.507541
C	-0.000295	2.477305	0.718873
C	0.000752	0.904447	-1.067872
C	-0.001560	2.294593	-0.686410
S	0.003602	0.660872	-2.805516
C	-0.001928	2.412546	-3.054530
C	-0.004381	3.120854	-1.862551
F	-0.009185	4.457503	-1.819088
C	-0.000038	2.860570	-4.456084
O	0.007944	2.090724	-5.406510
O	-0.007501	4.211092	-4.569225
C	-0.002278	4.706177	-5.916207
H	-0.009265	5.807207	-5.833064
H	-0.895381	4.352875	-6.470168
H	0.901521	4.363301	-6.459293
H	-0.001708	3.401562	1.306486
$end

$rem
JOBTYPE		SP
EXCHANGE	HF
CORRELATION	pRIMP2
BASIS		cc-pvtz
METHOD		rimp2
AUX_BASIS	rimp2-cc-pvtz
SOLVENT_METHOD	PCM
PURECART	11111
SYMMETRY	false
MEM_TOTAL	110000
SCF_CONVERGENCE = 6
THRESH=10
GUI = 2
$end

$solvent
dielectric 4.90
$end
--------------------------------------------------------------

             Standard Nuclear Orientation (Angstroms)
    I     Atom           X                Y                Z
 ----------------------------------------------------------------
    1      C      -0.2549450000    -8.5177020000    -0.1949170000
    2      C       0.6805960000    -7.6415750000     0.3358390000
    3      S      -1.6038760000    -7.6386340000    -0.9547720000
    4      C       0.3545850000    -6.2647850000     0.1475760000
    5      H       1.5913560000    -7.9660810000     0.8548360000
    6      C      -0.8799990000    -6.0727140000    -0.5670900000
    7      C      -1.3795340000    -4.7870490000    -0.8267310000
    8      C       1.1243840000    -5.1628010000     0.6184050000
    9      C       0.6224070000    -3.8748170000     0.3623330000
   10      C      -0.6120670000    -3.6839520000    -0.3555750000
   11      O       2.2811660000    -5.4997720000     1.2536770000
   12      O      -2.5421740000    -4.4590550000    -1.4638590000
   13      C      -3.0607180000    -5.3290630000    -2.4626790000
   14      H      -3.8416780000    -4.7556940000    -2.9975070000
   15      H      -3.5303610000    -6.2380950000    -2.0271790000
   16      H      -2.2742830000    -5.6372620000    -3.1851320000
   17      C       2.9165450000    -4.5722610000     2.1249020000
   18      H       3.7030730000    -5.1397430000     2.6574380000
   19      H       2.2044170000    -4.1531310000     2.8678100000
   20      H       3.3992690000    -3.7395310000     1.5687700000
   21      C      -0.9361090000    -2.3066540000    -0.5400610000
   22      S       1.3414740000    -2.3065010000     0.7618870000
   23      C       0.0000000000    -1.4351850000     0.0000000000
   24      H      -1.8443920000    -1.9781380000    -1.0606900000
   25      H      -0.2587300000    -9.6140330000    -0.1929840000
   26      C       0.0000000000     0.0000000000     0.0000000000
   27      S       0.0004740000     0.9047640000     1.5075410000
   28      C      -0.0002950000     2.4773050000     0.7188730000
   29      C       0.0007520000     0.9044470000    -1.0678720000
   30      C      -0.0015600000     2.2945930000    -0.6864100000
   31      S       0.0036020000     0.6608720000    -2.8055160000
   32      C      -0.0019280000     2.4125460000    -3.0545300000
   33      C      -0.0043810000     3.1208540000    -1.8625510000
   34      F      -0.0091850000     4.4575030000    -1.8190880000
   35      C      -0.0000380000     2.8605700000    -4.4560840000
   36      O       0.0079440000     2.0907240000    -5.4065100000
   37      O      -0.0075010000     4.2110920000    -4.5692250000
   38      C      -0.0022780000     4.7061770000    -5.9162070000
   39      H      -0.0092650000     5.8072070000    -5.8330640000
   40      H      -0.8953810000     4.3528750000    -6.4701680000
   41      H       0.9015210000     4.3633010000    -6.4592930000
   42      H      -0.0017080000     3.4015620000     1.3064860000
 ----------------------------------------------------------------

   10   -2754.3155282491      6.97e-07  Convergence criterion met
 Total energy in the final basis set =    -2754.3155282491
        RIMP2         total energy =     -2759.3651824252 a.u.

                    Orbital Energies (a.u.)
 --------------------------------------------------------------

 Alpha MOs
 -- Occupied --
-92.0147 -91.9965 -91.9901 -91.9866 -26.3425 -20.6143 -20.5927 -20.5915
-20.5607 -11.4087 -11.3813 -11.3195 -11.3184 -11.3085 -11.3000 -11.2982
-11.2965 -11.2933 -11.2885 -11.2874 -11.2866 -11.2859 -11.2842 -11.2838
-11.2802 -11.2610 -11.2595 -11.2579 -11.2502  -9.0132  -8.9965  -8.9905
 -8.9865  -6.6939  -6.6933  -6.6928  -6.6775  -6.6768  -6.6757  -6.6714
 -6.6707  -6.6698  -6.6674  -6.6668  -6.6660  -1.6596  -1.4668  -1.4168
 -1.4143  -1.3694  -1.2201  -1.1947  -1.1656  -1.1352  -1.0847  -1.0522
 -1.0407  -1.0219  -1.0019  -0.9879  -0.9621  -0.9603  -0.9505  -0.9386
 -0.8961  -0.8668  -0.8518  -0.8079  -0.7963  -0.7877  -0.7868  -0.7648
 -0.7549  -0.7341  -0.7245  -0.7089  -0.7016  -0.6846  -0.6833  -0.6800
 -0.6734  -0.6593  -0.6573  -0.6527  -0.6306  -0.6201  -0.6174  -0.6046
 -0.5970  -0.5852  -0.5776  -0.5696  -0.5667  -0.5593  -0.5549  -0.5504
 -0.5338  -0.5305  -0.5232  -0.5162  -0.5161  -0.5095  -0.5042  -0.4945
 -0.4889  -0.4789  -0.4755  -0.4732  -0.4700  -0.4675  -0.4616  -0.4111
 -0.3962  -0.3869  -0.3577  -0.3497  -0.3193  -0.2944  -0.2568

          Ground-State Mulliken Net Atomic Charges

     Atom                 Charge (a.u.)
  ----------------------------------------
      1 C                    -0.187693
      2 C                    -0.254294
      3 S                    -0.021328
      4 C                    -0.014121
      5 H                     0.196378
      6 C                    -0.026889
      7 C                     0.243345
      8 C                     0.239481
      9 C                    -0.047503
     10 C                    -0.027317
     11 O                    -0.333140
     12 O                    -0.339954
     13 C                    -0.085882
     14 H                     0.122994
     15 H                     0.090932
     16 H                     0.094471
     17 C                    -0.086918
     18 H                     0.124957
     19 H                     0.094320
     20 H                     0.090146
     21 C                    -0.225767
     22 S                    -0.004909
     23 C                    -0.041661
     24 H                     0.200761
     25 H                     0.206527
     26 C                    -0.022300
     27 S                     0.102821
     28 C                    -0.186544
     29 C                     0.016235
     30 C                    -0.109356
     31 S                     0.006876
     32 C                    -0.152406
     33 C                     0.391640
     34 F                    -0.207286
     35 C                     0.444620
     36 O                    -0.461179
     37 O                    -0.300550
     38 C                    -0.058656
     39 H                     0.121261
     40 H                     0.094976
     41 H                     0.095034
     42 H                     0.217875
  ----------------------------------------
  Sum of atomic charges =     0.000000

                    Cartesian Multipole Moments
 -----------------------------------------------------------------
    Charge (ESU x 10^10)
                -0.0000
    Dipole Moment (Debye)
         X       0.1402      Y       0.8101      Z       2.8492
       Tot       2.9654
    Quadrupole Moments (Debye-Ang)
        XX    -188.7809     XY      -0.2787     YY    -158.9725
        XZ      12.7393     YZ      -5.8382     ZZ    -194.8543

 Total job time:  302.98s(wall), 9492.92s(cpu)
        *  Thank you very much for using Q-Chem.  Have a nice day.  *
