 Q-Chem 5.4, Q-Chem, Inc., Pleasanton, CA (2021)
 Q-Chem 5.4.0 for Intel X86 EM64T Linux

User input:
--------------------------------------------------------------
$molecule
0 1
C	0.313191	-8.517702	-0.070009
C	-0.694746	-7.641575	0.305494
S	1.762350	-7.638634	-0.614924
C	-0.340973	-6.264785	0.176768
H	-1.677747	-7.966081	0.669571
C	1.000069	-6.072714	-0.309600
C	1.520060	-4.787049	-0.525372
C	-1.196466	-5.162801	0.463825
C	-0.677639	-3.874817	0.243888
C	0.665815	-3.683952	-0.240312
O	-2.426678	-5.499772	0.941626
O	2.755460	-4.459055	-1.006468
C	3.853913	-5.329063	-0.761666
H	4.765607	-4.755694	-1.016135
H	3.822182	-6.238095	-1.401368
H	3.901833	-5.637262	0.305161
C	-3.502489	-4.572261	0.868342
H	-4.416005	-5.139743	1.128551
H	-3.613841	-4.153131	-0.154712
H	-3.386756	-3.739531	1.595605
C	1.015430	-2.306654	-0.369957
S	-1.445922	-2.306501	0.537898
C	-0.000000	-1.435185	-0.000000
H	1.998088	-1.978138	-0.731088
H	0.314143	-9.614033	-0.074151
C	0.000000	0.000000	0.000000
S	0.157577	0.890937	1.507541
C	0.429889	2.439720	0.718873
C	0.157797	0.890576	-1.067872
C	0.396915	2.260004	-0.686410
S	0.118307	0.650207	-2.805516
C	0.417036	2.376229	-3.054530
C	0.537616	3.074202	-1.862551
F	0.764992	4.391378	-1.819088
C	0.496696	2.817118	-4.456084
O	0.370874	2.057582	-5.406510
O	0.723861	4.148418	-4.569225
C	0.814976	4.635075	-5.916207
H	0.999286	5.720591	-5.833064
H	-0.125909	4.442226	-6.470168
H	1.645504	4.140465	-6.459293
H	0.588993	3.350182	1.306486
$end

$rem
JOBTYPE		SP
EXCHANGE	HF
CORRELATION	pRIMP2
BASIS		cc-pvtz
METHOD		rimp2
AUX_BASIS	rimp2-cc-pvtz
SOLVENT_METHOD	PCM
PURECART	11111
SYMMETRY	false
MEM_TOTAL	110000
SCF_CONVERGENCE = 6
THRESH=10
GUI = 2
$end

$solvent
dielectric 4.90
$end
--------------------------------------------------------------

             Standard Nuclear Orientation (Angstroms)
    I     Atom           X                Y                Z
 ----------------------------------------------------------------
    1      C       0.3131910000    -8.5177020000    -0.0700090000
    2      C      -0.6947460000    -7.6415750000     0.3054940000
    3      S       1.7623500000    -7.6386340000    -0.6149240000
    4      C      -0.3409730000    -6.2647850000     0.1767680000
    5      H      -1.6777470000    -7.9660810000     0.6695710000
    6      C       1.0000690000    -6.0727140000    -0.3096000000
    7      C       1.5200600000    -4.7870490000    -0.5253720000
    8      C      -1.1964660000    -5.1628010000     0.4638250000
    9      C      -0.6776390000    -3.8748170000     0.2438880000
   10      C       0.6658150000    -3.6839520000    -0.2403120000
   11      O      -2.4266780000    -5.4997720000     0.9416260000
   12      O       2.7554600000    -4.4590550000    -1.0064680000
   13      C       3.8539130000    -5.3290630000    -0.7616660000
   14      H       4.7656070000    -4.7556940000    -1.0161350000
   15      H       3.8221820000    -6.2380950000    -1.4013680000
   16      H       3.9018330000    -5.6372620000     0.3051610000
   17      C      -3.5024890000    -4.5722610000     0.8683420000
   18      H      -4.4160050000    -5.1397430000     1.1285510000
   19      H      -3.6138410000    -4.1531310000    -0.1547120000
   20      H      -3.3867560000    -3.7395310000     1.5956050000
   21      C       1.0154300000    -2.3066540000    -0.3699570000
   22      S      -1.4459220000    -2.3065010000     0.5378980000
   23      C       0.0000000000    -1.4351850000     0.0000000000
   24      H       1.9980880000    -1.9781380000    -0.7310880000
   25      H       0.3141430000    -9.6140330000    -0.0741510000
   26      C       0.0000000000     0.0000000000     0.0000000000
   27      S       0.1575770000     0.8909370000     1.5075410000
   28      C       0.4298890000     2.4397200000     0.7188730000
   29      C       0.1577970000     0.8905760000    -1.0678720000
   30      C       0.3969150000     2.2600040000    -0.6864100000
   31      S       0.1183070000     0.6502070000    -2.8055160000
   32      C       0.4170360000     2.3762290000    -3.0545300000
   33      C       0.5376160000     3.0742020000    -1.8625510000
   34      F       0.7649920000     4.3913780000    -1.8190880000
   35      C       0.4966960000     2.8171180000    -4.4560840000
   36      O       0.3708740000     2.0575820000    -5.4065100000
   37      O       0.7238610000     4.1484180000    -4.5692250000
   38      C       0.8149760000     4.6350750000    -5.9162070000
   39      H       0.9992860000     5.7205910000    -5.8330640000
   40      H      -0.1259090000     4.4422260000    -6.4701680000
   41      H       1.6455040000     4.1404650000    -6.4592930000
   42      H       0.5889930000     3.3501820000     1.3064860000
 ----------------------------------------------------------------

   10   -2754.3129924553      7.02e-07  Convergence criterion met
 Total energy in the final basis set =    -2754.3129924553
        RIMP2         total energy =     -2759.3628254747 a.u.

                    Orbital Energies (a.u.)
 --------------------------------------------------------------

 Alpha MOs
 -- Occupied --
-92.0143 -91.9965 -91.9889 -91.9865 -26.3425 -20.6142 -20.5925 -20.5917
-20.5605 -11.4086 -11.3813 -11.3192 -11.3185 -11.3094 -11.3005 -11.2965
-11.2963 -11.2923 -11.2884 -11.2871 -11.2863 -11.2862 -11.2841 -11.2835
-11.2802 -11.2608 -11.2594 -11.2582 -11.2501  -9.0128  -8.9966  -8.9893
 -8.9865  -6.6935  -6.6930  -6.6924  -6.6776  -6.6768  -6.6757  -6.6702
 -6.6695  -6.6686  -6.6674  -6.6668  -6.6660  -1.6596  -1.4666  -1.4166
 -1.4144  -1.3693  -1.2200  -1.1945  -1.1654  -1.1350  -1.0844  -1.0521
 -1.0406  -1.0217  -1.0016  -0.9877  -0.9615  -0.9605  -0.9504  -0.9386
 -0.8958  -0.8667  -0.8512  -0.8083  -0.7955  -0.7881  -0.7865  -0.7647
 -0.7548  -0.7340  -0.7245  -0.7090  -0.7013  -0.6845  -0.6832  -0.6800
 -0.6733  -0.6593  -0.6570  -0.6527  -0.6304  -0.6202  -0.6173  -0.6046
 -0.5970  -0.5843  -0.5773  -0.5704  -0.5666  -0.5615  -0.5536  -0.5507
 -0.5319  -0.5303  -0.5242  -0.5163  -0.5149  -0.5081  -0.5043  -0.4951
 -0.4892  -0.4791  -0.4751  -0.4729  -0.4693  -0.4668  -0.4610  -0.4086
 -0.3961  -0.3871  -0.3576  -0.3489  -0.3173  -0.2959  -0.2581

          Ground-State Mulliken Net Atomic Charges

     Atom                 Charge (a.u.)
  ----------------------------------------
      1 C                    -0.187670
      2 C                    -0.254184
      3 S                    -0.021507
      4 C                    -0.014405
      5 H                     0.196381
      6 C                    -0.028335
      7 C                     0.242606
      8 C                     0.240699
      9 C                    -0.051814
     10 C                    -0.025765
     11 O                    -0.333472
     12 O                    -0.339468
     13 C                    -0.085838
     14 H                     0.122842
     15 H                     0.091314
     16 H                     0.093792
     17 C                    -0.086388
     18 H                     0.124766
     19 H                     0.095119
     20 H                     0.089445
     21 C                    -0.210490
     22 S                    -0.001088
     23 C                    -0.032753
     24 H                     0.199859
     25 H                     0.206526
     26 C                    -0.045347
     27 S                     0.107264
     28 C                    -0.185671
     29 C                     0.001202
     30 C                    -0.102587
     31 S                     0.010376
     32 C                    -0.154101
     33 C                     0.391909
     34 F                    -0.207235
     35 C                     0.445534
     36 O                    -0.461178
     37 O                    -0.300670
     38 C                    -0.058605
     39 H                     0.121170
     40 H                     0.095067
     41 H                     0.094969
     42 H                     0.217726
  ----------------------------------------
  Sum of atomic charges =     0.000000

                    Cartesian Multipole Moments
 -----------------------------------------------------------------
    Charge (ESU x 10^10)
                -0.0000
    Dipole Moment (Debye)
         X       0.5602      Y       0.8367      Z       3.2705
       Tot       3.4220
    Quadrupole Moments (Debye-Ang)
        XX    -176.6796     XY       1.7049     YY    -159.6636
        XZ      -4.0795     YZ      -8.3057     ZZ    -206.4909

 Total job time:  315.01s(wall), 9750.15s(cpu)
        *  Thank you very much for using Q-Chem.  Have a nice day.  *
