 Q-Chem 5.4, Q-Chem, Inc., Pleasanton, CA (2021)
 Q-Chem 5.4.0 for Intel X86 EM64T Linux

User input:
--------------------------------------------------------------
$molecule
0 1
C	0.014560	-8.517702	0.320589
C	-0.180211	-7.641575	-0.737240
S	0.299553	-7.638634	1.842356
C	-0.114873	-6.264785	-0.366488
H	-0.368061	-7.966081	-1.768528
C	0.131236	-6.072714	1.038637
C	0.253435	-4.787049	1.588197
C	-0.249014	-5.162801	-1.258831
C	-0.122513	-3.874817	-0.709695
C	0.121043	-3.683952	0.697430
O	-0.505933	-5.499772	-2.553323
O	0.512697	-4.459055	2.888369
C	0.080869	-5.329063	3.927625
H	0.173159	-4.755694	4.869656
H	0.716363	-6.238095	4.007459
H	-0.978072	-5.637262	3.789565
C	-0.246949	-4.572261	-3.600064
H	-0.344574	-5.139743	-4.544887
H	0.779898	-4.153131	-3.532074
H	-0.983261	-3.739531	-3.612378
C	0.188009	-2.306654	1.064246
S	-0.278644	-2.306501	-1.517360
C	-0.000000	-1.435185	-0.000000
H	0.373017	-1.978138	2.094685
H	0.018474	-9.614033	0.322246
C	0.000000	0.000000	0.000000
S	0.382799	0.819795	1.507541
C	1.046687	2.245325	0.718873
C	0.382918	0.819389	-1.067872
C	0.968323	2.080267	-0.686410
S	0.282561	0.597432	-2.805516
C	1.017839	2.187324	-3.054530
C	1.314960	2.830306	-1.862551
F	1.875498	4.043751	-1.819088
C	1.208895	2.592573	-4.456084
O	0.890778	1.891482	-5.406510
O	1.772886	3.819715	-4.569225
C	1.986852	4.266207	-5.916207
H	2.445834	5.267032	-5.833064
H	1.028114	4.323448	-6.470168
H	2.661066	3.573494	-6.459293
H	1.436015	3.083584	1.306486
$end

$rem
JOBTYPE		SP
EXCHANGE	HF
CORRELATION	pRIMP2
BASIS		cc-pvtz
METHOD		rimp2
AUX_BASIS	rimp2-cc-pvtz
SOLVENT_METHOD	PCM
PURECART	11111
SYMMETRY	false
MEM_TOTAL	110000
SCF_CONVERGENCE = 6
THRESH=10
GUI = 2
$end

$solvent
dielectric 4.90
$end
--------------------------------------------------------------

             Standard Nuclear Orientation (Angstroms)
    I     Atom           X                Y                Z
 ----------------------------------------------------------------
    1      C       0.0145600000    -8.5177020000     0.3205890000
    2      C      -0.1802110000    -7.6415750000    -0.7372400000
    3      S       0.2995530000    -7.6386340000     1.8423560000
    4      C      -0.1148730000    -6.2647850000    -0.3664880000
    5      H      -0.3680610000    -7.9660810000    -1.7685280000
    6      C       0.1312360000    -6.0727140000     1.0386370000
    7      C       0.2534350000    -4.7870490000     1.5881970000
    8      C      -0.2490140000    -5.1628010000    -1.2588310000
    9      C      -0.1225130000    -3.8748170000    -0.7096950000
   10      C       0.1210430000    -3.6839520000     0.6974300000
   11      O      -0.5059330000    -5.4997720000    -2.5533230000
   12      O       0.5126970000    -4.4590550000     2.8883690000
   13      C       0.0808690000    -5.3290630000     3.9276250000
   14      H       0.1731590000    -4.7556940000     4.8696560000
   15      H       0.7163630000    -6.2380950000     4.0074590000
   16      H      -0.9780720000    -5.6372620000     3.7895650000
   17      C      -0.2469490000    -4.5722610000    -3.6000640000
   18      H      -0.3445740000    -5.1397430000    -4.5448870000
   19      H       0.7798980000    -4.1531310000    -3.5320740000
   20      H      -0.9832610000    -3.7395310000    -3.6123780000
   21      C       0.1880090000    -2.3066540000     1.0642460000
   22      S      -0.2786440000    -2.3065010000    -1.5173600000
   23      C       0.0000000000    -1.4351850000     0.0000000000
   24      H       0.3730170000    -1.9781380000     2.0946850000
   25      H       0.0184740000    -9.6140330000     0.3222460000
   26      C       0.0000000000     0.0000000000     0.0000000000
   27      S       0.3827990000     0.8197950000     1.5075410000
   28      C       1.0466870000     2.2453250000     0.7188730000
   29      C       0.3829180000     0.8193890000    -1.0678720000
   30      C       0.9683230000     2.0802670000    -0.6864100000
   31      S       0.2825610000     0.5974320000    -2.8055160000
   32      C       1.0178390000     2.1873240000    -3.0545300000
   33      C       1.3149600000     2.8303060000    -1.8625510000
   34      F       1.8754980000     4.0437510000    -1.8190880000
   35      C       1.2088950000     2.5925730000    -4.4560840000
   36      O       0.8907780000     1.8914820000    -5.4065100000
   37      O       1.7728860000     3.8197150000    -4.5692250000
   38      C       1.9868520000     4.2662070000    -5.9162070000
   39      H       2.4458340000     5.2670320000    -5.8330640000
   40      H       1.0281140000     4.3234480000    -6.4701680000
   41      H       2.6610660000     3.5734940000    -6.4592930000
   42      H       1.4360150000     3.0835840000     1.3064860000
 ----------------------------------------------------------------

   10   -2754.3044262464      7.15e-07  Convergence criterion met
 Total energy in the final basis set =    -2754.3044262464
        RIMP2         total energy =     -2759.3604724196 a.u.

                    Orbital Energies (a.u.)
 --------------------------------------------------------------

 Alpha MOs
 -- Occupied --
-92.0150 -92.0011 -91.9897 -91.9852 -26.3443 -20.6151 -20.5919 -20.5900
-20.5617 -11.4099 -11.3839 -11.3193 -11.3163 -11.3147 -11.3057 -11.2988
-11.2980 -11.2974 -11.2891 -11.2868 -11.2863 -11.2855 -11.2846 -11.2833
-11.2776 -11.2612 -11.2562 -11.2500 -11.2491  -9.0138  -9.0013  -8.9904
 -8.9851  -6.6946  -6.6939  -6.6934  -6.6822  -6.6815  -6.6803  -6.6714
 -6.6708  -6.6698  -6.6661  -6.6655  -6.6646  -1.6613  -1.4676  -1.4159
 -1.4128  -1.3704  -1.2249  -1.1936  -1.1653  -1.1376  -1.0859  -1.0510
 -1.0426  -1.0253  -1.0011  -0.9878  -0.9648  -0.9579  -0.9493  -0.9416
 -0.8949  -0.8693  -0.8503  -0.8163  -0.7926  -0.7873  -0.7848  -0.7645
 -0.7557  -0.7330  -0.7261  -0.7111  -0.6986  -0.6861  -0.6830  -0.6821
 -0.6742  -0.6592  -0.6582  -0.6518  -0.6304  -0.6190  -0.6161  -0.6033
 -0.5992  -0.5861  -0.5785  -0.5688  -0.5674  -0.5623  -0.5555  -0.5527
 -0.5325  -0.5288  -0.5230  -0.5197  -0.5175  -0.5114  -0.5058  -0.4941
 -0.4866  -0.4797  -0.4771  -0.4746  -0.4698  -0.4637  -0.4584  -0.4272
 -0.3916  -0.3854  -0.3613  -0.3524  -0.3239  -0.2919  -0.2471

          Ground-State Mulliken Net Atomic Charges

     Atom                 Charge (a.u.)
  ----------------------------------------
      1 C                    -0.193405
      2 C                    -0.252908
      3 S                    -0.024858
      4 C                    -0.019273
      5 H                     0.196074
      6 C                    -0.025315
      7 C                     0.233346
      8 C                     0.245027
      9 C                    -0.036872
     10 C                    -0.014893
     11 O                    -0.332927
     12 O                    -0.341531
     13 C                    -0.085555
     14 H                     0.121772
     15 H                     0.090897
     16 H                     0.093580
     17 C                    -0.088831
     18 H                     0.125640
     19 H                     0.095553
     20 H                     0.090217
     21 C                    -0.271288
     22 S                    -0.039822
     23 C                     0.008570
     24 H                     0.186316
     25 H                     0.205694
     26 C                     0.007607
     27 S                     0.088597
     28 C                    -0.168893
     29 C                     0.016061
     30 C                    -0.118438
     31 S                     0.015842
     32 C                    -0.165593
     33 C                     0.407537
     34 F                    -0.205619
     35 C                     0.446052
     36 O                    -0.461195
     37 O                    -0.301053
     38 C                    -0.058495
     39 H                     0.121502
     40 H                     0.095210
     41 H                     0.095174
     42 H                     0.220494
  ----------------------------------------
  Sum of atomic charges =     0.000000

                    Cartesian Multipole Moments
 -----------------------------------------------------------------
    Charge (ESU x 10^10)
                 0.0000
    Dipole Moment (Debye)
         X       1.0901      Y       1.7558      Z       2.5473
       Tot       3.2802
    Quadrupole Moments (Debye-Ang)
        XX    -199.1308     XY       7.8629     YY    -165.8926
        XZ      -4.6881     YZ      -6.2043     ZZ    -180.8477

 Total job time:  314.20s(wall), 10121.83s(cpu)
        *  Thank you very much for using Q-Chem.  Have a nice day.  *
