 Q-Chem 5.4, Q-Chem, Inc., Pleasanton, CA (2021)
 Q-Chem 5.4.0 for Intel X86 EM64T Linux

User input:
--------------------------------------------------------------
$molecule
0 1
C	0.318247	-8.517702	0.041330
C	-0.757333	-7.641575	0.049453
S	1.866383	-7.638634	0.024919
C	-0.380867	-6.264785	0.049488
H	-1.805573	-7.966081	0.055368
C	1.045647	-6.072714	0.051115
C	1.608077	-4.787049	0.026203
C	-1.282948	-5.162801	0.026637
C	-0.720187	-3.874817	-0.002586
C	0.707853	-3.683952	0.001903
O	-2.602386	-5.499772	0.054867
O	2.933517	-4.459055	-0.003348
C	3.881999	-5.329063	0.602384
H	4.825744	-4.755694	0.675079
H	4.070972	-6.238095	-0.009592
H	3.562152	-5.637262	1.621263
C	-3.588253	-4.572261	-0.381947
H	-4.535674	-5.139743	-0.449872
H	-3.342986	-4.153131	-1.381388
H	-3.728239	-3.739531	0.341040
C	1.080725	-2.306654	-0.000348
S	-1.542694	-2.306501	0.010924
C	-0.000000	-1.435185	-0.000000
H	2.127635	-1.978138	-0.003612
H	0.320559	-9.614033	0.037764
C	0.000000	0.000000	0.000000
S	0.783786	0.451972	1.507541
C	2.145261	1.238908	0.718873
C	0.783650	0.451572	-1.067872
C	1.986396	1.148648	-0.686410
S	0.574133	0.327317	-2.805516
C	2.088363	1.207943	-3.054530
C	2.700548	1.564221	-1.862551
F	3.855718	2.236706	-1.819088
C	2.477307	1.430318	-4.456084
O	1.814592	1.038482	-5.406510
O	3.643162	2.112042	-4.569225
C	4.074530	2.355061	-5.916207
H	5.024556	2.911627	-5.833064
H	3.322010	2.951860	-6.470168
H	4.229490	1.400910	-6.459293
H	2.944986	1.702260	1.306486
$end

$rem
JOBTYPE		SP
EXCHANGE	HF
CORRELATION	pRIMP2
BASIS		cc-pvtz
METHOD		rimp2
AUX_BASIS	rimp2-cc-pvtz
SOLVENT_METHOD	PCM
PURECART	11111
SYMMETRY	false
MEM_TOTAL	110000
SCF_CONVERGENCE = 6
THRESH=10
GUI = 2
$end

$solvent
dielectric 4.90
$end
--------------------------------------------------------------

             Standard Nuclear Orientation (Angstroms)
    I     Atom           X                Y                Z
 ----------------------------------------------------------------
    1      C       0.3182470000    -8.5177020000     0.0413300000
    2      C      -0.7573330000    -7.6415750000     0.0494530000
    3      S       1.8663830000    -7.6386340000     0.0249190000
    4      C      -0.3808670000    -6.2647850000     0.0494880000
    5      H      -1.8055730000    -7.9660810000     0.0553680000
    6      C       1.0456470000    -6.0727140000     0.0511150000
    7      C       1.6080770000    -4.7870490000     0.0262030000
    8      C      -1.2829480000    -5.1628010000     0.0266370000
    9      C      -0.7201870000    -3.8748170000    -0.0025860000
   10      C       0.7078530000    -3.6839520000     0.0019030000
   11      O      -2.6023860000    -5.4997720000     0.0548670000
   12      O       2.9335170000    -4.4590550000    -0.0033480000
   13      C       3.8819990000    -5.3290630000     0.6023840000
   14      H       4.8257440000    -4.7556940000     0.6750790000
   15      H       4.0709720000    -6.2380950000    -0.0095920000
   16      H       3.5621520000    -5.6372620000     1.6212630000
   17      C      -3.5882530000    -4.5722610000    -0.3819470000
   18      H      -4.5356740000    -5.1397430000    -0.4498720000
   19      H      -3.3429860000    -4.1531310000    -1.3813880000
   20      H      -3.7282390000    -3.7395310000     0.3410400000
   21      C       1.0807250000    -2.3066540000    -0.0003480000
   22      S      -1.5426940000    -2.3065010000     0.0109240000
   23      C       0.0000000000    -1.4351850000     0.0000000000
   24      H       2.1276350000    -1.9781380000    -0.0036120000
   25      H       0.3205590000    -9.6140330000     0.0377640000
   26      C       0.0000000000     0.0000000000     0.0000000000
   27      S       0.7837860000     0.4519720000     1.5075410000
   28      C       2.1452610000     1.2389080000     0.7188730000
   29      C       0.7836500000     0.4515720000    -1.0678720000
   30      C       1.9863960000     1.1486480000    -0.6864100000
   31      S       0.5741330000     0.3273170000    -2.8055160000
   32      C       2.0883630000     1.2079430000    -3.0545300000
   33      C       2.7005480000     1.5642210000    -1.8625510000
   34      F       3.8557180000     2.2367060000    -1.8190880000
   35      C       2.4773070000     1.4303180000    -4.4560840000
   36      O       1.8145920000     1.0384820000    -5.4065100000
   37      O       3.6431620000     2.1120420000    -4.5692250000
   38      C       4.0745300000     2.3550610000    -5.9162070000
   39      H       5.0245560000     2.9116270000    -5.8330640000
   40      H       3.3220100000     2.9518600000    -6.4701680000
   41      H       4.2294900000     1.4009100000    -6.4592930000
   42      H       2.9449860000     1.7022600000     1.3064860000
 ----------------------------------------------------------------

   11   -2754.2500296806      4.49e-07  Convergence criterion met
 Total energy in the final basis set =    -2754.2500296806
        RIMP2         total energy =     -2759.3126820125 a.u.

                    Orbital Energies (a.u.)
 --------------------------------------------------------------

 Alpha MOs
 -- Occupied --
-92.0130 -92.0083 -91.9835 -91.9799 -26.3462 -20.6151 -20.5901 -20.5886
-20.5613 -11.4100 -11.3869 -11.3350 -11.3220 -11.3158 -11.3122 -11.2974
-11.2912 -11.2892 -11.2868 -11.2850 -11.2850 -11.2810 -11.2788 -11.2761
-11.2646 -11.2570 -11.2537 -11.2478 -11.2439  -9.0122  -9.0079  -8.9835
 -8.9806  -6.6928  -6.6919  -6.6917  -6.6888  -6.6881  -6.6871  -6.6645
 -6.6639  -6.6630  -6.6615  -6.6608  -6.6599  -1.6632  -1.4677  -1.4140
 -1.4114  -1.3703  -1.2328  -1.1899  -1.1642  -1.1392  -1.0840  -1.0479
 -1.0453  -1.0258  -0.9968  -0.9867  -0.9639  -0.9576  -0.9482  -0.9397
 -0.8919  -0.8710  -0.8421  -0.8137  -0.7952  -0.7873  -0.7829  -0.7627
 -0.7556  -0.7306  -0.7278  -0.7128  -0.6995  -0.6859  -0.6824  -0.6795
 -0.6744  -0.6596  -0.6567  -0.6506  -0.6284  -0.6179  -0.6149  -0.6092
 -0.6000  -0.5890  -0.5733  -0.5689  -0.5656  -0.5625  -0.5526  -0.5463
 -0.5314  -0.5227  -0.5188  -0.5163  -0.5115  -0.5090  -0.5026  -0.4926
 -0.4872  -0.4844  -0.4750  -0.4731  -0.4665  -0.4606  -0.4578  -0.4005
 -0.3926  -0.3851  -0.3638  -0.3394  -0.3134  -0.3051  -0.2518

          Ground-State Mulliken Net Atomic Charges

     Atom                 Charge (a.u.)
  ----------------------------------------
      1 C                    -0.195229
      2 C                    -0.254568
      3 S                    -0.028735
      4 C                    -0.019641
      5 H                     0.195544
      6 C                    -0.025921
      7 C                     0.229023
      8 C                     0.243002
      9 C                    -0.047849
     10 C                    -0.018683
     11 O                    -0.333716
     12 O                    -0.342337
     13 C                    -0.085810
     14 H                     0.120918
     15 H                     0.090879
     16 H                     0.092858
     17 C                    -0.086313
     18 H                     0.124159
     19 H                     0.094063
     20 H                     0.089645
     21 C                    -0.257282
     22 S                    -0.022673
     23 C                    -0.000759
     24 H                     0.195017
     25 H                     0.204963
     26 C                    -0.176046
     27 S                     0.129565
     28 C                    -0.117890
     29 C                     0.068329
     30 C                    -0.122003
     31 S                     0.060419
     32 C                    -0.155184
     33 C                     0.397006
     34 F                    -0.204344
     35 C                     0.448967
     36 O                    -0.462848
     37 O                    -0.301529
     38 C                    -0.058165
     39 H                     0.121332
     40 H                     0.095192
     41 H                     0.095305
     42 H                     0.221339
  ----------------------------------------
  Sum of atomic charges =     0.000000

                    Cartesian Multipole Moments
 -----------------------------------------------------------------
    Charge (ESU x 10^10)
                 0.0000
    Dipole Moment (Debye)
         X       3.5231      Y       1.6481      Z       2.8621
       Tot       4.8291
    Quadrupole Moments (Debye-Ang)
        XX    -165.8614     XY       8.4212     YY    -180.0516
        XZ      -0.3286     YZ      -4.9580     ZZ    -203.1476

 Total job time:  318.89s(wall), 10151.33s(cpu)
        *  Thank you very much for using Q-Chem.  Have a nice day.  *
