 Q-Chem 5.4, Q-Chem, Inc., Pleasanton, CA (2021)
 Q-Chem 5.4.0 for Intel X86 EM64T Linux

User input:
--------------------------------------------------------------
$molecule
0 1
C	0.701193	-8.488892	0.318247
C	0.616742	-7.616807	-0.757333
S	0.640926	-7.611739	1.866383
C	0.496713	-6.245258	-0.380867
H	0.639132	-7.940593	-1.805573
C	0.478351	-6.054060	1.045647
C	0.391116	-4.771116	1.608077
C	0.423432	-5.145477	-1.282948
C	0.340289	-3.859847	-0.720187
C	0.319182	-3.670099	0.707853
O	0.424679	-5.483626	-2.602386
O	0.391967	-4.441795	2.933517
C	-0.135633	-5.361285	3.881999
H	-0.258024	-4.796434	4.825744
H	0.553241	-6.213521	4.070972
H	-1.123774	-5.757113	3.562152
C	0.778992	-4.521574	-3.588253
H	0.896118	-5.080975	-4.535674
H	1.738100	-4.016931	-3.342986
H	-0.013821	-3.755025	-3.728239
C	0.201385	-2.297846	1.080725
S	0.190142	-2.298676	-1.542694
C	0.125085	-1.429724	0.000000
H	0.176004	-1.970295	2.127635
H	0.800298	-9.580740	0.320559
C	0.000000	0.000000	0.000000
S	0.382799	0.819795	1.507541
C	1.046687	2.245325	0.718873
C	0.382918	0.819389	-1.067872
C	0.968323	2.080267	-0.686410
S	0.282561	0.597432	-2.805516
C	1.017839	2.187324	-3.054530
C	1.314960	2.830306	-1.862551
F	1.875498	4.043751	-1.819088
C	1.208895	2.592573	-4.456084
O	0.890778	1.891482	-5.406510
O	1.772886	3.819715	-4.569225
C	1.986852	4.266207	-5.916207
H	2.445834	5.267032	-5.833064
H	1.028114	4.323448	-6.470168
H	2.661066	3.573494	-6.459293
H	1.436015	3.083584	1.306486
$end

$rem
JOBTYPE		SP
EXCHANGE	HF
CORRELATION	pRIMP2
BASIS		cc-pvtz
METHOD		rimp2
AUX_BASIS	rimp2-cc-pvtz
SOLVENT_METHOD	PCM
PURECART	11111
SYMMETRY	false
MEM_TOTAL	110000
SCF_CONVERGENCE = 6
THRESH=10
GUI = 2
$end

$solvent
dielectric 4.90
$end
--------------------------------------------------------------

             Standard Nuclear Orientation (Angstroms)
    I     Atom           X                Y                Z
 ----------------------------------------------------------------
    1      C       0.7011930000    -8.4888920000     0.3182470000
    2      C       0.6167420000    -7.6168070000    -0.7573330000
    3      S       0.6409260000    -7.6117390000     1.8663830000
    4      C       0.4967130000    -6.2452580000    -0.3808670000
    5      H       0.6391320000    -7.9405930000    -1.8055730000
    6      C       0.4783510000    -6.0540600000     1.0456470000
    7      C       0.3911160000    -4.7711160000     1.6080770000
    8      C       0.4234320000    -5.1454770000    -1.2829480000
    9      C       0.3402890000    -3.8598470000    -0.7201870000
   10      C       0.3191820000    -3.6700990000     0.7078530000
   11      O       0.4246790000    -5.4836260000    -2.6023860000
   12      O       0.3919670000    -4.4417950000     2.9335170000
   13      C      -0.1356330000    -5.3612850000     3.8819990000
   14      H      -0.2580240000    -4.7964340000     4.8257440000
   15      H       0.5532410000    -6.2135210000     4.0709720000
   16      H      -1.1237740000    -5.7571130000     3.5621520000
   17      C       0.7789920000    -4.5215740000    -3.5882530000
   18      H       0.8961180000    -5.0809750000    -4.5356740000
   19      H       1.7381000000    -4.0169310000    -3.3429860000
   20      H      -0.0138210000    -3.7550250000    -3.7282390000
   21      C       0.2013850000    -2.2978460000     1.0807250000
   22      S       0.1901420000    -2.2986760000    -1.5426940000
   23      C       0.1250850000    -1.4297240000     0.0000000000
   24      H       0.1760040000    -1.9702950000     2.1276350000
   25      H       0.8002980000    -9.5807400000     0.3205590000
   26      C       0.0000000000     0.0000000000     0.0000000000
   27      S       0.3827990000     0.8197950000     1.5075410000
   28      C       1.0466870000     2.2453250000     0.7188730000
   29      C       0.3829180000     0.8193890000    -1.0678720000
   30      C       0.9683230000     2.0802670000    -0.6864100000
   31      S       0.2825610000     0.5974320000    -2.8055160000
   32      C       1.0178390000     2.1873240000    -3.0545300000
   33      C       1.3149600000     2.8303060000    -1.8625510000
   34      F       1.8754980000     4.0437510000    -1.8190880000
   35      C       1.2088950000     2.5925730000    -4.4560840000
   36      O       0.8907780000     1.8914820000    -5.4065100000
   37      O       1.7728860000     3.8197150000    -4.5692250000
   38      C       1.9868520000     4.2662070000    -5.9162070000
   39      H       2.4458340000     5.2670320000    -5.8330640000
   40      H       1.0281140000     4.3234480000    -6.4701680000
   41      H       2.6610660000     3.5734940000    -6.4592930000
   42      H       1.4360150000     3.0835840000     1.3064860000
 ----------------------------------------------------------------

   10   -2754.2982369211      7.11e-07  Convergence criterion met
 Total energy in the final basis set =    -2754.2982369211
        RIMP2         total energy =     -2759.3559057422 a.u.

                    Orbital Energies (a.u.)
 --------------------------------------------------------------

 Alpha MOs
 -- Occupied --
-92.0148 -92.0023 -91.9886 -91.9847 -26.3447 -20.6153 -20.5916 -20.5894
-20.5619 -11.4102 -11.3845 -11.3189 -11.3188 -11.3136 -11.3075 -11.2984
-11.2983 -11.2954 -11.2892 -11.2873 -11.2861 -11.2852 -11.2832 -11.2829
-11.2769 -11.2605 -11.2553 -11.2488 -11.2476  -9.0138  -9.0024  -8.9895
 -8.9847  -6.6945  -6.6939  -6.6934  -6.6833  -6.6826  -6.6815  -6.6704
 -6.6697  -6.6687  -6.6657  -6.6650  -6.6642  -1.6617  -1.4678  -1.4156
 -1.4122  -1.3706  -1.2261  -1.1929  -1.1649  -1.1381  -1.0858  -1.0505
 -1.0429  -1.0259  -1.0005  -0.9876  -0.9651  -0.9575  -0.9490  -0.9417
 -0.8945  -0.8698  -0.8494  -0.8168  -0.7930  -0.7869  -0.7840  -0.7642
 -0.7558  -0.7324  -0.7265  -0.7113  -0.6984  -0.6863  -0.6830  -0.6818
 -0.6744  -0.6593  -0.6579  -0.6514  -0.6303  -0.6186  -0.6158  -0.6038
 -0.5994  -0.5845  -0.5793  -0.5690  -0.5667  -0.5613  -0.5558  -0.5522
 -0.5327  -0.5288  -0.5236  -0.5195  -0.5171  -0.5114  -0.5055  -0.4941
 -0.4860  -0.4804  -0.4771  -0.4747  -0.4700  -0.4625  -0.4577  -0.4272
 -0.3911  -0.3846  -0.3607  -0.3531  -0.3240  -0.2915  -0.2461

          Ground-State Mulliken Net Atomic Charges

     Atom                 Charge (a.u.)
  ----------------------------------------
      1 C                    -0.194717
      2 C                    -0.253011
      3 S                    -0.025868
      4 C                    -0.021298
      5 H                     0.195930
      6 C                    -0.025304
      7 C                     0.232048
      8 C                     0.245770
      9 C                    -0.038462
     10 C                    -0.012640
     11 O                    -0.332859
     12 O                    -0.341693
     13 C                    -0.085475
     14 H                     0.121595
     15 H                     0.090617
     16 H                     0.093381
     17 C                    -0.088983
     18 H                     0.125761
     19 H                     0.095007
     20 H                     0.090409
     21 C                    -0.274758
     22 S                    -0.042062
     23 C                     0.012203
     24 H                     0.184896
     25 H                     0.205433
     26 C                     0.005366
     27 S                     0.096343
     28 C                    -0.168373
     29 C                     0.002976
     30 C                    -0.111782
     31 S                     0.023707
     32 C                    -0.166126
     33 C                     0.409041
     34 F                    -0.205416
     35 C                     0.446284
     36 O                    -0.461158
     37 O                    -0.301041
     38 C                    -0.058423
     39 H                     0.121555
     40 H                     0.095254
     41 H                     0.095175
     42 H                     0.220698
  ----------------------------------------
  Sum of atomic charges =     0.000000

                    Cartesian Multipole Moments
 -----------------------------------------------------------------
    Charge (ESU x 10^10)
                 0.0000
    Dipole Moment (Debye)
         X       1.2992      Y       2.1260      Z       2.3957
       Tot       3.4565
    Quadrupole Moments (Debye-Ang)
        XX    -197.8568     XY       6.1060     YY    -167.2316
        XZ      -8.9050     YZ      -6.2297     ZZ    -181.9897

 Total job time:  295.70s(wall), 9188.88s(cpu)
        *  Thank you very much for using Q-Chem.  Have a nice day.  *
