 Q-Chem 5.4, Q-Chem, Inc., Pleasanton, CA (2021)
 Q-Chem 5.4.0 for Intel X86 EM64T Linux

User input:
--------------------------------------------------------------
$molecule
0 1
C	-0.318247	-8.517702	-0.041330
C	0.757333	-7.641575	-0.049453
S	-1.866383	-7.638634	-0.024919
C	0.380867	-6.264785	-0.049488
H	1.805573	-7.966081	-0.055368
C	-1.045647	-6.072714	-0.051115
C	-1.608077	-4.787049	-0.026203
C	1.282948	-5.162801	-0.026637
C	0.720187	-3.874817	0.002586
C	-0.707853	-3.683952	-0.001903
O	2.602386	-5.499772	-0.054867
O	-2.933517	-4.459055	0.003348
C	-3.881999	-5.329063	-0.602384
H	-4.825744	-4.755694	-0.675079
H	-4.070972	-6.238095	0.009592
H	-3.562152	-5.637262	-1.621263
C	3.588253	-4.572261	0.381947
H	4.535674	-5.139743	0.449872
H	3.342986	-4.153131	1.381388
H	3.728239	-3.739531	-0.341040
C	-1.080725	-2.306654	0.000348
S	1.542694	-2.306501	-0.010924
C	-0.000000	-1.435185	-0.000000
H	-2.127635	-1.978138	0.003612
H	-0.320559	-9.614033	-0.037764
C	0.000000	0.000000	0.000000
S	0.452792	0.783312	1.507541
C	1.238397	2.145556	0.718873
C	0.452875	0.782898	-1.067872
C	1.145945	1.987956	-0.686410
S	0.333556	0.570531	-2.805516
C	1.204604	2.090290	-3.054530
C	1.556633	2.704929	-1.862551
F	2.220797	3.864903	-1.819088
C	1.430252	2.477345	-4.456084
O	1.052242	1.806648	-5.406510
O	2.099050	3.650663	-4.569225
C	2.351116	4.076808	-5.916207
H	2.895579	5.033821	-5.833064
H	1.401015	4.217390	-6.470168
H	2.962391	3.327969	-6.459293
H	1.699302	2.946693	1.306486
$end

$rem
JOBTYPE		SP
EXCHANGE	HF
CORRELATION	pRIMP2
BASIS		cc-pvtz
METHOD		rimp2
AUX_BASIS	rimp2-cc-pvtz
SOLVENT_METHOD	PCM
PURECART	11111
SYMMETRY	false
MEM_TOTAL	110000
SCF_CONVERGENCE = 6
THRESH=10
GUI = 2
$end

$solvent
dielectric 4.90
$end
--------------------------------------------------------------

             Standard Nuclear Orientation (Angstroms)
    I     Atom           X                Y                Z
 ----------------------------------------------------------------
    1      C      -0.3182470000    -8.5177020000    -0.0413300000
    2      C       0.7573330000    -7.6415750000    -0.0494530000
    3      S      -1.8663830000    -7.6386340000    -0.0249190000
    4      C       0.3808670000    -6.2647850000    -0.0494880000
    5      H       1.8055730000    -7.9660810000    -0.0553680000
    6      C      -1.0456470000    -6.0727140000    -0.0511150000
    7      C      -1.6080770000    -4.7870490000    -0.0262030000
    8      C       1.2829480000    -5.1628010000    -0.0266370000
    9      C       0.7201870000    -3.8748170000     0.0025860000
   10      C      -0.7078530000    -3.6839520000    -0.0019030000
   11      O       2.6023860000    -5.4997720000    -0.0548670000
   12      O      -2.9335170000    -4.4590550000     0.0033480000
   13      C      -3.8819990000    -5.3290630000    -0.6023840000
   14      H      -4.8257440000    -4.7556940000    -0.6750790000
   15      H      -4.0709720000    -6.2380950000     0.0095920000
   16      H      -3.5621520000    -5.6372620000    -1.6212630000
   17      C       3.5882530000    -4.5722610000     0.3819470000
   18      H       4.5356740000    -5.1397430000     0.4498720000
   19      H       3.3429860000    -4.1531310000     1.3813880000
   20      H       3.7282390000    -3.7395310000    -0.3410400000
   21      C      -1.0807250000    -2.3066540000     0.0003480000
   22      S       1.5426940000    -2.3065010000    -0.0109240000
   23      C       0.0000000000    -1.4351850000     0.0000000000
   24      H      -2.1276350000    -1.9781380000     0.0036120000
   25      H      -0.3205590000    -9.6140330000    -0.0377640000
   26      C       0.0000000000     0.0000000000     0.0000000000
   27      S       0.4527920000     0.7833120000     1.5075410000
   28      C       1.2383970000     2.1455560000     0.7188730000
   29      C       0.4528750000     0.7828980000    -1.0678720000
   30      C       1.1459450000     1.9879560000    -0.6864100000
   31      S       0.3335560000     0.5705310000    -2.8055160000
   32      C       1.2046040000     2.0902900000    -3.0545300000
   33      C       1.5566330000     2.7049290000    -1.8625510000
   34      F       2.2207970000     3.8649030000    -1.8190880000
   35      C       1.4302520000     2.4773450000    -4.4560840000
   36      O       1.0522420000     1.8066480000    -5.4065100000
   37      O       2.0990500000     3.6506630000    -4.5692250000
   38      C       2.3511160000     4.0768080000    -5.9162070000
   39      H       2.8955790000     5.0338210000    -5.8330640000
   40      H       1.4010150000     4.2173900000    -6.4701680000
   41      H       2.9623910000     3.3279690000    -6.4592930000
   42      H       1.6993020000     2.9466930000     1.3064860000
 ----------------------------------------------------------------

   10   -2754.2993267768      7.88e-07  Convergence criterion met
 Total energy in the final basis set =    -2754.2993267768
        RIMP2         total energy =     -2759.3521920199 a.u.

                    Orbital Energies (a.u.)
 --------------------------------------------------------------

 Alpha MOs
 -- Occupied --
-92.0135 -91.9994 -91.9870 -91.9860 -26.3433 -20.6144 -20.5919 -20.5910
-20.5607 -11.4089 -11.3826 -11.3184 -11.3174 -11.3150 -11.3045 -11.2966
-11.2897 -11.2886 -11.2884 -11.2868 -11.2858 -11.2851 -11.2843 -11.2833
-11.2796 -11.2588 -11.2586 -11.2543 -11.2496  -9.0122  -8.9993  -8.9874
 -8.9859  -6.6929  -6.6922  -6.6918  -6.6803  -6.6796  -6.6785  -6.6684
 -6.6677  -6.6669  -6.6667  -6.6663  -6.6654  -1.6604  -1.4669  -1.4160
 -1.4138  -1.3695  -1.2224  -1.1932  -1.1646  -1.1360  -1.0837  -1.0511
 -1.0415  -1.0225  -1.0007  -0.9869  -0.9619  -0.9601  -0.9500  -0.9384
 -0.8952  -0.8676  -0.8491  -0.8104  -0.7927  -0.7877  -0.7855  -0.7645
 -0.7550  -0.7331  -0.7252  -0.7096  -0.7002  -0.6848  -0.6824  -0.6804
 -0.6736  -0.6587  -0.6575  -0.6522  -0.6297  -0.6196  -0.6170  -0.6056
 -0.5979  -0.5864  -0.5766  -0.5686  -0.5653  -0.5615  -0.5550  -0.5437
 -0.5334  -0.5307  -0.5226  -0.5153  -0.5146  -0.5093  -0.5036  -0.4942
 -0.4893  -0.4804  -0.4743  -0.4732  -0.4683  -0.4665  -0.4610  -0.4040
 -0.3968  -0.3862  -0.3557  -0.3502  -0.3117  -0.3009  -0.2588

          Ground-State Mulliken Net Atomic Charges

     Atom                 Charge (a.u.)
  ----------------------------------------
      1 C                    -0.188429
      2 C                    -0.254807
      3 S                    -0.022968
      4 C                    -0.013711
      5 H                     0.196320
      6 C                    -0.028731
      7 C                     0.242518
      8 C                     0.239966
      9 C                    -0.041682
     10 C                    -0.022894
     11 O                    -0.333393
     12 O                    -0.339645
     13 C                    -0.085735
     14 H                     0.122546
     15 H                     0.090745
     16 H                     0.094241
     17 C                    -0.086474
     18 H                     0.124814
     19 H                     0.093959
     20 H                     0.090126
     21 C                    -0.216806
     22 S                    -0.001969
     23 C                    -0.078479
     24 H                     0.197662
     25 H                     0.206304
     26 C                    -0.014913
     27 S                     0.112019
     28 C                    -0.176358
     29 C                    -0.030865
     30 C                    -0.079834
     31 S                     0.021122
     32 C                    -0.153429
     33 C                     0.390004
     34 F                    -0.206224
     35 C                     0.446896
     36 O                    -0.461464
     37 O                    -0.301036
     38 C                    -0.058374
     39 H                     0.121246
     40 H                     0.095061
     41 H                     0.095050
     42 H                     0.217622
  ----------------------------------------
  Sum of atomic charges =     0.000000

                    Cartesian Multipole Moments
 -----------------------------------------------------------------
    Charge (ESU x 10^10)
                 0.0000
    Dipole Moment (Debye)
         X       1.6442      Y       1.0436      Z       2.6886
       Tot       3.3199
    Quadrupole Moments (Debye-Ang)
        XX    -174.3044     XY       7.4723     YY    -164.2604
        XZ       2.1021     YZ      -4.8637     ZZ    -204.9024

 Total job time:  292.69s(wall), 9202.34s(cpu)
        *  Thank you very much for using Q-Chem.  Have a nice day.  *
