 Q-Chem 5.4, Q-Chem, Inc., Pleasanton, CA (2021)
 Q-Chem 5.4.0 for Intel X86 EM64T Linux

User input:
--------------------------------------------------------------
$molecule
0 1
C	0.123330	-8.517702	0.296276
C	-0.421494	-7.641575	-0.631143
S	0.911611	-7.638634	1.628795
C	-0.233291	-6.264785	-0.305097
H	-0.950737	-7.966081	-1.535988
C	0.478557	-6.072714	0.931114
C	0.781346	-4.787049	1.405737
C	-0.664542	-5.162801	-1.097747
C	-0.357854	-3.874817	-0.624993
C	0.352278	-3.683952	0.613970
O	-1.348709	-5.499772	-2.226300
O	1.469658	-4.459055	2.538827
C	1.419319	-5.329063	3.663102
H	1.828237	-4.755694	4.516756
H	2.043793	-6.238095	3.520769
H	0.377021	-5.637262	3.895546
C	-1.463351	-4.572261	-3.298492
H	-1.878237	-5.139743	-4.152945
H	-0.475176	-4.153131	-3.585804
H	-2.159469	-3.739531	-3.058230
C	0.540664	-2.306654	0.935761
S	-0.780808	-2.306501	-1.330550
C	0.000000	-1.435185	0.000000
H	1.066946	-1.978138	1.840780
H	0.127575	-9.614033	0.296494
C	0.000000	0.000000	0.000000
S	0.234628	0.873813	1.507541
C	0.640889	2.392969	0.718873
C	0.234815	0.873434	-1.067872
C	0.592377	2.216811	-0.686410
S	0.174526	0.637422	-2.805516
C	0.622551	2.330840	-3.054530
C	0.803505	3.015647	-1.862551
F	1.144815	4.307994	-1.819088
C	0.740334	2.763108	-4.456084
O	0.548793	2.017428	-5.406510
O	1.082665	4.069544	-4.569225
C	1.215848	4.546407	-5.916207
H	1.494066	5.611729	-5.833064
H	0.261736	4.436296	-6.470168
H	2.000108	3.981294	-6.459293
H	0.878739	3.286099	1.306486
$end

$rem
JOBTYPE		SP
EXCHANGE	HF
CORRELATION	pRIMP2
BASIS		cc-pvtz
METHOD		rimp2
AUX_BASIS	rimp2-cc-pvtz
SOLVENT_METHOD	PCM
PURECART	11111
SYMMETRY	false
MEM_TOTAL	110000
SCF_CONVERGENCE = 6
THRESH=10
GUI = 2
$end

$solvent
dielectric 4.90
$end
--------------------------------------------------------------

             Standard Nuclear Orientation (Angstroms)
    I     Atom           X                Y                Z
 ----------------------------------------------------------------
    1      C       0.1233300000    -8.5177020000     0.2962760000
    2      C      -0.4214940000    -7.6415750000    -0.6311430000
    3      S       0.9116110000    -7.6386340000     1.6287950000
    4      C      -0.2332910000    -6.2647850000    -0.3050970000
    5      H      -0.9507370000    -7.9660810000    -1.5359880000
    6      C       0.4785570000    -6.0727140000     0.9311140000
    7      C       0.7813460000    -4.7870490000     1.4057370000
    8      C      -0.6645420000    -5.1628010000    -1.0977470000
    9      C      -0.3578540000    -3.8748170000    -0.6249930000
   10      C       0.3522780000    -3.6839520000     0.6139700000
   11      O      -1.3487090000    -5.4997720000    -2.2263000000
   12      O       1.4696580000    -4.4590550000     2.5388270000
   13      C       1.4193190000    -5.3290630000     3.6631020000
   14      H       1.8282370000    -4.7556940000     4.5167560000
   15      H       2.0437930000    -6.2380950000     3.5207690000
   16      H       0.3770210000    -5.6372620000     3.8955460000
   17      C      -1.4633510000    -4.5722610000    -3.2984920000
   18      H      -1.8782370000    -5.1397430000    -4.1529450000
   19      H      -0.4751760000    -4.1531310000    -3.5858040000
   20      H      -2.1594690000    -3.7395310000    -3.0582300000
   21      C       0.5406640000    -2.3066540000     0.9357610000
   22      S      -0.7808080000    -2.3065010000    -1.3305500000
   23      C       0.0000000000    -1.4351850000     0.0000000000
   24      H       1.0669460000    -1.9781380000     1.8407800000
   25      H       0.1275750000    -9.6140330000     0.2964940000
   26      C       0.0000000000     0.0000000000     0.0000000000
   27      S       0.2346280000     0.8738130000     1.5075410000
   28      C       0.6408890000     2.3929690000     0.7188730000
   29      C       0.2348150000     0.8734340000    -1.0678720000
   30      C       0.5923770000     2.2168110000    -0.6864100000
   31      S       0.1745260000     0.6374220000    -2.8055160000
   32      C       0.6225510000     2.3308400000    -3.0545300000
   33      C       0.8035050000     3.0156470000    -1.8625510000
   34      F       1.1448150000     4.3079940000    -1.8190880000
   35      C       0.7403340000     2.7631080000    -4.4560840000
   36      O       0.5487930000     2.0174280000    -5.4065100000
   37      O       1.0826650000     4.0695440000    -4.5692250000
   38      C       1.2158480000     4.5464070000    -5.9162070000
   39      H       1.4940660000     5.6117290000    -5.8330640000
   40      H       0.2617360000     4.4362960000    -6.4701680000
   41      H       2.0001080000     3.9812940000    -6.4592930000
   42      H       0.8787390000     3.2860990000     1.3064860000
 ----------------------------------------------------------------

   10   -2754.3130972128      7.18e-07  Convergence criterion met
 Total energy in the final basis set =    -2754.3130972128
        RIMP2         total energy =     -2759.3661106939 a.u.

                    Orbital Energies (a.u.)
 --------------------------------------------------------------

 Alpha MOs
 -- Occupied --
-92.0154 -91.9987 -91.9907 -91.9861 -26.3433 -20.6147 -20.5924 -20.5912
-20.5611 -11.4093 -11.3825 -11.3198 -11.3169 -11.3112 -11.3021 -11.2996
-11.2975 -11.2971 -11.2888 -11.2866 -11.2862 -11.2861 -11.2855 -11.2841
-11.2791 -11.2618 -11.2581 -11.2546 -11.2498  -9.0139  -8.9988  -8.9912
 -8.9861  -6.6947  -6.6941  -6.6935  -6.6797  -6.6790  -6.6779  -6.6722
 -6.6715  -6.6705  -6.6671  -6.6664  -6.6656  -1.6604  -1.4672  -1.4164
 -1.4140  -1.3699  -1.2225  -1.1946  -1.1659  -1.1364  -1.0857  -1.0520
 -1.0417  -1.0238  -1.0019  -0.9881  -0.9641  -0.9586  -0.9499  -0.9406
 -0.8957  -0.8680  -0.8514  -0.8145  -0.7920  -0.7875  -0.7865  -0.7650
 -0.7554  -0.7338  -0.7252  -0.7103  -0.6991  -0.6855  -0.6834  -0.6815
 -0.6738  -0.6592  -0.6580  -0.6525  -0.6306  -0.6198  -0.6166  -0.6034
 -0.5981  -0.5869  -0.5772  -0.5690  -0.5678  -0.5627  -0.5554  -0.5533
 -0.5318  -0.5291  -0.5225  -0.5184  -0.5173  -0.5107  -0.5060  -0.4945
 -0.4881  -0.4789  -0.4769  -0.4739  -0.4701  -0.4653  -0.4600  -0.4228
 -0.3941  -0.3860  -0.3604  -0.3504  -0.3239  -0.2916  -0.2510

          Ground-State Mulliken Net Atomic Charges

     Atom                 Charge (a.u.)
  ----------------------------------------
      1 C                    -0.190484
      2 C                    -0.253037
      3 S                    -0.022891
      4 C                    -0.016762
      5 H                     0.196359
      6 C                    -0.027543
      7 C                     0.238080
      8 C                     0.243781
      9 C                    -0.042241
     10 C                    -0.022631
     11 O                    -0.333124
     12 O                    -0.340758
     13 C                    -0.085569
     14 H                     0.122247
     15 H                     0.091070
     16 H                     0.093806
     17 C                    -0.088349
     18 H                     0.125361
     19 H                     0.095919
     20 H                     0.090031
     21 C                    -0.255318
     22 S                    -0.020667
     23 C                     0.001345
     24 H                     0.193049
     25 H                     0.206180
     26 C                    -0.010273
     27 S                     0.088337
     28 C                    -0.175872
     29 C                     0.022973
     30 C                    -0.121259
     31 S                     0.008654
     32 C                    -0.159736
     33 C                     0.400284
     34 F                    -0.206475
     35 C                     0.445368
     36 O                    -0.460936
     37 O                    -0.300791
     38 C                    -0.058504
     39 H                     0.121352
     40 H                     0.095047
     41 H                     0.095092
     42 H                     0.218883
  ----------------------------------------
  Sum of atomic charges =     0.000000

                    Cartesian Multipole Moments
 -----------------------------------------------------------------
    Charge (ESU x 10^10)
                 0.0000
    Dipole Moment (Debye)
         X       0.4314      Y       1.2043      Z       2.8906
       Tot       3.1611
    Quadrupole Moments (Debye-Ang)
        XX    -199.1009     XY       5.3948     YY    -161.6322
        XZ       5.0450     YZ      -7.6228     ZZ    -183.1162

 Total job time:  309.03s(wall), 10145.09s(cpu)
        *  Thank you very much for using Q-Chem.  Have a nice day.  *
