 Q-Chem 5.4, Q-Chem, Inc., Pleasanton, CA (2021)
 Q-Chem 5.4.0 for Intel X86 EM64T Linux

User input:
--------------------------------------------------------------
$molecule
0 1
C	0.320589	-8.517702	-0.014560
C	-0.737240	-7.641575	0.180211
S	1.842356	-7.638634	-0.299553
C	-0.366488	-6.264785	0.114873
H	-1.768528	-7.966081	0.368061
C	1.038637	-6.072714	-0.131236
C	1.588197	-4.787049	-0.253435
C	-1.258831	-5.162801	0.249014
C	-0.709695	-3.874817	0.122513
C	0.697430	-3.683952	-0.121043
O	-2.553323	-5.499772	0.505933
O	2.888369	-4.459055	-0.512697
C	3.927625	-5.329063	-0.080869
H	4.869656	-4.755694	-0.173159
H	4.007459	-6.238095	-0.716363
H	3.789565	-5.637262	0.978072
C	-3.600064	-4.572261	0.246949
H	-4.544887	-5.139743	0.344574
H	-3.532074	-4.153131	-0.779898
H	-3.612378	-3.739531	0.983261
C	1.064246	-2.306654	-0.188009
S	-1.517360	-2.306501	0.278644
C	-0.000000	-1.435185	-0.000000
H	2.094685	-1.978138	-0.373017
H	0.322246	-9.614033	-0.018474
C	0.000000	0.000000	0.000000
S	0.452792	0.783312	1.507541
C	1.238397	2.145556	0.718873
C	0.452875	0.782898	-1.067872
C	1.145945	1.987956	-0.686410
S	0.333556	0.570531	-2.805516
C	1.204604	2.090290	-3.054530
C	1.556633	2.704929	-1.862551
F	2.220797	3.864903	-1.819088
C	1.430252	2.477345	-4.456084
O	1.052242	1.806648	-5.406510
O	2.099050	3.650663	-4.569225
C	2.351116	4.076808	-5.916207
H	2.895579	5.033821	-5.833064
H	1.401015	4.217390	-6.470168
H	2.962391	3.327969	-6.459293
H	1.699302	2.946693	1.306486
$end

$rem
JOBTYPE		SP
EXCHANGE	HF
CORRELATION	pRIMP2
BASIS		cc-pvtz
METHOD		rimp2
AUX_BASIS	rimp2-cc-pvtz
SOLVENT_METHOD	PCM
PURECART	11111
SYMMETRY	false
MEM_TOTAL	110000
SCF_CONVERGENCE = 6
THRESH=10
GUI = 2
$end

$solvent
dielectric 4.90
$end
--------------------------------------------------------------

             Standard Nuclear Orientation (Angstroms)
    I     Atom           X                Y                Z
 ----------------------------------------------------------------
    1      C       0.3205890000    -8.5177020000    -0.0145600000
    2      C      -0.7372400000    -7.6415750000     0.1802110000
    3      S       1.8423560000    -7.6386340000    -0.2995530000
    4      C      -0.3664880000    -6.2647850000     0.1148730000
    5      H      -1.7685280000    -7.9660810000     0.3680610000
    6      C       1.0386370000    -6.0727140000    -0.1312360000
    7      C       1.5881970000    -4.7870490000    -0.2534350000
    8      C      -1.2588310000    -5.1628010000     0.2490140000
    9      C      -0.7096950000    -3.8748170000     0.1225130000
   10      C       0.6974300000    -3.6839520000    -0.1210430000
   11      O      -2.5533230000    -5.4997720000     0.5059330000
   12      O       2.8883690000    -4.4590550000    -0.5126970000
   13      C       3.9276250000    -5.3290630000    -0.0808690000
   14      H       4.8696560000    -4.7556940000    -0.1731590000
   15      H       4.0074590000    -6.2380950000    -0.7163630000
   16      H       3.7895650000    -5.6372620000     0.9780720000
   17      C      -3.6000640000    -4.5722610000     0.2469490000
   18      H      -4.5448870000    -5.1397430000     0.3445740000
   19      H      -3.5320740000    -4.1531310000    -0.7798980000
   20      H      -3.6123780000    -3.7395310000     0.9832610000
   21      C       1.0642460000    -2.3066540000    -0.1880090000
   22      S      -1.5173600000    -2.3065010000     0.2786440000
   23      C       0.0000000000    -1.4351850000     0.0000000000
   24      H       2.0946850000    -1.9781380000    -0.3730170000
   25      H       0.3222460000    -9.6140330000    -0.0184740000
   26      C       0.0000000000     0.0000000000     0.0000000000
   27      S       0.4527920000     0.7833120000     1.5075410000
   28      C       1.2383970000     2.1455560000     0.7188730000
   29      C       0.4528750000     0.7828980000    -1.0678720000
   30      C       1.1459450000     1.9879560000    -0.6864100000
   31      S       0.3335560000     0.5705310000    -2.8055160000
   32      C       1.2046040000     2.0902900000    -3.0545300000
   33      C       1.5566330000     2.7049290000    -1.8625510000
   34      F       2.2207970000     3.8649030000    -1.8190880000
   35      C       1.4302520000     2.4773450000    -4.4560840000
   36      O       1.0522420000     1.8066480000    -5.4065100000
   37      O       2.0990500000     3.6506630000    -4.5692250000
   38      C       2.3511160000     4.0768080000    -5.9162070000
   39      H       2.8955790000     5.0338210000    -5.8330640000
   40      H       1.4010150000     4.2173900000    -6.4701680000
   41      H       2.9623910000     3.3279690000    -6.4592930000
   42      H       1.6993020000     2.9466930000     1.3064860000
 ----------------------------------------------------------------

   10   -2754.2985420367      8.22e-07  Convergence criterion met
 Total energy in the final basis set =    -2754.2985420367
        RIMP2         total energy =     -2759.3517964494 a.u.

                    Orbital Energies (a.u.)
 --------------------------------------------------------------

 Alpha MOs
 -- Occupied --
-92.0137 -91.9991 -91.9857 -91.9857 -26.3433 -20.6144 -20.5917 -20.5908
-20.5607 -11.4089 -11.3825 -11.3181 -11.3169 -11.3155 -11.3052 -11.2965
-11.2910 -11.2886 -11.2883 -11.2863 -11.2858 -11.2842 -11.2841 -11.2832
-11.2791 -11.2596 -11.2579 -11.2550 -11.2494  -9.0123  -8.9990  -8.9862
 -8.9856  -6.6930  -6.6924  -6.6919  -6.6800  -6.6793  -6.6782  -6.6671
 -6.6666  -6.6664  -6.6660  -6.6655  -6.6651  -1.6604  -1.4668  -1.4157
 -1.4136  -1.3695  -1.2222  -1.1931  -1.1644  -1.1358  -1.0837  -1.0508
 -1.0417  -1.0224  -1.0001  -0.9870  -0.9615  -0.9599  -0.9496  -0.9389
 -0.8945  -0.8675  -0.8486  -0.8096  -0.7944  -0.7882  -0.7855  -0.7640
 -0.7550  -0.7329  -0.7253  -0.7097  -0.7005  -0.6847  -0.6823  -0.6803
 -0.6735  -0.6586  -0.6572  -0.6521  -0.6293  -0.6195  -0.6165  -0.6055
 -0.5979  -0.5853  -0.5749  -0.5702  -0.5662  -0.5617  -0.5533  -0.5516
 -0.5306  -0.5273  -0.5228  -0.5156  -0.5140  -0.5085  -0.5036  -0.4941
 -0.4885  -0.4803  -0.4745  -0.4732  -0.4689  -0.4650  -0.4601  -0.4044
 -0.3962  -0.3863  -0.3583  -0.3467  -0.3144  -0.2997  -0.2571

          Ground-State Mulliken Net Atomic Charges

     Atom                 Charge (a.u.)
  ----------------------------------------
      1 C                    -0.189625
      2 C                    -0.254189
      3 S                    -0.023403
      4 C                    -0.016316
      5 H                     0.196165
      6 C                    -0.029007
      7 C                     0.240374
      8 C                     0.244128
      9 C                    -0.051894
     10 C                    -0.016990
     11 O                    -0.333702
     12 O                    -0.340155
     13 C                    -0.085661
     14 H                     0.122298
     15 H                     0.091167
     16 H                     0.093581
     17 C                    -0.086203
     18 H                     0.124432
     19 H                     0.094693
     20 H                     0.089408
     21 C                    -0.205954
     22 S                    -0.004218
     23 C                    -0.035126
     24 H                     0.198655
     25 H                     0.206144
     26 C                    -0.060041
     27 S                     0.112056
     28 C                    -0.176210
     29 C                    -0.032440
     30 C                    -0.079655
     31 S                     0.023212
     32 C                    -0.154577
     33 C                     0.390143
     34 F                    -0.206360
     35 C                     0.446908
     36 O                    -0.461575
     37 O                    -0.301053
     38 C                    -0.058399
     39 H                     0.121224
     40 H                     0.095068
     41 H                     0.095043
     42 H                     0.218054
  ----------------------------------------
  Sum of atomic charges =     0.000000

                    Cartesian Multipole Moments
 -----------------------------------------------------------------
    Charge (ESU x 10^10)
                 0.0000
    Dipole Moment (Debye)
         X       1.5853      Y       1.1800      Z       3.1920
       Tot       3.7542
    Quadrupole Moments (Debye-Ang)
        XX    -173.1765     XY       6.4696     YY    -165.2905
        XZ      -1.9882     YZ      -7.5576     ZZ    -206.2581

 Total job time:  506.36s(wall), 21104.42s(cpu)
        *  Thank you very much for using Q-Chem.  Have a nice day.  *
