 Q-Chem 5.4, Q-Chem, Inc., Pleasanton, CA (2021)
 Q-Chem 5.4.0 for Intel X86 EM64T Linux

User input:
--------------------------------------------------------------
$molecule
0 1
C	0.194917	-8.517702	-0.254945
C	-0.335839	-7.641575	0.680596
S	0.954772	-7.638634	-1.603876
C	-0.147576	-6.264785	0.354585
H	-0.854836	-7.966081	1.591356
C	0.567090	-6.072714	-0.879999
C	0.826731	-4.787049	-1.379534
C	-0.618405	-5.162801	1.124384
C	-0.362333	-3.874817	0.622407
C	0.355575	-3.683952	-0.612067
O	-1.253677	-5.499772	2.281166
O	1.463859	-4.459055	-2.542174
C	2.462679	-5.329063	-3.060718
H	2.997507	-4.755694	-3.841678
H	2.027179	-6.238095	-3.530361
H	3.185132	-5.637262	-2.274283
C	-2.124902	-4.572261	2.916545
H	-2.657438	-5.139743	3.703073
H	-2.867810	-4.153131	2.204417
H	-1.568770	-3.739531	3.399269
C	0.540061	-2.306654	-0.936109
S	-0.761887	-2.306501	1.341474
C	-0.000000	-1.435185	-0.000000
H	1.060690	-1.978138	-1.844392
H	0.192984	-9.614033	-0.258730
C	0.000000	0.000000	0.000000
S	0.783786	0.451972	1.507541
C	2.145261	1.238908	0.718873
C	0.783650	0.451572	-1.067872
C	1.986396	1.148648	-0.686410
S	0.574133	0.327317	-2.805516
C	2.088363	1.207943	-3.054530
C	2.700548	1.564221	-1.862551
F	3.855718	2.236706	-1.819088
C	2.477307	1.430318	-4.456084
O	1.814592	1.038482	-5.406510
O	3.643162	2.112042	-4.569225
C	4.074530	2.355061	-5.916207
H	5.024556	2.911627	-5.833064
H	3.322010	2.951860	-6.470168
H	4.229490	1.400910	-6.459293
H	2.944986	1.702260	1.306486
$end

$rem
JOBTYPE		SP
EXCHANGE	HF
CORRELATION	pRIMP2
BASIS		cc-pvtz
METHOD		rimp2
AUX_BASIS	rimp2-cc-pvtz
SOLVENT_METHOD	PCM
PURECART	11111
SYMMETRY	false
MEM_TOTAL	110000
SCF_CONVERGENCE = 6
THRESH=10
GUI = 2
$end

$solvent
dielectric 4.90
$end
--------------------------------------------------------------

             Standard Nuclear Orientation (Angstroms)
    I     Atom           X                Y                Z
 ----------------------------------------------------------------
    1      C       0.1949170000    -8.5177020000    -0.2549450000
    2      C      -0.3358390000    -7.6415750000     0.6805960000
    3      S       0.9547720000    -7.6386340000    -1.6038760000
    4      C      -0.1475760000    -6.2647850000     0.3545850000
    5      H      -0.8548360000    -7.9660810000     1.5913560000
    6      C       0.5670900000    -6.0727140000    -0.8799990000
    7      C       0.8267310000    -4.7870490000    -1.3795340000
    8      C      -0.6184050000    -5.1628010000     1.1243840000
    9      C      -0.3623330000    -3.8748170000     0.6224070000
   10      C       0.3555750000    -3.6839520000    -0.6120670000
   11      O      -1.2536770000    -5.4997720000     2.2811660000
   12      O       1.4638590000    -4.4590550000    -2.5421740000
   13      C       2.4626790000    -5.3290630000    -3.0607180000
   14      H       2.9975070000    -4.7556940000    -3.8416780000
   15      H       2.0271790000    -6.2380950000    -3.5303610000
   16      H       3.1851320000    -5.6372620000    -2.2742830000
   17      C      -2.1249020000    -4.5722610000     2.9165450000
   18      H      -2.6574380000    -5.1397430000     3.7030730000
   19      H      -2.8678100000    -4.1531310000     2.2044170000
   20      H      -1.5687700000    -3.7395310000     3.3992690000
   21      C       0.5400610000    -2.3066540000    -0.9361090000
   22      S      -0.7618870000    -2.3065010000     1.3414740000
   23      C       0.0000000000    -1.4351850000     0.0000000000
   24      H       1.0606900000    -1.9781380000    -1.8443920000
   25      H       0.1929840000    -9.6140330000    -0.2587300000
   26      C       0.0000000000     0.0000000000     0.0000000000
   27      S       0.7837860000     0.4519720000     1.5075410000
   28      C       2.1452610000     1.2389080000     0.7188730000
   29      C       0.7836500000     0.4515720000    -1.0678720000
   30      C       1.9863960000     1.1486480000    -0.6864100000
   31      S       0.5741330000     0.3273170000    -2.8055160000
   32      C       2.0883630000     1.2079430000    -3.0545300000
   33      C       2.7005480000     1.5642210000    -1.8625510000
   34      F       3.8557180000     2.2367060000    -1.8190880000
   35      C       2.4773070000     1.4303180000    -4.4560840000
   36      O       1.8145920000     1.0384820000    -5.4065100000
   37      O       3.6431620000     2.1120420000    -4.5692250000
   38      C       4.0745300000     2.3550610000    -5.9162070000
   39      H       5.0245560000     2.9116270000    -5.8330640000
   40      H       3.3220100000     2.9518600000    -6.4701680000
   41      H       4.2294900000     1.4009100000    -6.4592930000
   42      H       2.9449860000     1.7022600000     1.3064860000
 ----------------------------------------------------------------

   10   -2754.2485910485      9.92e-07  Convergence criterion met
 Total energy in the final basis set =    -2754.2485910485
        RIMP2         total energy =     -2759.3137462725 a.u.

                    Orbital Energies (a.u.)
 --------------------------------------------------------------

 Alpha MOs
 -- Occupied --
-92.0166 -92.0100 -91.9828 -91.9811 -26.3469 -20.6162 -20.5903 -20.5864
-20.5628 -11.4114 -11.3876 -11.3383 -11.3223 -11.3160 -11.3092 -11.2999
-11.2969 -11.2908 -11.2898 -11.2857 -11.2834 -11.2804 -11.2783 -11.2742
-11.2720 -11.2561 -11.2516 -11.2471 -11.2353  -9.0161  -9.0097  -8.9827
 -8.9823  -6.6967  -6.6958  -6.6955  -6.6906  -6.6898  -6.6889  -6.6637
 -6.6633  -6.6631  -6.6626  -6.6622  -6.6616  -1.6639  -1.4688  -1.4142
 -1.4093  -1.3715  -1.2361  -1.1894  -1.1649  -1.1407  -1.0860  -1.0481
 -1.0455  -1.0286  -0.9961  -0.9878  -0.9663  -0.9573  -0.9480  -0.9396
 -0.8925  -0.8729  -0.8439  -0.8118  -0.7991  -0.7875  -0.7820  -0.7615
 -0.7563  -0.7304  -0.7286  -0.7146  -0.6997  -0.6870  -0.6832  -0.6795
 -0.6752  -0.6611  -0.6565  -0.6495  -0.6294  -0.6173  -0.6164  -0.6077
 -0.6021  -0.5833  -0.5747  -0.5699  -0.5649  -0.5601  -0.5564  -0.5429
 -0.5322  -0.5278  -0.5209  -0.5160  -0.5127  -0.5079  -0.5061  -0.4954
 -0.4875  -0.4821  -0.4771  -0.4741  -0.4670  -0.4609  -0.4563  -0.4183
 -0.3897  -0.3816  -0.3601  -0.3495  -0.3271  -0.2902  -0.2471

          Ground-State Mulliken Net Atomic Charges

     Atom                 Charge (a.u.)
  ----------------------------------------
      1 C                    -0.199676
      2 C                    -0.253659
      3 S                    -0.029031
      4 C                    -0.023979
      5 H                     0.194871
      6 C                    -0.022273
      7 C                     0.231294
      8 C                     0.247700
      9 C                    -0.046576
     10 C                    -0.022466
     11 O                    -0.333942
     12 O                    -0.342663
     13 C                    -0.085940
     14 H                     0.121350
     15 H                     0.090673
     16 H                     0.091940
     17 C                    -0.087049
     18 H                     0.124889
     19 H                     0.094648
     20 H                     0.088712
     21 C                    -0.271697
     22 S                    -0.053661
     23 C                     0.025000
     24 H                     0.194500
     25 H                     0.204328
     26 C                    -0.187330
     27 S                     0.132354
     28 C                    -0.120930
     29 C                     0.074454
     30 C                    -0.105662
     31 S                     0.067384
     32 C                    -0.155828
     33 C                     0.399183
     34 F                    -0.204581
     35 C                     0.449022
     36 O                    -0.461623
     37 O                    -0.301118
     38 C                    -0.058040
     39 H                     0.121659
     40 H                     0.095515
     41 H                     0.095346
     42 H                     0.222901
  ----------------------------------------
  Sum of atomic charges =     0.000000

                    Cartesian Multipole Moments
 -----------------------------------------------------------------
    Charge (ESU x 10^10)
                -0.0000
    Dipole Moment (Debye)
         X       3.8919      Y       2.4018      Z       2.9639
       Tot       5.4498
    Quadrupole Moments (Debye-Ang)
        XX    -176.5961     XY       7.7044     YY    -183.0125
        XZ     -18.1254     YZ      -5.0999     ZZ    -191.3293

 Total job time:  301.24s(wall), 9506.19s(cpu)
        *  Thank you very much for using Q-Chem.  Have a nice day.  *
