 Q-Chem 5.4, Q-Chem, Inc., Pleasanton, CA (2021)
 Q-Chem 5.4.0 for Intel X86 EM64T Linux

User input:
--------------------------------------------------------------
$molecule
0 1
C	0.296276	-8.517702	-0.123330
C	-0.631143	-7.641575	0.421494
S	1.628795	-7.638634	-0.911611
C	-0.305097	-6.264785	0.233291
H	-1.535988	-7.966081	0.950737
C	0.931114	-6.072714	-0.478557
C	1.405737	-4.787049	-0.781346
C	-1.097747	-5.162801	0.664542
C	-0.624993	-3.874817	0.357854
C	0.613970	-3.683952	-0.352278
O	-2.226300	-5.499772	1.348709
O	2.538827	-4.459055	-1.469658
C	3.663102	-5.329063	-1.419319
H	4.516756	-4.755694	-1.828237
H	3.520769	-6.238095	-2.043793
H	3.895546	-5.637262	-0.377021
C	-3.298492	-4.572261	1.463351
H	-4.152945	-5.139743	1.878237
H	-3.585804	-4.153131	0.475176
H	-3.058230	-3.739531	2.159469
C	0.935761	-2.306654	-0.540664
S	-1.330550	-2.306501	0.780808
C	0.000000	-1.435185	0.000000
H	1.840780	-1.978138	-1.066946
H	0.296494	-9.614033	-0.127575
C	0.000000	0.000000	0.000000
S	0.000474	0.904764	1.507541
C	-0.000295	2.477305	0.718873
C	0.000752	0.904447	-1.067872
C	-0.001560	2.294593	-0.686410
S	0.003602	0.660872	-2.805516
C	-0.001928	2.412546	-3.054530
C	-0.004381	3.120854	-1.862551
F	-0.009185	4.457503	-1.819088
C	-0.000038	2.860570	-4.456084
O	0.007944	2.090724	-5.406510
O	-0.007501	4.211092	-4.569225
C	-0.002278	4.706177	-5.916207
H	-0.009265	5.807207	-5.833064
H	-0.895381	4.352875	-6.470168
H	0.901521	4.363301	-6.459293
H	-0.001708	3.401562	1.306486
$end

$rem
JOBTYPE		SP
EXCHANGE	HF
CORRELATION	pRIMP2
BASIS		cc-pvtz
METHOD		rimp2
AUX_BASIS	rimp2-cc-pvtz
SOLVENT_METHOD	PCM
PURECART	11111
SYMMETRY	false
MEM_TOTAL	110000
SCF_CONVERGENCE = 6
THRESH=10
GUI = 2
$end

$solvent
dielectric 4.90
$end
--------------------------------------------------------------

             Standard Nuclear Orientation (Angstroms)
    I     Atom           X                Y                Z
 ----------------------------------------------------------------
    1      C       0.2962760000    -8.5177020000    -0.1233300000
    2      C      -0.6311430000    -7.6415750000     0.4214940000
    3      S       1.6287950000    -7.6386340000    -0.9116110000
    4      C      -0.3050970000    -6.2647850000     0.2332910000
    5      H      -1.5359880000    -7.9660810000     0.9507370000
    6      C       0.9311140000    -6.0727140000    -0.4785570000
    7      C       1.4057370000    -4.7870490000    -0.7813460000
    8      C      -1.0977470000    -5.1628010000     0.6645420000
    9      C      -0.6249930000    -3.8748170000     0.3578540000
   10      C       0.6139700000    -3.6839520000    -0.3522780000
   11      O      -2.2263000000    -5.4997720000     1.3487090000
   12      O       2.5388270000    -4.4590550000    -1.4696580000
   13      C       3.6631020000    -5.3290630000    -1.4193190000
   14      H       4.5167560000    -4.7556940000    -1.8282370000
   15      H       3.5207690000    -6.2380950000    -2.0437930000
   16      H       3.8955460000    -5.6372620000    -0.3770210000
   17      C      -3.2984920000    -4.5722610000     1.4633510000
   18      H      -4.1529450000    -5.1397430000     1.8782370000
   19      H      -3.5858040000    -4.1531310000     0.4751760000
   20      H      -3.0582300000    -3.7395310000     2.1594690000
   21      C       0.9357610000    -2.3066540000    -0.5406640000
   22      S      -1.3305500000    -2.3065010000     0.7808080000
   23      C       0.0000000000    -1.4351850000     0.0000000000
   24      H       1.8407800000    -1.9781380000    -1.0669460000
   25      H       0.2964940000    -9.6140330000    -0.1275750000
   26      C       0.0000000000     0.0000000000     0.0000000000
   27      S       0.0004740000     0.9047640000     1.5075410000
   28      C      -0.0002950000     2.4773050000     0.7188730000
   29      C       0.0007520000     0.9044470000    -1.0678720000
   30      C      -0.0015600000     2.2945930000    -0.6864100000
   31      S       0.0036020000     0.6608720000    -2.8055160000
   32      C      -0.0019280000     2.4125460000    -3.0545300000
   33      C      -0.0043810000     3.1208540000    -1.8625510000
   34      F      -0.0091850000     4.4575030000    -1.8190880000
   35      C      -0.0000380000     2.8605700000    -4.4560840000
   36      O       0.0079440000     2.0907240000    -5.4065100000
   37      O      -0.0075010000     4.2110920000    -4.5692250000
   38      C      -0.0022780000     4.7061770000    -5.9162070000
   39      H      -0.0092650000     5.8072070000    -5.8330640000
   40      H      -0.8953810000     4.3528750000    -6.4701680000
   41      H       0.9015210000     4.3633010000    -6.4592930000
   42      H      -0.0017080000     3.4015620000     1.3064860000
 ----------------------------------------------------------------

   10   -2754.3155077752      6.96e-07  Convergence criterion met
 Total energy in the final basis set =    -2754.3155077752
        RIMP2         total energy =     -2759.3651853663 a.u.

                    Orbital Energies (a.u.)
 --------------------------------------------------------------

 Alpha MOs
 -- Occupied --
-92.0147 -91.9965 -91.9901 -91.9866 -26.3425 -20.6142 -20.5927 -20.5916
-20.5606 -11.4087 -11.3812 -11.3196 -11.3185 -11.3085 -11.3000 -11.2982
-11.2965 -11.2934 -11.2884 -11.2873 -11.2866 -11.2861 -11.2843 -11.2838
-11.2802 -11.2611 -11.2595 -11.2579 -11.2502  -9.0132  -8.9965  -8.9905
 -8.9865  -6.6939  -6.6934  -6.6928  -6.6775  -6.6768  -6.6756  -6.6714
 -6.6708  -6.6698  -6.6675  -6.6669  -6.6660  -1.6596  -1.4667  -1.4168
 -1.4144  -1.3693  -1.2201  -1.1948  -1.1657  -1.1352  -1.0847  -1.0523
 -1.0407  -1.0219  -1.0019  -0.9879  -0.9621  -0.9603  -0.9505  -0.9386
 -0.8962  -0.8667  -0.8518  -0.8079  -0.7964  -0.7877  -0.7868  -0.7648
 -0.7548  -0.7342  -0.7245  -0.7090  -0.7015  -0.6846  -0.6833  -0.6800
 -0.6733  -0.6595  -0.6572  -0.6528  -0.6306  -0.6202  -0.6174  -0.6042
 -0.5970  -0.5846  -0.5779  -0.5702  -0.5664  -0.5617  -0.5538  -0.5490
 -0.5338  -0.5304  -0.5245  -0.5164  -0.5154  -0.5079  -0.5051  -0.4956
 -0.4891  -0.4795  -0.4751  -0.4730  -0.4690  -0.4675  -0.4610  -0.4125
 -0.3961  -0.3866  -0.3577  -0.3497  -0.3195  -0.2938  -0.2570

          Ground-State Mulliken Net Atomic Charges

     Atom                 Charge (a.u.)
  ----------------------------------------
      1 C                    -0.187725
      2 C                    -0.254050
      3 S                    -0.021355
      4 C                    -0.013980
      5 H                     0.196389
      6 C                    -0.027400
      7 C                     0.243936
      8 C                     0.237968
      9 C                    -0.045942
     10 C                    -0.028926
     11 O                    -0.333242
     12 O                    -0.339449
     13 C                    -0.085794
     14 H                     0.122986
     15 H                     0.091212
     16 H                     0.093815
     17 C                    -0.086875
     18 H                     0.124988
     19 H                     0.095323
     20 H                     0.089496
     21 C                    -0.224285
     22 S                    -0.006501
     23 C                    -0.041271
     24 H                     0.200851
     25 H                     0.206549
     26 C                    -0.021400
     27 S                     0.102740
     28 C                    -0.186986
     29 C                     0.015652
     30 C                    -0.109459
     31 S                     0.007290
     32 C                    -0.152370
     33 C                     0.391694
     34 F                    -0.207331
     35 C                     0.444491
     36 O                    -0.460981
     37 O                    -0.300588
     38 C                    -0.058658
     39 H                     0.121221
     40 H                     0.095089
     41 H                     0.094967
     42 H                     0.217911
  ----------------------------------------
  Sum of atomic charges =     0.000000

                    Cartesian Multipole Moments
 -----------------------------------------------------------------
    Charge (ESU x 10^10)
                 0.0000
    Dipole Moment (Debye)
         X       0.0887      Y       0.8106      Z       3.2662
       Tot       3.3665
    Quadrupole Moments (Debye-Ang)
        XX    -178.8495     XY      -1.1005     YY    -158.9768
        XZ      -6.8829     YZ      -8.3149     ZZ    -204.7488

 Total job time:  319.07s(wall), 9948.20s(cpu)
        *  Thank you very much for using Q-Chem.  Have a nice day.  *
