 Q-Chem 5.4, Q-Chem, Inc., Pleasanton, CA (2021)
 Q-Chem 5.4.0 for Intel X86 EM64T Linux

User input:
--------------------------------------------------------------
$molecule
0 1
C	0.284919	-8.517702	0.147685
C	-0.728574	-7.641575	-0.212552
S	1.745304	-7.638634	0.661757
C	-0.374824	-6.264785	-0.083761
H	-1.715621	-7.966081	-0.565513
C	0.965104	-6.072714	0.405665
C	1.502136	-4.787049	0.574617
C	-1.214687	-5.162801	-0.413763
C	-0.675870	-3.874817	-0.248748
C	0.664513	-3.683952	0.243888
O	-2.464209	-5.499772	-0.838511
O	2.757750	-4.459055	1.000176
C	3.441858	-5.329063	1.893778
H	4.303826	-4.755694	2.284868
H	3.828743	-6.238095	1.383341
H	2.792824	-5.637262	2.741817
C	-3.241222	-4.572261	-1.586168
H	-4.108274	-5.139743	-1.974033
H	-2.668916	-4.153131	-2.441448
H	-3.620041	-3.739531	-0.954660
C	1.015668	-2.306654	0.369302
S	-1.453394	-2.306501	-0.517367
C	-0.000000	-1.435185	-0.000000
H	2.000559	-1.978138	0.724300
H	0.288311	-9.614033	0.145124
C	0.000000	0.000000	0.000000
S	0.382799	0.819795	1.507541
C	1.046687	2.245325	0.718873
C	0.382918	0.819389	-1.067872
C	0.968323	2.080267	-0.686410
S	0.282561	0.597432	-2.805516
C	1.017839	2.187324	-3.054530
C	1.314960	2.830306	-1.862551
F	1.875498	4.043751	-1.819088
C	1.208895	2.592573	-4.456084
O	0.890778	1.891482	-5.406510
O	1.772886	3.819715	-4.569225
C	1.986852	4.266207	-5.916207
H	2.445834	5.267032	-5.833064
H	1.028114	4.323448	-6.470168
H	2.661066	3.573494	-6.459293
H	1.436015	3.083584	1.306486
$end

$rem
JOBTYPE		SP
EXCHANGE	HF
CORRELATION	pRIMP2
BASIS		cc-pvtz
METHOD		rimp2
AUX_BASIS	rimp2-cc-pvtz
SOLVENT_METHOD	PCM
PURECART	11111
SYMMETRY	false
MEM_TOTAL	110000
SCF_CONVERGENCE = 6
THRESH=10
GUI = 2
$end

$solvent
dielectric 4.90
$end
--------------------------------------------------------------

             Standard Nuclear Orientation (Angstroms)
    I     Atom           X                Y                Z
 ----------------------------------------------------------------
    1      C       0.2849190000    -8.5177020000     0.1476850000
    2      C      -0.7285740000    -7.6415750000    -0.2125520000
    3      S       1.7453040000    -7.6386340000     0.6617570000
    4      C      -0.3748240000    -6.2647850000    -0.0837610000
    5      H      -1.7156210000    -7.9660810000    -0.5655130000
    6      C       0.9651040000    -6.0727140000     0.4056650000
    7      C       1.5021360000    -4.7870490000     0.5746170000
    8      C      -1.2146870000    -5.1628010000    -0.4137630000
    9      C      -0.6758700000    -3.8748170000    -0.2487480000
   10      C       0.6645130000    -3.6839520000     0.2438880000
   11      O      -2.4642090000    -5.4997720000    -0.8385110000
   12      O       2.7577500000    -4.4590550000     1.0001760000
   13      C       3.4418580000    -5.3290630000     1.8937780000
   14      H       4.3038260000    -4.7556940000     2.2848680000
   15      H       3.8287430000    -6.2380950000     1.3833410000
   16      H       2.7928240000    -5.6372620000     2.7418170000
   17      C      -3.2412220000    -4.5722610000    -1.5861680000
   18      H      -4.1082740000    -5.1397430000    -1.9740330000
   19      H      -2.6689160000    -4.1531310000    -2.4414480000
   20      H      -3.6200410000    -3.7395310000    -0.9546600000
   21      C       1.0156680000    -2.3066540000     0.3693020000
   22      S      -1.4533940000    -2.3065010000    -0.5173670000
   23      C       0.0000000000    -1.4351850000     0.0000000000
   24      H       2.0005590000    -1.9781380000     0.7243000000
   25      H       0.2883110000    -9.6140330000     0.1451240000
   26      C       0.0000000000     0.0000000000     0.0000000000
   27      S       0.3827990000     0.8197950000     1.5075410000
   28      C       1.0466870000     2.2453250000     0.7188730000
   29      C       0.3829180000     0.8193890000    -1.0678720000
   30      C       0.9683230000     2.0802670000    -0.6864100000
   31      S       0.2825610000     0.5974320000    -2.8055160000
   32      C       1.0178390000     2.1873240000    -3.0545300000
   33      C       1.3149600000     2.8303060000    -1.8625510000
   34      F       1.8754980000     4.0437510000    -1.8190880000
   35      C       1.2088950000     2.5925730000    -4.4560840000
   36      O       0.8907780000     1.8914820000    -5.4065100000
   37      O       1.7728860000     3.8197150000    -4.5692250000
   38      C       1.9868520000     4.2662070000    -5.9162070000
   39      H       2.4458340000     5.2670320000    -5.8330640000
   40      H       1.0281140000     4.3234480000    -6.4701680000
   41      H       2.6610660000     3.5734940000    -6.4592930000
   42      H       1.4360150000     3.0835840000     1.3064860000
 ----------------------------------------------------------------

   10   -2754.3037428182      7.32e-07  Convergence criterion met
 Total energy in the final basis set =    -2754.3037428182
        RIMP2         total energy =     -2759.3563166576 a.u.

                    Orbital Energies (a.u.)
 --------------------------------------------------------------

 Alpha MOs
 -- Occupied --
-92.0149 -91.9988 -91.9874 -91.9859 -26.3432 -20.6143 -20.5919 -20.5911
-20.5606 -11.4088 -11.3823 -11.3186 -11.3171 -11.3128 -11.3038 -11.2965
-11.2930 -11.2918 -11.2885 -11.2864 -11.2861 -11.2847 -11.2842 -11.2835
-11.2793 -11.2601 -11.2581 -11.2555 -11.2496  -9.0133  -8.9987  -8.9878
 -8.9858  -6.6940  -6.6934  -6.6929  -6.6797  -6.6790  -6.6779  -6.6687
 -6.6680  -6.6671  -6.6668  -6.6662  -6.6653  -1.6603  -1.4668  -1.4159
 -1.4139  -1.3694  -1.2217  -1.1936  -1.1648  -1.1357  -1.0841  -1.0512
 -1.0414  -1.0225  -1.0007  -0.9874  -0.9623  -0.9594  -0.9497  -0.9392
 -0.8948  -0.8674  -0.8495  -0.8115  -0.7921  -0.7885  -0.7860  -0.7644
 -0.7550  -0.7331  -0.7251  -0.7097  -0.6998  -0.6848  -0.6827  -0.6805
 -0.6735  -0.6588  -0.6571  -0.6523  -0.6298  -0.6197  -0.6164  -0.6048
 -0.5978  -0.5869  -0.5753  -0.5696  -0.5667  -0.5626  -0.5536  -0.5529
 -0.5306  -0.5273  -0.5224  -0.5159  -0.5144  -0.5093  -0.5040  -0.4937
 -0.4892  -0.4797  -0.4749  -0.4731  -0.4699  -0.4647  -0.4604  -0.4075
 -0.3966  -0.3862  -0.3594  -0.3460  -0.3160  -0.2980  -0.2571

          Ground-State Mulliken Net Atomic Charges

     Atom                 Charge (a.u.)
  ----------------------------------------
      1 C                    -0.189577
      2 C                    -0.254042
      3 S                    -0.023134
      4 C                    -0.016370
      5 H                     0.196231
      6 C                    -0.028674
      7 C                     0.239937
      8 C                     0.244508
      9 C                    -0.049326
     10 C                    -0.019425
     11 O                    -0.333628
     12 O                    -0.340394
     13 C                    -0.085684
     14 H                     0.122278
     15 H                     0.091122
     16 H                     0.093718
     17 C                    -0.086333
     18 H                     0.124500
     19 H                     0.095181
     20 H                     0.089583
     21 C                    -0.217652
     22 S                    -0.000807
     23 C                    -0.037306
     24 H                     0.199827
     25 H                     0.206189
     26 C                    -0.060337
     27 S                     0.107959
     28 C                    -0.179621
     29 C                     0.009061
     30 C                    -0.097134
     31 S                     0.014036
     32 C                    -0.152372
     33 C                     0.390250
     34 F                    -0.206332
     35 C                     0.446112
     36 O                    -0.461493
     37 O                    -0.301011
     38 C                    -0.058448
     39 H                     0.121205
     40 H                     0.095032
     41 H                     0.095054
     42 H                     0.217319
  ----------------------------------------
  Sum of atomic charges =     0.000000

                    Cartesian Multipole Moments
 -----------------------------------------------------------------
    Charge (ESU x 10^10)
                -0.0000
    Dipole Moment (Debye)
         X       1.0940      Y       1.1474      Z       3.1641
       Tot       3.5391
    Quadrupole Moments (Debye-Ang)
        XX    -181.8466     XY       6.4758     YY    -163.9074
        XZ       8.5296     YZ      -7.9489     ZZ    -198.7911

 Total job time:  303.84s(wall), 10183.94s(cpu)
        *  Thank you very much for using Q-Chem.  Have a nice day.  *
