 Q-Chem 5.4, Q-Chem, Inc., Pleasanton, CA (2021)
 Q-Chem 5.4.0 for Intel X86 EM64T Linux

User input:
--------------------------------------------------------------
$molecule
0 1
C	0.254945	-8.517702	0.194917
C	-0.680596	-7.641575	-0.335839
S	1.603876	-7.638634	0.954772
C	-0.354585	-6.264785	-0.147576
H	-1.591356	-7.966081	-0.854836
C	0.879999	-6.072714	0.567090
C	1.379534	-4.787049	0.826731
C	-1.124384	-5.162801	-0.618405
C	-0.622407	-3.874817	-0.362333
C	0.612067	-3.683952	0.355575
O	-2.281166	-5.499772	-1.253677
O	2.542174	-4.459055	1.463859
C	3.060718	-5.329063	2.462679
H	3.841678	-4.755694	2.997507
H	3.530361	-6.238095	2.027179
H	2.274283	-5.637262	3.185132
C	-2.916545	-4.572261	-2.124902
H	-3.703073	-5.139743	-2.657438
H	-2.204417	-4.153131	-2.867810
H	-3.399269	-3.739531	-1.568770
C	0.936109	-2.306654	0.540061
S	-1.341474	-2.306501	-0.761887
C	-0.000000	-1.435185	-0.000000
H	1.844392	-1.978138	1.060690
H	0.258730	-9.614033	0.192984
C	0.000000	0.000000	0.000000
S	0.783786	0.451972	1.507541
C	2.145261	1.238908	0.718873
C	0.783650	0.451572	-1.067872
C	1.986396	1.148648	-0.686410
S	0.574133	0.327317	-2.805516
C	2.088363	1.207943	-3.054530
C	2.700548	1.564221	-1.862551
F	3.855718	2.236706	-1.819088
C	2.477307	1.430318	-4.456084
O	1.814592	1.038482	-5.406510
O	3.643162	2.112042	-4.569225
C	4.074530	2.355061	-5.916207
H	5.024556	2.911627	-5.833064
H	3.322010	2.951860	-6.470168
H	4.229490	1.400910	-6.459293
H	2.944986	1.702260	1.306486
$end

$rem
JOBTYPE		SP
EXCHANGE	HF
CORRELATION	pRIMP2
BASIS		cc-pvtz
METHOD		rimp2
AUX_BASIS	rimp2-cc-pvtz
SOLVENT_METHOD	PCM
PURECART	11111
SYMMETRY	false
MEM_TOTAL	110000
SCF_CONVERGENCE = 6
THRESH=10
GUI = 2
$end

$solvent
dielectric 4.90
$end
--------------------------------------------------------------

             Standard Nuclear Orientation (Angstroms)
    I     Atom           X                Y                Z
 ----------------------------------------------------------------
    1      C       0.2549450000    -8.5177020000     0.1949170000
    2      C      -0.6805960000    -7.6415750000    -0.3358390000
    3      S       1.6038760000    -7.6386340000     0.9547720000
    4      C      -0.3545850000    -6.2647850000    -0.1475760000
    5      H      -1.5913560000    -7.9660810000    -0.8548360000
    6      C       0.8799990000    -6.0727140000     0.5670900000
    7      C       1.3795340000    -4.7870490000     0.8267310000
    8      C      -1.1243840000    -5.1628010000    -0.6184050000
    9      C      -0.6224070000    -3.8748170000    -0.3623330000
   10      C       0.6120670000    -3.6839520000     0.3555750000
   11      O      -2.2811660000    -5.4997720000    -1.2536770000
   12      O       2.5421740000    -4.4590550000     1.4638590000
   13      C       3.0607180000    -5.3290630000     2.4626790000
   14      H       3.8416780000    -4.7556940000     2.9975070000
   15      H       3.5303610000    -6.2380950000     2.0271790000
   16      H       2.2742830000    -5.6372620000     3.1851320000
   17      C      -2.9165450000    -4.5722610000    -2.1249020000
   18      H      -3.7030730000    -5.1397430000    -2.6574380000
   19      H      -2.2044170000    -4.1531310000    -2.8678100000
   20      H      -3.3992690000    -3.7395310000    -1.5687700000
   21      C       0.9361090000    -2.3066540000     0.5400610000
   22      S      -1.3414740000    -2.3065010000    -0.7618870000
   23      C       0.0000000000    -1.4351850000     0.0000000000
   24      H       1.8443920000    -1.9781380000     1.0606900000
   25      H       0.2587300000    -9.6140330000     0.1929840000
   26      C       0.0000000000     0.0000000000     0.0000000000
   27      S       0.7837860000     0.4519720000     1.5075410000
   28      C       2.1452610000     1.2389080000     0.7188730000
   29      C       0.7836500000     0.4515720000    -1.0678720000
   30      C       1.9863960000     1.1486480000    -0.6864100000
   31      S       0.5741330000     0.3273170000    -2.8055160000
   32      C       2.0883630000     1.2079430000    -3.0545300000
   33      C       2.7005480000     1.5642210000    -1.8625510000
   34      F       3.8557180000     2.2367060000    -1.8190880000
   35      C       2.4773070000     1.4303180000    -4.4560840000
   36      O       1.8145920000     1.0384820000    -5.4065100000
   37      O       3.6431620000     2.1120420000    -4.5692250000
   38      C       4.0745300000     2.3550610000    -5.9162070000
   39      H       5.0245560000     2.9116270000    -5.8330640000
   40      H       3.3220100000     2.9518600000    -6.4701680000
   41      H       4.2294900000     1.4009100000    -6.4592930000
   42      H       2.9449860000     1.7022600000     1.3064860000
 ----------------------------------------------------------------

   11   -2754.2509221266      4.72e-07  Convergence criterion met
 Total energy in the final basis set =    -2754.2509221266
        RIMP2         total energy =     -2759.3144426033 a.u.

                    Orbital Energies (a.u.)
 --------------------------------------------------------------

 Alpha MOs
 -- Occupied --
-92.0138 -92.0097 -91.9833 -91.9817 -26.3463 -20.6152 -20.5902 -20.5879
-20.5614 -11.4101 -11.3870 -11.3348 -11.3239 -11.3162 -11.3109 -11.2974
-11.2956 -11.2892 -11.2875 -11.2851 -11.2846 -11.2809 -11.2785 -11.2753
-11.2693 -11.2568 -11.2527 -11.2476 -11.2407  -9.0131  -9.0092  -8.9832
 -8.9825  -6.6937  -6.6928  -6.6926  -6.6901  -6.6894  -6.6884  -6.6642
 -6.6636  -6.6634  -6.6628  -6.6627  -6.6618  -1.6633  -1.4677  -1.4141
 -1.4108  -1.3704  -1.2340  -1.1900  -1.1648  -1.1396  -1.0846  -1.0477
 -1.0457  -1.0269  -0.9968  -0.9870  -0.9653  -0.9567  -0.9479  -0.9404
 -0.8918  -0.8716  -0.8424  -0.8169  -0.7943  -0.7855  -0.7833  -0.7629
 -0.7555  -0.7302  -0.7279  -0.7131  -0.6987  -0.6860  -0.6827  -0.6795
 -0.6745  -0.6600  -0.6565  -0.6503  -0.6292  -0.6175  -0.6145  -0.6082
 -0.6014  -0.5910  -0.5755  -0.5679  -0.5653  -0.5642  -0.5527  -0.5463
 -0.5315  -0.5220  -0.5198  -0.5138  -0.5128  -0.5108  -0.5024  -0.4917
 -0.4882  -0.4837  -0.4752  -0.4731  -0.4666  -0.4604  -0.4556  -0.4105
 -0.3897  -0.3860  -0.3649  -0.3397  -0.3189  -0.2997  -0.2506

          Ground-State Mulliken Net Atomic Charges

     Atom                 Charge (a.u.)
  ----------------------------------------
      1 C                    -0.197460
      2 C                    -0.253563
      3 S                    -0.028981
      4 C                    -0.021301
      5 H                     0.195302
      6 C                    -0.024955
      7 C                     0.228010
      8 C                     0.244089
      9 C                    -0.042996
     10 C                    -0.017081
     11 O                    -0.333662
     12 O                    -0.342852
     13 C                    -0.085721
     14 H                     0.120605
     15 H                     0.090706
     16 H                     0.092851
     17 C                    -0.086884
     18 H                     0.124301
     19 H                     0.094614
     20 H                     0.089624
     21 C                    -0.278767
     22 S                    -0.030416
     23 C                     0.011198
     24 H                     0.190581
     25 H                     0.204683
     26 C                    -0.163638
     27 S                     0.120351
     28 C                    -0.129961
     29 C                     0.094492
     30 C                    -0.113878
     31 S                     0.055529
     32 C                    -0.154013
     33 C                     0.393498
     34 F                    -0.203990
     35 C                     0.449157
     36 O                    -0.463163
     37 O                    -0.301525
     38 C                    -0.058183
     39 H                     0.121403
     40 H                     0.095133
     41 H                     0.095309
     42 H                     0.221555
  ----------------------------------------
  Sum of atomic charges =     0.000000

                    Cartesian Multipole Moments
 -----------------------------------------------------------------
    Charge (ESU x 10^10)
                 0.0000
    Dipole Moment (Debye)
         X       3.2824      Y       1.9044      Z       2.6366
       Tot       4.6209
    Quadrupole Moments (Debye-Ang)
        XX    -176.0906     XY       9.4606     YY    -181.3626
        XZ       6.0435     YZ      -4.2412     ZZ    -192.8731

 Total job time:  311.18s(wall), 10072.56s(cpu)
        *  Thank you very much for using Q-Chem.  Have a nice day.  *
