 Q-Chem 5.4, Q-Chem, Inc., Pleasanton, CA (2021)
 Q-Chem 5.4.0 for Intel X86 EM64T Linux

User input:
--------------------------------------------------------------
$molecule
0 1
C	0.147685	-8.517702	-0.284919
C	-0.212552	-7.641575	0.728574
S	0.661757	-7.638634	-1.745304
C	-0.083761	-6.264785	0.374824
H	-0.565513	-7.966081	1.715621
C	0.405665	-6.072714	-0.965104
C	0.574617	-4.787049	-1.502136
C	-0.413763	-5.162801	1.214687
C	-0.248748	-3.874817	0.675870
C	0.243888	-3.683952	-0.664513
O	-0.838511	-5.499772	2.464209
O	1.000176	-4.459055	-2.757750
C	1.893778	-5.329063	-3.441858
H	2.284868	-4.755694	-4.303826
H	1.383341	-6.238095	-3.828743
H	2.741817	-5.637262	-2.792824
C	-1.586168	-4.572261	3.241222
H	-1.974033	-5.139743	4.108274
H	-2.441448	-4.153131	2.668916
H	-0.954660	-3.739531	3.620041
C	0.369302	-2.306654	-1.015668
S	-0.517367	-2.306501	1.453394
C	-0.000000	-1.435185	-0.000000
H	0.724300	-1.978138	-2.000559
H	0.145124	-9.614033	-0.288311
C	0.000000	0.000000	0.000000
S	0.581934	0.692785	1.507541
C	1.592155	1.897915	0.718873
C	0.581944	0.692363	-1.067872
C	1.473741	1.758764	-0.686410
S	0.427560	0.503942	-2.805516
C	1.549278	1.849357	-3.054530
C	2.002690	2.393529	-1.862551
F	2.858191	3.420549	-1.819088
C	1.838710	2.191348	-4.456084
O	1.349977	1.596481	-5.406510
O	2.701091	3.230705	-4.569225
C	3.023327	3.606605	-5.916207
H	3.725703	4.454534	-5.833064
H	2.112072	3.910035	-6.470168
H	3.495281	2.762996	-6.459293
H	2.185174	2.606846	1.306486
$end

$rem
JOBTYPE		SP
EXCHANGE	HF
CORRELATION	pRIMP2
BASIS		cc-pvtz
METHOD		rimp2
AUX_BASIS	rimp2-cc-pvtz
SOLVENT_METHOD	PCM
PURECART	11111
SYMMETRY	false
MEM_TOTAL	110000
SCF_CONVERGENCE = 6
THRESH=10
GUI = 2
$end

$solvent
dielectric 4.90
$end
--------------------------------------------------------------

             Standard Nuclear Orientation (Angstroms)
    I     Atom           X                Y                Z
 ----------------------------------------------------------------
    1      C       0.1476850000    -8.5177020000    -0.2849190000
    2      C      -0.2125520000    -7.6415750000     0.7285740000
    3      S       0.6617570000    -7.6386340000    -1.7453040000
    4      C      -0.0837610000    -6.2647850000     0.3748240000
    5      H      -0.5655130000    -7.9660810000     1.7156210000
    6      C       0.4056650000    -6.0727140000    -0.9651040000
    7      C       0.5746170000    -4.7870490000    -1.5021360000
    8      C      -0.4137630000    -5.1628010000     1.2146870000
    9      C      -0.2487480000    -3.8748170000     0.6758700000
   10      C       0.2438880000    -3.6839520000    -0.6645130000
   11      O      -0.8385110000    -5.4997720000     2.4642090000
   12      O       1.0001760000    -4.4590550000    -2.7577500000
   13      C       1.8937780000    -5.3290630000    -3.4418580000
   14      H       2.2848680000    -4.7556940000    -4.3038260000
   15      H       1.3833410000    -6.2380950000    -3.8287430000
   16      H       2.7418170000    -5.6372620000    -2.7928240000
   17      C      -1.5861680000    -4.5722610000     3.2412220000
   18      H      -1.9740330000    -5.1397430000     4.1082740000
   19      H      -2.4414480000    -4.1531310000     2.6689160000
   20      H      -0.9546600000    -3.7395310000     3.6200410000
   21      C       0.3693020000    -2.3066540000    -1.0156680000
   22      S      -0.5173670000    -2.3065010000     1.4533940000
   23      C       0.0000000000    -1.4351850000     0.0000000000
   24      H       0.7243000000    -1.9781380000    -2.0005590000
   25      H       0.1451240000    -9.6140330000    -0.2883110000
   26      C       0.0000000000     0.0000000000     0.0000000000
   27      S       0.5819340000     0.6927850000     1.5075410000
   28      C       1.5921550000     1.8979150000     0.7188730000
   29      C       0.5819440000     0.6923630000    -1.0678720000
   30      C       1.4737410000     1.7587640000    -0.6864100000
   31      S       0.4275600000     0.5039420000    -2.8055160000
   32      C       1.5492780000     1.8493570000    -3.0545300000
   33      C       2.0026900000     2.3935290000    -1.8625510000
   34      F       2.8581910000     3.4205490000    -1.8190880000
   35      C       1.8387100000     2.1913480000    -4.4560840000
   36      O       1.3499770000     1.5964810000    -5.4065100000
   37      O       2.7010910000     3.2307050000    -4.5692250000
   38      C       3.0233270000     3.6066050000    -5.9162070000
   39      H       3.7257030000     4.4545340000    -5.8330640000
   40      H       2.1120720000     3.9100350000    -6.4701680000
   41      H       3.4952810000     2.7629960000    -6.4592930000
   42      H       2.1851740000     2.6068460000     1.3064860000
 ----------------------------------------------------------------

   10   -2754.2863791561      7.70e-07  Convergence criterion met
 Total energy in the final basis set =    -2754.2863791561
        RIMP2         total energy =     -2759.3457661147 a.u.

                    Orbital Energies (a.u.)
 --------------------------------------------------------------

 Alpha MOs
 -- Occupied --
-92.0159 -92.0046 -91.9863 -91.9845 -26.3451 -20.6155 -20.5917 -20.5885
-20.5620 -11.4104 -11.3850 -11.3228 -11.3181 -11.3132 -11.3099 -11.2987
-11.2968 -11.2893 -11.2890 -11.2881 -11.2868 -11.2843 -11.2826 -11.2823
-11.2767 -11.2592 -11.2550 -11.2485 -11.2451  -9.0150  -9.0045  -8.9872
 -8.9844  -6.6957  -6.6950  -6.6945  -6.6854  -6.6847  -6.6836  -6.6683
 -6.6676  -6.6666  -6.6654  -6.6648  -6.6639  -1.6621  -1.4680  -1.4156
 -1.4113  -1.3707  -1.2277  -1.1921  -1.1649  -1.1388  -1.0851  -1.0498
 -1.0442  -1.0259  -0.9989  -0.9877  -0.9648  -0.9588  -0.9493  -0.9397
 -0.8945  -0.8703  -0.8481  -0.8101  -0.7984  -0.7878  -0.7842  -0.7627
 -0.7559  -0.7322  -0.7269  -0.7121  -0.7007  -0.6863  -0.6821  -0.6815
 -0.6746  -0.6594  -0.6580  -0.6509  -0.6297  -0.6182  -0.6160  -0.6047
 -0.6005  -0.5813  -0.5784  -0.5706  -0.5647  -0.5607  -0.5574  -0.5461
 -0.5335  -0.5304  -0.5228  -0.5168  -0.5148  -0.5092  -0.5056  -0.4956
 -0.4868  -0.4822  -0.4768  -0.4744  -0.4692  -0.4634  -0.4581  -0.4239
 -0.3936  -0.3828  -0.3607  -0.3488  -0.3272  -0.2895  -0.2482

          Ground-State Mulliken Net Atomic Charges

     Atom                 Charge (a.u.)
  ----------------------------------------
      1 C                    -0.194921
      2 C                    -0.253885
      3 S                    -0.025188
      4 C                    -0.021173
      5 H                     0.195460
      6 C                    -0.025716
      7 C                     0.236660
      8 C                     0.246264
      9 C                    -0.044023
     10 C                    -0.019568
     11 O                    -0.333432
     12 O                    -0.341187
     13 C                    -0.086124
     14 H                     0.122606
     15 H                     0.090838
     16 H                     0.092830
     17 C                    -0.087684
     18 H                     0.125572
     19 H                     0.094926
     20 H                     0.089002
     21 C                    -0.247300
     22 S                    -0.044400
     23 C                    -0.001535
     24 H                     0.192954
     25 H                     0.205312
     26 C                    -0.048120
     27 S                     0.113713
     28 C                    -0.170275
     29 C                    -0.007449
     30 C                    -0.094483
     31 S                     0.044304
     32 C                    -0.160567
     33 C                     0.402380
     34 F                    -0.205373
     35 C                     0.446770
     36 O                    -0.460957
     37 O                    -0.300990
     38 C                    -0.058284
     39 H                     0.121548
     40 H                     0.095381
     41 H                     0.095173
     42 H                     0.220942
  ----------------------------------------
  Sum of atomic charges =     0.000000

                    Cartesian Multipole Moments
 -----------------------------------------------------------------
    Charge (ESU x 10^10)
                -0.0000
    Dipole Moment (Debye)
         X       2.4544      Y       1.9995      Z       3.0690
       Tot       4.4092
    Quadrupole Moments (Debye-Ang)
        XX    -187.4250     XY       7.4393     YY    -171.6908
        XZ     -16.0708     YZ      -6.5905     ZZ    -188.1270

 Total job time:  303.66s(wall), 9301.62s(cpu)
        *  Thank you very much for using Q-Chem.  Have a nice day.  *
