 Q-Chem 5.4, Q-Chem, Inc., Pleasanton, CA (2021)
 Q-Chem 5.4.0 for Intel X86 EM64T Linux

User input:
--------------------------------------------------------------
$molecule
0 1
C	-0.070009	-8.517702	-0.313191
C	0.305494	-7.641575	0.694746
S	-0.614924	-7.638634	-1.762350
C	0.176768	-6.264785	0.340973
H	0.669571	-7.966081	1.677747
C	-0.309600	-6.072714	-1.000069
C	-0.525372	-4.787049	-1.520060
C	0.463825	-5.162801	1.196466
C	0.243888	-3.874817	0.677639
C	-0.240312	-3.683952	-0.665815
O	0.941626	-5.499772	2.426678
O	-1.006468	-4.459055	-2.755460
C	-0.761666	-5.329063	-3.853913
H	-1.016135	-4.755694	-4.765607
H	-1.401368	-6.238095	-3.822182
H	0.305161	-5.637262	-3.901833
C	0.868342	-4.572261	3.502489
H	1.128551	-5.139743	4.416005
H	-0.154712	-4.153131	3.613841
H	1.595605	-3.739531	3.386756
C	-0.369957	-2.306654	-1.015430
S	0.537898	-2.306501	1.445922
C	-0.000000	-1.435185	-0.000000
H	-0.731088	-1.978138	-1.998088
H	-0.074151	-9.614033	-0.314143
C	0.000000	0.000000	0.000000
S	0.581934	0.692785	1.507541
C	1.592155	1.897915	0.718873
C	0.581944	0.692363	-1.067872
C	1.473741	1.758764	-0.686410
S	0.427560	0.503942	-2.805516
C	1.549278	1.849357	-3.054530
C	2.002690	2.393529	-1.862551
F	2.858191	3.420549	-1.819088
C	1.838710	2.191348	-4.456084
O	1.349977	1.596481	-5.406510
O	2.701091	3.230705	-4.569225
C	3.023327	3.606605	-5.916207
H	3.725703	4.454534	-5.833064
H	2.112072	3.910035	-6.470168
H	3.495281	2.762996	-6.459293
H	2.185174	2.606846	1.306486
$end

$rem
JOBTYPE		SP
EXCHANGE	HF
CORRELATION	pRIMP2
BASIS		cc-pvtz
METHOD		rimp2
AUX_BASIS	rimp2-cc-pvtz
SOLVENT_METHOD	PCM
PURECART	11111
SYMMETRY	false
MEM_TOTAL	110000
SCF_CONVERGENCE = 6
THRESH=10
GUI = 2
$end

$solvent
dielectric 4.90
$end
--------------------------------------------------------------

             Standard Nuclear Orientation (Angstroms)
    I     Atom           X                Y                Z
 ----------------------------------------------------------------
    1      C      -0.0700090000    -8.5177020000    -0.3131910000
    2      C       0.3054940000    -7.6415750000     0.6947460000
    3      S      -0.6149240000    -7.6386340000    -1.7623500000
    4      C       0.1767680000    -6.2647850000     0.3409730000
    5      H       0.6695710000    -7.9660810000     1.6777470000
    6      C      -0.3096000000    -6.0727140000    -1.0000690000
    7      C      -0.5253720000    -4.7870490000    -1.5200600000
    8      C       0.4638250000    -5.1628010000     1.1964660000
    9      C       0.2438880000    -3.8748170000     0.6776390000
   10      C      -0.2403120000    -3.6839520000    -0.6658150000
   11      O       0.9416260000    -5.4997720000     2.4266780000
   12      O      -1.0064680000    -4.4590550000    -2.7554600000
   13      C      -0.7616660000    -5.3290630000    -3.8539130000
   14      H      -1.0161350000    -4.7556940000    -4.7656070000
   15      H      -1.4013680000    -6.2380950000    -3.8221820000
   16      H       0.3051610000    -5.6372620000    -3.9018330000
   17      C       0.8683420000    -4.5722610000     3.5024890000
   18      H       1.1285510000    -5.1397430000     4.4160050000
   19      H      -0.1547120000    -4.1531310000     3.6138410000
   20      H       1.5956050000    -3.7395310000     3.3867560000
   21      C      -0.3699570000    -2.3066540000    -1.0154300000
   22      S       0.5378980000    -2.3065010000     1.4459220000
   23      C       0.0000000000    -1.4351850000     0.0000000000
   24      H      -0.7310880000    -1.9781380000    -1.9980880000
   25      H      -0.0741510000    -9.6140330000    -0.3141430000
   26      C       0.0000000000     0.0000000000     0.0000000000
   27      S       0.5819340000     0.6927850000     1.5075410000
   28      C       1.5921550000     1.8979150000     0.7188730000
   29      C       0.5819440000     0.6923630000    -1.0678720000
   30      C       1.4737410000     1.7587640000    -0.6864100000
   31      S       0.4275600000     0.5039420000    -2.8055160000
   32      C       1.5492780000     1.8493570000    -3.0545300000
   33      C       2.0026900000     2.3935290000    -1.8625510000
   34      F       2.8581910000     3.4205490000    -1.8190880000
   35      C       1.8387100000     2.1913480000    -4.4560840000
   36      O       1.3499770000     1.5964810000    -5.4065100000
   37      O       2.7010910000     3.2307050000    -4.5692250000
   38      C       3.0233270000     3.6066050000    -5.9162070000
   39      H       3.7257030000     4.4545340000    -5.8330640000
   40      H       2.1120720000     3.9100350000    -6.4701680000
   41      H       3.4952810000     2.7629960000    -6.4592930000
   42      H       2.1851740000     2.6068460000     1.3064860000
 ----------------------------------------------------------------

   10   -2754.2858737620      7.27e-07  Convergence criterion met
 Total energy in the final basis set =    -2754.2858737620
        RIMP2         total energy =     -2759.3454017377 a.u.

                    Orbital Energies (a.u.)
 --------------------------------------------------------------

 Alpha MOs
 -- Occupied --
-92.0158 -92.0056 -91.9890 -91.9839 -26.3455 -20.6156 -20.5918 -20.5877
-20.5622 -11.4106 -11.3858 -11.3235 -11.3181 -11.3118 -11.3117 -11.2989
-11.2971 -11.2901 -11.2893 -11.2886 -11.2871 -11.2838 -11.2819 -11.2807
-11.2760 -11.2592 -11.2540 -11.2482 -11.2433  -9.0151  -9.0054  -8.9896
 -8.9839  -6.6958  -6.6951  -6.6946  -6.6863  -6.6855  -6.6845  -6.6706
 -6.6698  -6.6689  -6.6649  -6.6642  -6.6634  -1.6625  -1.4681  -1.4157
 -1.4106  -1.3709  -1.2285  -1.1918  -1.1650  -1.1391  -1.0848  -1.0493
 -1.0444  -1.0264  -0.9990  -0.9876  -0.9654  -0.9588  -0.9491  -0.9392
 -0.8946  -0.8707  -0.8484  -0.8109  -0.7981  -0.7872  -0.7839  -0.7625
 -0.7561  -0.7316  -0.7273  -0.7125  -0.7003  -0.6864  -0.6825  -0.6808
 -0.6747  -0.6594  -0.6579  -0.6505  -0.6293  -0.6179  -0.6156  -0.6029
 -0.6013  -0.5876  -0.5785  -0.5706  -0.5641  -0.5614  -0.5554  -0.5434
 -0.5344  -0.5308  -0.5219  -0.5171  -0.5160  -0.5113  -0.5039  -0.4944
 -0.4874  -0.4825  -0.4759  -0.4749  -0.4689  -0.4619  -0.4593  -0.4255
 -0.3948  -0.3816  -0.3608  -0.3470  -0.3270  -0.2912  -0.2475

          Ground-State Mulliken Net Atomic Charges

     Atom                 Charge (a.u.)
  ----------------------------------------
      1 C                    -0.196555
      2 C                    -0.253558
      3 S                    -0.025818
      4 C                    -0.022784
      5 H                     0.195242
      6 C                    -0.024688
      7 C                     0.232668
      8 C                     0.242992
      9 C                    -0.051002
     10 C                    -0.011243
     11 O                    -0.333021
     12 O                    -0.341907
     13 C                    -0.085892
     14 H                     0.122433
     15 H                     0.090556
     16 H                     0.092833
     17 C                    -0.088379
     18 H                     0.125618
     19 H                     0.094529
     20 H                     0.089125
     21 C                    -0.270787
     22 S                    -0.030658
     23 C                    -0.003036
     24 H                     0.189841
     25 H                     0.205013
     26 C                    -0.040396
     27 S                     0.088535
     28 C                    -0.151731
     29 C                     0.044761
     30 C                    -0.114420
     31 S                     0.032451
     32 C                    -0.159001
     33 C                     0.401571
     34 F                    -0.204458
     35 C                     0.447877
     36 O                    -0.461054
     37 O                    -0.301172
     38 C                    -0.058310
     39 H                     0.121569
     40 H                     0.095306
     41 H                     0.095326
     42 H                     0.221622
  ----------------------------------------
  Sum of atomic charges =     0.000000

                    Cartesian Multipole Moments
 -----------------------------------------------------------------
    Charge (ESU x 10^10)
                 0.0000
    Dipole Moment (Debye)
         X       2.7459      Y       2.2973      Z       3.0207
       Tot       4.6842
    Quadrupole Moments (Debye-Ang)
        XX    -194.6454     XY       7.0253     YY    -173.2058
        XZ      -2.0727     YZ      -6.2369     ZZ    -180.6843

 Total job time:  295.52s(wall), 9372.14s(cpu)
        *  Thank you very much for using Q-Chem.  Have a nice day.  *
