 Q-Chem 5.4, Q-Chem, Inc., Pleasanton, CA (2021)
 Q-Chem 5.4.0 for Intel X86 EM64T Linux

User input:
--------------------------------------------------------------
$molecule
0 1
C	0.284919	-8.517702	0.147685
C	-0.728574	-7.641575	-0.212552
S	1.745304	-7.638634	0.661757
C	-0.374824	-6.264785	-0.083761
H	-1.715621	-7.966081	-0.565513
C	0.965104	-6.072714	0.405665
C	1.502136	-4.787049	0.574617
C	-1.214687	-5.162801	-0.413763
C	-0.675870	-3.874817	-0.248748
C	0.664513	-3.683952	0.243888
O	-2.464209	-5.499772	-0.838511
O	2.757750	-4.459055	1.000176
C	3.441858	-5.329063	1.893778
H	4.303826	-4.755694	2.284868
H	3.828743	-6.238095	1.383341
H	2.792824	-5.637262	2.741817
C	-3.241222	-4.572261	-1.586168
H	-4.108274	-5.139743	-1.974033
H	-2.668916	-4.153131	-2.441448
H	-3.620041	-3.739531	-0.954660
C	1.015668	-2.306654	0.369302
S	-1.453394	-2.306501	-0.517367
C	-0.000000	-1.435185	-0.000000
H	2.000559	-1.978138	0.724300
H	0.288311	-9.614033	0.145124
C	0.000000	0.000000	0.000000
S	0.157577	0.890937	1.507541
C	0.429889	2.439720	0.718873
C	0.157797	0.890576	-1.067872
C	0.396915	2.260004	-0.686410
S	0.118307	0.650207	-2.805516
C	0.417036	2.376229	-3.054530
C	0.537616	3.074202	-1.862551
F	0.764992	4.391378	-1.819088
C	0.496696	2.817118	-4.456084
O	0.370874	2.057582	-5.406510
O	0.723861	4.148418	-4.569225
C	0.814976	4.635075	-5.916207
H	0.999286	5.720591	-5.833064
H	-0.125909	4.442226	-6.470168
H	1.645504	4.140465	-6.459293
H	0.588993	3.350182	1.306486
$end

$rem
JOBTYPE		SP
EXCHANGE	HF
CORRELATION	pRIMP2
BASIS		cc-pvtz
METHOD		rimp2
AUX_BASIS	rimp2-cc-pvtz
SOLVENT_METHOD	PCM
PURECART	11111
SYMMETRY	false
MEM_TOTAL	110000
SCF_CONVERGENCE = 6
THRESH=10
GUI = 2
$end

$solvent
dielectric 4.90
$end
--------------------------------------------------------------

             Standard Nuclear Orientation (Angstroms)
    I     Atom           X                Y                Z
 ----------------------------------------------------------------
    1      C       0.2849190000    -8.5177020000     0.1476850000
    2      C      -0.7285740000    -7.6415750000    -0.2125520000
    3      S       1.7453040000    -7.6386340000     0.6617570000
    4      C      -0.3748240000    -6.2647850000    -0.0837610000
    5      H      -1.7156210000    -7.9660810000    -0.5655130000
    6      C       0.9651040000    -6.0727140000     0.4056650000
    7      C       1.5021360000    -4.7870490000     0.5746170000
    8      C      -1.2146870000    -5.1628010000    -0.4137630000
    9      C      -0.6758700000    -3.8748170000    -0.2487480000
   10      C       0.6645130000    -3.6839520000     0.2438880000
   11      O      -2.4642090000    -5.4997720000    -0.8385110000
   12      O       2.7577500000    -4.4590550000     1.0001760000
   13      C       3.4418580000    -5.3290630000     1.8937780000
   14      H       4.3038260000    -4.7556940000     2.2848680000
   15      H       3.8287430000    -6.2380950000     1.3833410000
   16      H       2.7928240000    -5.6372620000     2.7418170000
   17      C      -3.2412220000    -4.5722610000    -1.5861680000
   18      H      -4.1082740000    -5.1397430000    -1.9740330000
   19      H      -2.6689160000    -4.1531310000    -2.4414480000
   20      H      -3.6200410000    -3.7395310000    -0.9546600000
   21      C       1.0156680000    -2.3066540000     0.3693020000
   22      S      -1.4533940000    -2.3065010000    -0.5173670000
   23      C       0.0000000000    -1.4351850000     0.0000000000
   24      H       2.0005590000    -1.9781380000     0.7243000000
   25      H       0.2883110000    -9.6140330000     0.1451240000
   26      C       0.0000000000     0.0000000000     0.0000000000
   27      S       0.1575770000     0.8909370000     1.5075410000
   28      C       0.4298890000     2.4397200000     0.7188730000
   29      C       0.1577970000     0.8905760000    -1.0678720000
   30      C       0.3969150000     2.2600040000    -0.6864100000
   31      S       0.1183070000     0.6502070000    -2.8055160000
   32      C       0.4170360000     2.3762290000    -3.0545300000
   33      C       0.5376160000     3.0742020000    -1.8625510000
   34      F       0.7649920000     4.3913780000    -1.8190880000
   35      C       0.4966960000     2.8171180000    -4.4560840000
   36      O       0.3708740000     2.0575820000    -5.4065100000
   37      O       0.7238610000     4.1484180000    -4.5692250000
   38      C       0.8149760000     4.6350750000    -5.9162070000
   39      H       0.9992860000     5.7205910000    -5.8330640000
   40      H      -0.1259090000     4.4422260000    -6.4701680000
   41      H       1.6455040000     4.1404650000    -6.4592930000
   42      H       0.5889930000     3.3501820000     1.3064860000
 ----------------------------------------------------------------

   10   -2754.3129513748      6.93e-07  Convergence criterion met
 Total energy in the final basis set =    -2754.3129513748
        RIMP2         total energy =     -2759.3630762558 a.u.

                    Orbital Energies (a.u.)
 --------------------------------------------------------------

 Alpha MOs
 -- Occupied --
-92.0151 -91.9969 -91.9889 -91.9865 -26.3426 -20.6142 -20.5923 -20.5918
-20.5605 -11.4086 -11.3815 -11.3192 -11.3184 -11.3088 -11.3004 -11.2966
-11.2964 -11.2927 -11.2884 -11.2867 -11.2864 -11.2861 -11.2841 -11.2836
-11.2801 -11.2608 -11.2593 -11.2581 -11.2501  -9.0134  -8.9969  -8.9893
 -8.9864  -6.6941  -6.6935  -6.6930  -6.6780  -6.6772  -6.6761  -6.6702
 -6.6695  -6.6686  -6.6674  -6.6668  -6.6659  -1.6597  -1.4666  -1.4164
 -1.4145  -1.3693  -1.2201  -1.1944  -1.1653  -1.1350  -1.0845  -1.0520
 -1.0406  -1.0219  -1.0016  -0.9878  -0.9622  -0.9597  -0.9502  -0.9389
 -0.8956  -0.8667  -0.8512  -0.8109  -0.7919  -0.7889  -0.7865  -0.7650
 -0.7549  -0.7339  -0.7246  -0.7092  -0.7000  -0.6846  -0.6833  -0.6802
 -0.6733  -0.6592  -0.6570  -0.6527  -0.6305  -0.6202  -0.6170  -0.6045
 -0.5970  -0.5856  -0.5766  -0.5699  -0.5671  -0.5619  -0.5548  -0.5522
 -0.5307  -0.5297  -0.5232  -0.5166  -0.5150  -0.5090  -0.5042  -0.4942
 -0.4895  -0.4786  -0.4758  -0.4728  -0.4704  -0.4657  -0.4610  -0.4075
 -0.3977  -0.3867  -0.3583  -0.3474  -0.3172  -0.2962  -0.2582

          Ground-State Mulliken Net Atomic Charges

     Atom                 Charge (a.u.)
  ----------------------------------------
      1 C                    -0.187971
      2 C                    -0.254047
      3 S                    -0.021986
      4 C                    -0.014754
      5 H                     0.196448
      6 C                    -0.028028
      7 C                     0.241938
      8 C                     0.242015
      9 C                    -0.049417
     10 C                    -0.028236
     11 O                    -0.333499
     12 O                    -0.339995
     13 C                    -0.085820
     14 H                     0.122608
     15 H                     0.091259
     16 H                     0.093924
     17 C                    -0.086675
     18 H                     0.124602
     19 H                     0.095492
     20 H                     0.089755
     21 C                    -0.215568
     22 S                     0.002919
     23 C                    -0.040024
     24 H                     0.199058
     25 H                     0.206490
     26 C                    -0.039929
     27 S                     0.108396
     28 C                    -0.187379
     29 C                     0.013317
     30 C                    -0.108067
     31 S                     0.007833
     32 C                    -0.152875
     33 C                     0.392283
     34 F                    -0.206977
     35 C                     0.445132
     36 O                    -0.461275
     37 O                    -0.300682
     38 C                    -0.058601
     39 H                     0.121182
     40 H                     0.094985
     41 H                     0.095021
     42 H                     0.217149
  ----------------------------------------
  Sum of atomic charges =     0.000000

                    Cartesian Multipole Moments
 -----------------------------------------------------------------
    Charge (ESU x 10^10)
                -0.0000
    Dipole Moment (Debye)
         X       0.3280      Y       0.8775      Z       3.2489
       Tot       3.3813
    Quadrupole Moments (Debye-Ang)
        XX    -184.0712     XY       2.8228     YY    -159.9708
        XZ      10.4435     YZ      -8.6389     ZZ    -199.0744

 Total job time:  296.71s(wall), 9126.37s(cpu)
        *  Thank you very much for using Q-Chem.  Have a nice day.  *
