 Q-Chem 5.4, Q-Chem, Inc., Pleasanton, CA (2021)
 Q-Chem 5.4.0 for Intel X86 EM64T Linux

User input:
--------------------------------------------------------------
$molecule
0 1
C	0.270358	-8.517702	-0.172904
C	-0.548363	-7.641575	0.524688
S	1.445750	-7.638634	-1.180599
C	-0.259951	-6.264785	0.282727
H	-1.347559	-7.966081	1.203014
C	0.833868	-6.072714	-0.632972
C	1.248701	-4.787049	-1.013580
C	-0.965673	-5.162801	0.845068
C	-0.553357	-3.874817	0.460946
C	0.543470	-3.683952	-0.453541
O	-1.958276	-5.499772	1.714812
O	2.245053	-4.459055	-1.888193
C	3.360989	-5.329063	-2.033848
H	4.130667	-4.755694	-2.584788
H	3.112380	-6.238095	-2.624118
H	3.770895	-5.637262	-1.047748
C	-2.994272	-4.572261	2.013896
H	-3.763700	-5.139743	2.570853
H	-3.448815	-4.153131	1.090625
H	-2.636780	-3.739531	2.657717
C	0.827659	-2.306654	-0.694943
S	-1.174750	-2.306501	0.999993
C	0.000000	-1.435185	0.000000
H	1.627541	-1.978138	-1.370385
H	0.269836	-9.614033	-0.177122
C	0.000000	0.000000	0.000000
S	0.000474	0.904764	1.507541
C	-0.000295	2.477305	0.718873
C	0.000752	0.904447	-1.067872
C	-0.001560	2.294593	-0.686410
S	0.003602	0.660872	-2.805516
C	-0.001928	2.412546	-3.054530
C	-0.004381	3.120854	-1.862551
F	-0.009185	4.457503	-1.819088
C	-0.000038	2.860570	-4.456084
O	0.007944	2.090724	-5.406510
O	-0.007501	4.211092	-4.569225
C	-0.002278	4.706177	-5.916207
H	-0.009265	5.807207	-5.833064
H	-0.895381	4.352875	-6.470168
H	0.901521	4.363301	-6.459293
H	-0.001708	3.401562	1.306486
$end

$rem
JOBTYPE		SP
EXCHANGE	HF
CORRELATION	pRIMP2
BASIS		cc-pvtz
METHOD		rimp2
AUX_BASIS	rimp2-cc-pvtz
SOLVENT_METHOD	PCM
PURECART	11111
SYMMETRY	false
MEM_TOTAL	110000
SCF_CONVERGENCE = 6
THRESH=10
GUI = 2
$end

$solvent
dielectric 4.90
$end
--------------------------------------------------------------

             Standard Nuclear Orientation (Angstroms)
    I     Atom           X                Y                Z
 ----------------------------------------------------------------
    1      C       0.2703580000    -8.5177020000    -0.1729040000
    2      C      -0.5483630000    -7.6415750000     0.5246880000
    3      S       1.4457500000    -7.6386340000    -1.1805990000
    4      C      -0.2599510000    -6.2647850000     0.2827270000
    5      H      -1.3475590000    -7.9660810000     1.2030140000
    6      C       0.8338680000    -6.0727140000    -0.6329720000
    7      C       1.2487010000    -4.7870490000    -1.0135800000
    8      C      -0.9656730000    -5.1628010000     0.8450680000
    9      C      -0.5533570000    -3.8748170000     0.4609460000
   10      C       0.5434700000    -3.6839520000    -0.4535410000
   11      O      -1.9582760000    -5.4997720000     1.7148120000
   12      O       2.2450530000    -4.4590550000    -1.8881930000
   13      C       3.3609890000    -5.3290630000    -2.0338480000
   14      H       4.1306670000    -4.7556940000    -2.5847880000
   15      H       3.1123800000    -6.2380950000    -2.6241180000
   16      H       3.7708950000    -5.6372620000    -1.0477480000
   17      C      -2.9942720000    -4.5722610000     2.0138960000
   18      H      -3.7637000000    -5.1397430000     2.5708530000
   19      H      -3.4488150000    -4.1531310000     1.0906250000
   20      H      -2.6367800000    -3.7395310000     2.6577170000
   21      C       0.8276590000    -2.3066540000    -0.6949430000
   22      S      -1.1747500000    -2.3065010000     0.9999930000
   23      C       0.0000000000    -1.4351850000     0.0000000000
   24      H       1.6275410000    -1.9781380000    -1.3703850000
   25      H       0.2698360000    -9.6140330000    -0.1771220000
   26      C       0.0000000000     0.0000000000     0.0000000000
   27      S       0.0004740000     0.9047640000     1.5075410000
   28      C      -0.0002950000     2.4773050000     0.7188730000
   29      C       0.0007520000     0.9044470000    -1.0678720000
   30      C      -0.0015600000     2.2945930000    -0.6864100000
   31      S       0.0036020000     0.6608720000    -2.8055160000
   32      C      -0.0019280000     2.4125460000    -3.0545300000
   33      C      -0.0043810000     3.1208540000    -1.8625510000
   34      F      -0.0091850000     4.4575030000    -1.8190880000
   35      C      -0.0000380000     2.8605700000    -4.4560840000
   36      O       0.0079440000     2.0907240000    -5.4065100000
   37      O      -0.0075010000     4.2110920000    -4.5692250000
   38      C      -0.0022780000     4.7061770000    -5.9162070000
   39      H      -0.0092650000     5.8072070000    -5.8330640000
   40      H      -0.8953810000     4.3528750000    -6.4701680000
   41      H       0.9015210000     4.3633010000    -6.4592930000
   42      H      -0.0017080000     3.4015620000     1.3064860000
 ----------------------------------------------------------------

   10   -2754.3163083955      7.07e-07  Convergence criterion met
 Total energy in the final basis set =    -2754.3163083955
        RIMP2         total energy =     -2759.3665030822 a.u.

                    Orbital Energies (a.u.)
 --------------------------------------------------------------

 Alpha MOs
 -- Occupied --
-92.0151 -91.9968 -91.9907 -91.9865 -26.3426 -20.6144 -20.5928 -20.5914
-20.5607 -11.4088 -11.3814 -11.3198 -11.3182 -11.3086 -11.3002 -11.2990
-11.2968 -11.2946 -11.2885 -11.2875 -11.2867 -11.2859 -11.2843 -11.2843
-11.2800 -11.2614 -11.2593 -11.2574 -11.2501  -9.0136  -8.9968  -8.9911
 -8.9865  -6.6943  -6.6938  -6.6932  -6.6778  -6.6771  -6.6760  -6.6721
 -6.6714  -6.6704  -6.6674  -6.6668  -6.6659  -1.6597  -1.4668  -1.4169
 -1.4142  -1.3695  -1.2205  -1.1949  -1.1659  -1.1355  -1.0850  -1.0523
 -1.0409  -1.0223  -1.0020  -0.9881  -0.9627  -0.9601  -0.9505  -0.9388
 -0.8963  -0.8670  -0.8520  -0.8077  -0.7973  -0.7873  -0.7871  -0.7647
 -0.7549  -0.7342  -0.7246  -0.7091  -0.7018  -0.6847  -0.6834  -0.6801
 -0.6734  -0.6595  -0.6574  -0.6527  -0.6306  -0.6201  -0.6174  -0.6039
 -0.5972  -0.5846  -0.5782  -0.5703  -0.5660  -0.5619  -0.5536  -0.5491
 -0.5345  -0.5304  -0.5246  -0.5164  -0.5159  -0.5076  -0.5060  -0.4959
 -0.4888  -0.4800  -0.4754  -0.4732  -0.4685  -0.4679  -0.4608  -0.4162
 -0.3961  -0.3861  -0.3582  -0.3499  -0.3219  -0.2921  -0.2553

          Ground-State Mulliken Net Atomic Charges

     Atom                 Charge (a.u.)
  ----------------------------------------
      1 C                    -0.188166
      2 C                    -0.254018
      3 S                    -0.021207
      4 C                    -0.014533
      5 H                     0.196380
      6 C                    -0.027454
      7 C                     0.243651
      8 C                     0.238658
      9 C                    -0.045201
     10 C                    -0.027820
     11 O                    -0.333136
     12 O                    -0.339328
     13 C                    -0.085956
     14 H                     0.123013
     15 H                     0.091335
     16 H                     0.093721
     17 C                    -0.087128
     18 H                     0.125213
     19 H                     0.095298
     20 H                     0.089460
     21 C                    -0.232163
     22 S                    -0.012662
     23 C                    -0.030398
     24 H                     0.201820
     25 H                     0.206481
     26 C                    -0.013153
     27 S                     0.098296
     28 C                    -0.188280
     29 C                     0.013095
     30 C                    -0.110670
     31 S                     0.007801
     32 C                    -0.152089
     33 C                     0.392541
     34 F                    -0.207306
     35 C                     0.444323
     36 O                    -0.460831
     37 O                    -0.300563
     38 C                    -0.058658
     39 H                     0.121266
     40 H                     0.095133
     41 H                     0.094982
     42 H                     0.218252
  ----------------------------------------
  Sum of atomic charges =     0.000000

                    Cartesian Multipole Moments
 -----------------------------------------------------------------
    Charge (ESU x 10^10)
                 0.0000
    Dipole Moment (Debye)
         X       0.1106      Y       0.8518      Z       3.2408
       Tot       3.3526
    Quadrupole Moments (Debye-Ang)
        XX    -181.8919     XY      -1.1923     YY    -159.0389
        XZ     -10.1115     YZ      -8.1877     ZZ    -201.6288

 Total job time:  332.22s(wall), 11200.33s(cpu)
        *  Thank you very much for using Q-Chem.  Have a nice day.  *
