 Q-Chem 5.4, Q-Chem, Inc., Pleasanton, CA (2021)
 Q-Chem 5.4.0 for Intel X86 EM64T Linux

User input:
--------------------------------------------------------------
$molecule
0 1
C	0.194917	-8.517702	-0.254945
C	-0.335839	-7.641575	0.680596
S	0.954772	-7.638634	-1.603876
C	-0.147576	-6.264785	0.354585
H	-0.854836	-7.966081	1.591356
C	0.567090	-6.072714	-0.879999
C	0.826731	-4.787049	-1.379534
C	-0.618405	-5.162801	1.124384
C	-0.362333	-3.874817	0.622407
C	0.355575	-3.683952	-0.612067
O	-1.253677	-5.499772	2.281166
O	1.463859	-4.459055	-2.542174
C	2.462679	-5.329063	-3.060718
H	2.997507	-4.755694	-3.841678
H	2.027179	-6.238095	-3.530361
H	3.185132	-5.637262	-2.274283
C	-2.124902	-4.572261	2.916545
H	-2.657438	-5.139743	3.703073
H	-2.867810	-4.153131	2.204417
H	-1.568770	-3.739531	3.399269
C	0.540061	-2.306654	-0.936109
S	-0.761887	-2.306501	1.341474
C	0.000000	-1.435185	0.000000
H	1.060690	-1.978138	-1.844392
H	0.192984	-9.614033	-0.258730
C	0.000000	0.000000	0.000000
S	0.693394	0.581209	1.507541
C	1.897536	1.592607	0.718873
C	0.693330	0.580791	-1.067872
C	1.756758	1.476132	-0.686410
S	0.508573	0.422041	-2.805516
C	1.846879	1.552232	-3.054530
C	2.387897	2.009402	-1.862551
F	3.408741	2.872264	-1.819088
C	2.191300	1.838768	-4.456084
O	1.606694	1.337806	-5.406510
O	3.221062	2.712584	-4.569225
C	3.603677	3.026817	-5.916207
H	4.442623	3.739898	-5.833064
H	2.758956	3.483875	-6.470168
H	3.921969	2.114070	-6.459293
H	2.604650	2.187790	1.306486
$end

$rem
JOBTYPE		SP
EXCHANGE	HF
CORRELATION	pRIMP2
BASIS		cc-pvtz
METHOD		rimp2
AUX_BASIS	rimp2-cc-pvtz
SOLVENT_METHOD	PCM
PURECART	11111
SYMMETRY	false
MEM_TOTAL	110000
SCF_CONVERGENCE = 6
THRESH=10
GUI = 2
$end

$solvent
dielectric 4.90
$end
--------------------------------------------------------------

             Standard Nuclear Orientation (Angstroms)
    I     Atom           X                Y                Z
 ----------------------------------------------------------------
    1      C       0.1949170000    -8.5177020000    -0.2549450000
    2      C      -0.3358390000    -7.6415750000     0.6805960000
    3      S       0.9547720000    -7.6386340000    -1.6038760000
    4      C      -0.1475760000    -6.2647850000     0.3545850000
    5      H      -0.8548360000    -7.9660810000     1.5913560000
    6      C       0.5670900000    -6.0727140000    -0.8799990000
    7      C       0.8267310000    -4.7870490000    -1.3795340000
    8      C      -0.6184050000    -5.1628010000     1.1243840000
    9      C      -0.3623330000    -3.8748170000     0.6224070000
   10      C       0.3555750000    -3.6839520000    -0.6120670000
   11      O      -1.2536770000    -5.4997720000     2.2811660000
   12      O       1.4638590000    -4.4590550000    -2.5421740000
   13      C       2.4626790000    -5.3290630000    -3.0607180000
   14      H       2.9975070000    -4.7556940000    -3.8416780000
   15      H       2.0271790000    -6.2380950000    -3.5303610000
   16      H       3.1851320000    -5.6372620000    -2.2742830000
   17      C      -2.1249020000    -4.5722610000     2.9165450000
   18      H      -2.6574380000    -5.1397430000     3.7030730000
   19      H      -2.8678100000    -4.1531310000     2.2044170000
   20      H      -1.5687700000    -3.7395310000     3.3992690000
   21      C       0.5400610000    -2.3066540000    -0.9361090000
   22      S      -0.7618870000    -2.3065010000     1.3414740000
   23      C       0.0000000000    -1.4351850000     0.0000000000
   24      H       1.0606900000    -1.9781380000    -1.8443920000
   25      H       0.1929840000    -9.6140330000    -0.2587300000
   26      C       0.0000000000     0.0000000000     0.0000000000
   27      S       0.6933940000     0.5812090000     1.5075410000
   28      C       1.8975360000     1.5926070000     0.7188730000
   29      C       0.6933300000     0.5807910000    -1.0678720000
   30      C       1.7567580000     1.4761320000    -0.6864100000
   31      S       0.5085730000     0.4220410000    -2.8055160000
   32      C       1.8468790000     1.5522320000    -3.0545300000
   33      C       2.3878970000     2.0094020000    -1.8625510000
   34      F       3.4087410000     2.8722640000    -1.8190880000
   35      C       2.1913000000     1.8387680000    -4.4560840000
   36      O       1.6066940000     1.3378060000    -5.4065100000
   37      O       3.2210620000     2.7125840000    -4.5692250000
   38      C       3.6036770000     3.0268170000    -5.9162070000
   39      H       4.4426230000     3.7398980000    -5.8330640000
   40      H       2.7589560000     3.4838750000    -6.4701680000
   41      H       3.9219690000     2.1140700000    -6.4592930000
   42      H       2.6046500000     2.1877900000     1.3064860000
 ----------------------------------------------------------------

   10   -2754.2704024598      8.89e-07  Convergence criterion met
 Total energy in the final basis set =    -2754.2704024598
        RIMP2         total energy =     -2759.3321049387 a.u.

                    Orbital Energies (a.u.)
 --------------------------------------------------------------

 Alpha MOs
 -- Occupied --
-92.0158 -92.0066 -91.9837 -91.9835 -26.3457 -20.6157 -20.5909 -20.5876
-20.5623 -11.4108 -11.3859 -11.3297 -11.3170 -11.3153 -11.3115 -11.2991
-11.2962 -11.2895 -11.2892 -11.2861 -11.2839 -11.2814 -11.2807 -11.2805
-11.2757 -11.2576 -11.2535 -11.2479 -11.2410  -9.0150  -9.0064  -8.9845
 -8.9837  -6.6957  -6.6949  -6.6945  -6.6873  -6.6865  -6.6855  -6.6656
 -6.6649  -6.6646  -6.6640  -6.6639  -6.6632  -1.6628  -1.4683  -1.4149
 -1.4105  -1.3710  -1.2309  -1.1907  -1.1645  -1.1396  -1.0851  -1.0487
 -1.0449  -1.0268  -0.9975  -0.9874  -0.9652  -0.9581  -0.9486  -0.9397
 -0.8934  -0.8713  -0.8458  -0.8107  -0.7983  -0.7875  -0.7832  -0.7621
 -0.7560  -0.7312  -0.7276  -0.7130  -0.7002  -0.6865  -0.6824  -0.6804
 -0.6748  -0.6599  -0.6572  -0.6502  -0.6292  -0.6176  -0.6160  -0.6064
 -0.6012  -0.5825  -0.5753  -0.5702  -0.5649  -0.5605  -0.5567  -0.5448
 -0.5321  -0.5291  -0.5217  -0.5159  -0.5136  -0.5079  -0.5063  -0.4953
 -0.4868  -0.4825  -0.4766  -0.4742  -0.4682  -0.4627  -0.4573  -0.4196
 -0.3916  -0.3827  -0.3594  -0.3501  -0.3263  -0.2901  -0.2482

          Ground-State Mulliken Net Atomic Charges

     Atom                 Charge (a.u.)
  ----------------------------------------
      1 C                    -0.196810
      2 C                    -0.253751
      3 S                    -0.026934
      4 C                    -0.022136
      5 H                     0.195231
      6 C                    -0.024234
      7 C                     0.233607
      8 C                     0.246463
      9 C                    -0.044103
     10 C                    -0.022380
     11 O                    -0.333713
     12 O                    -0.341561
     13 C                    -0.085923
     14 H                     0.121891
     15 H                     0.090743
     16 H                     0.092432
     17 C                    -0.087209
     18 H                     0.125167
     19 H                     0.094780
     20 H                     0.088878
     21 C                    -0.256042
     22 S                    -0.048466
     23 C                     0.015135
     24 H                     0.197171
     25 H                     0.204883
     26 C                    -0.123215
     27 S                     0.124709
     28 C                    -0.148167
     29 C                     0.026101
     30 C                    -0.095547
     31 S                     0.054272
     32 C                    -0.155977
     33 C                     0.399362
     34 F                    -0.205315
     35 C                     0.447577
     36 O                    -0.461264
     37 O                    -0.301036
     38 C                    -0.058181
     39 H                     0.121561
     40 H                     0.095418
     41 H                     0.095257
     42 H                     0.221325
  ----------------------------------------
  Sum of atomic charges =     0.000000

                    Cartesian Multipole Moments
 -----------------------------------------------------------------
    Charge (ESU x 10^10)
                 0.0000
    Dipole Moment (Debye)
         X       3.1119      Y       2.1801      Z       3.0035
       Tot       4.8433
    Quadrupole Moments (Debye-Ang)
        XX    -180.0102     XY       8.0800     YY    -176.9573
        XZ     -17.6777     YZ      -5.8759     ZZ    -191.9650

 Total job time:  399.81s(wall), 15336.74s(cpu)
        *  Thank you very much for using Q-Chem.  Have a nice day.  *
