 Q-Chem 5.4, Q-Chem, Inc., Pleasanton, CA (2021)
 Q-Chem 5.4.0 for Intel X86 EM64T Linux

User input:
--------------------------------------------------------------
$molecule
0 1
C	-0.123330	-8.517702	-0.296276
C	0.421494	-7.641575	0.631143
S	-0.911611	-7.638634	-1.628795
C	0.233291	-6.264785	0.305097
H	0.950737	-7.966081	1.535988
C	-0.478557	-6.072714	-0.931114
C	-0.781346	-4.787049	-1.405737
C	0.664542	-5.162801	1.097747
C	0.357854	-3.874817	0.624993
C	-0.352278	-3.683952	-0.613970
O	1.348709	-5.499772	2.226300
O	-1.469658	-4.459055	-2.538827
C	-1.419319	-5.329063	-3.663102
H	-1.828237	-4.755694	-4.516756
H	-2.043793	-6.238095	-3.520769
H	-0.377021	-5.637262	-3.895546
C	1.463351	-4.572261	3.298492
H	1.878237	-5.139743	4.152945
H	0.475176	-4.153131	3.585804
H	2.159469	-3.739531	3.058230
C	-0.540664	-2.306654	-0.935761
S	0.780808	-2.306501	1.330550
C	-0.000000	-1.435185	-0.000000
H	-1.066946	-1.978138	-1.840780
H	-0.127575	-9.614033	-0.296494
C	0.000000	0.000000	0.000000
S	0.382799	0.819795	1.507541
C	1.046687	2.245325	0.718873
C	0.382918	0.819389	-1.067872
C	0.968323	2.080267	-0.686410
S	0.282561	0.597432	-2.805516
C	1.017839	2.187324	-3.054530
C	1.314960	2.830306	-1.862551
F	1.875498	4.043751	-1.819088
C	1.208895	2.592573	-4.456084
O	0.890778	1.891482	-5.406510
O	1.772886	3.819715	-4.569225
C	1.986852	4.266207	-5.916207
H	2.445834	5.267032	-5.833064
H	1.028114	4.323448	-6.470168
H	2.661066	3.573494	-6.459293
H	1.436015	3.083584	1.306486
$end

$rem
JOBTYPE		SP
EXCHANGE	HF
CORRELATION	pRIMP2
BASIS		cc-pvtz
METHOD		rimp2
AUX_BASIS	rimp2-cc-pvtz
SOLVENT_METHOD	PCM
PURECART	11111
SYMMETRY	false
MEM_TOTAL	110000
SCF_CONVERGENCE = 6
THRESH=10
GUI = 2
$end

$solvent
dielectric 4.90
$end
--------------------------------------------------------------

             Standard Nuclear Orientation (Angstroms)
    I     Atom           X                Y                Z
 ----------------------------------------------------------------
    1      C      -0.1233300000    -8.5177020000    -0.2962760000
    2      C       0.4214940000    -7.6415750000     0.6311430000
    3      S      -0.9116110000    -7.6386340000    -1.6287950000
    4      C       0.2332910000    -6.2647850000     0.3050970000
    5      H       0.9507370000    -7.9660810000     1.5359880000
    6      C      -0.4785570000    -6.0727140000    -0.9311140000
    7      C      -0.7813460000    -4.7870490000    -1.4057370000
    8      C       0.6645420000    -5.1628010000     1.0977470000
    9      C       0.3578540000    -3.8748170000     0.6249930000
   10      C      -0.3522780000    -3.6839520000    -0.6139700000
   11      O       1.3487090000    -5.4997720000     2.2263000000
   12      O      -1.4696580000    -4.4590550000    -2.5388270000
   13      C      -1.4193190000    -5.3290630000    -3.6631020000
   14      H      -1.8282370000    -4.7556940000    -4.5167560000
   15      H      -2.0437930000    -6.2380950000    -3.5207690000
   16      H      -0.3770210000    -5.6372620000    -3.8955460000
   17      C       1.4633510000    -4.5722610000     3.2984920000
   18      H       1.8782370000    -5.1397430000     4.1529450000
   19      H       0.4751760000    -4.1531310000     3.5858040000
   20      H       2.1594690000    -3.7395310000     3.0582300000
   21      C      -0.5406640000    -2.3066540000    -0.9357610000
   22      S       0.7808080000    -2.3065010000     1.3305500000
   23      C       0.0000000000    -1.4351850000     0.0000000000
   24      H      -1.0669460000    -1.9781380000    -1.8407800000
   25      H      -0.1275750000    -9.6140330000    -0.2964940000
   26      C       0.0000000000     0.0000000000     0.0000000000
   27      S       0.3827990000     0.8197950000     1.5075410000
   28      C       1.0466870000     2.2453250000     0.7188730000
   29      C       0.3829180000     0.8193890000    -1.0678720000
   30      C       0.9683230000     2.0802670000    -0.6864100000
   31      S       0.2825610000     0.5974320000    -2.8055160000
   32      C       1.0178390000     2.1873240000    -3.0545300000
   33      C       1.3149600000     2.8303060000    -1.8625510000
   34      F       1.8754980000     4.0437510000    -1.8190880000
   35      C       1.2088950000     2.5925730000    -4.4560840000
   36      O       0.8907780000     1.8914820000    -5.4065100000
   37      O       1.7728860000     3.8197150000    -4.5692250000
   38      C       1.9868520000     4.2662070000    -5.9162070000
   39      H       2.4458340000     5.2670320000    -5.8330640000
   40      H       1.0281140000     4.3234480000    -6.4701680000
   41      H       2.6610660000     3.5734940000    -6.4592930000
   42      H       1.4360150000     3.0835840000     1.3064860000
 ----------------------------------------------------------------

   10   -2754.3053652838      7.06e-07  Convergence criterion met
 Total energy in the final basis set =    -2754.3053652838
        RIMP2         total energy =     -2759.3599603738 a.u.

                    Orbital Energies (a.u.)
 --------------------------------------------------------------

 Alpha MOs
 -- Occupied --
-92.0158 -92.0009 -91.9909 -91.9855 -26.3440 -20.6150 -20.5926 -20.5898
-20.5615 -11.4097 -11.3835 -11.3193 -11.3153 -11.3145 -11.3045 -11.2980
-11.2971 -11.2962 -11.2889 -11.2875 -11.2865 -11.2849 -11.2844 -11.2834
-11.2782 -11.2608 -11.2570 -11.2511 -11.2493  -9.0146  -9.0008  -8.9914
 -8.9854  -6.6954  -6.6948  -6.6943  -6.6818  -6.6810  -6.6800  -6.6724
 -6.6717  -6.6707  -6.6664  -6.6657  -6.6649  -1.6611  -1.4675  -1.4165
 -1.4126  -1.3702  -1.2240  -1.1938  -1.1656  -1.1375  -1.0850  -1.0511
 -1.0426  -1.0243  -1.0010  -0.9879  -0.9641  -0.9597  -0.9500  -0.9391
 -0.8958  -0.8688  -0.8508  -0.8092  -0.7979  -0.7875  -0.7857  -0.7637
 -0.7556  -0.7332  -0.7259  -0.7107  -0.7014  -0.6856  -0.6825  -0.6811
 -0.6740  -0.6589  -0.6585  -0.6518  -0.6300  -0.6192  -0.6166  -0.6030
 -0.5993  -0.5874  -0.5779  -0.5706  -0.5651  -0.5606  -0.5557  -0.5458
 -0.5351  -0.5308  -0.5217  -0.5176  -0.5165  -0.5115  -0.5048  -0.4948
 -0.4874  -0.4818  -0.4756  -0.4745  -0.4689  -0.4660  -0.4609  -0.4227
 -0.3960  -0.3838  -0.3594  -0.3493  -0.3252  -0.2913  -0.2508

          Ground-State Mulliken Net Atomic Charges

     Atom                 Charge (a.u.)
  ----------------------------------------
      1 C                    -0.191782
      2 C                    -0.254090
      3 S                    -0.023203
      4 C                    -0.017879
      5 H                     0.195835
      6 C                    -0.025913
      7 C                     0.237399
      8 C                     0.241092
      9 C                    -0.047397
     10 C                    -0.018468
     11 O                    -0.332895
     12 O                    -0.340796
     13 C                    -0.085816
     14 H                     0.122949
     15 H                     0.090772
     16 H                     0.093684
     17 C                    -0.088124
     18 H                     0.125542
     19 H                     0.094628
     20 H                     0.089493
     21 C                    -0.254771
     22 S                    -0.021885
     23 C                    -0.024120
     24 H                     0.195736
     25 H                     0.205875
     26 C                    -0.006800
     27 S                     0.081802
     28 C                    -0.169185
     29 C                     0.030085
     30 C                    -0.110385
     31 S                     0.015273
     32 C                    -0.155342
     33 C                     0.396477
     34 F                    -0.205707
     35 C                     0.446412
     36 O                    -0.460755
     37 O                    -0.301010
     38 C                    -0.058421
     39 H                     0.121436
     40 H                     0.095184
     41 H                     0.095187
     42 H                     0.219882
  ----------------------------------------
  Sum of atomic charges =     0.000000

                    Cartesian Multipole Moments
 -----------------------------------------------------------------
    Charge (ESU x 10^10)
                 0.0000
    Dipole Moment (Debye)
         X       1.6625      Y       1.5329      Z       2.9794
       Tot       3.7404
    Quadrupole Moments (Debye-Ang)
        XX    -197.2385     XY       5.0023     YY    -164.8260
        XZ       3.7104     YZ      -6.3670     ZZ    -182.8536

 Total job time:  302.03s(wall), 9931.18s(cpu)
        *  Thank you very much for using Q-Chem.  Have a nice day.  *
