 Q-Chem 5.4, Q-Chem, Inc., Pleasanton, CA (2021)
 Q-Chem 5.4.0 for Intel X86 EM64T Linux

User input:
--------------------------------------------------------------
$molecule
0 1
C	0.254945	-8.517702	0.194917
C	-0.680596	-7.641575	-0.335839
S	1.603876	-7.638634	0.954772
C	-0.354585	-6.264785	-0.147576
H	-1.591356	-7.966081	-0.854836
C	0.879999	-6.072714	0.567090
C	1.379534	-4.787049	0.826731
C	-1.124384	-5.162801	-0.618405
C	-0.622407	-3.874817	-0.362333
C	0.612067	-3.683952	0.355575
O	-2.281166	-5.499772	-1.253677
O	2.542174	-4.459055	1.463859
C	3.060718	-5.329063	2.462679
H	3.841678	-4.755694	2.997507
H	3.530361	-6.238095	2.027179
H	2.274283	-5.637262	3.185132
C	-2.916545	-4.572261	-2.124902
H	-3.703073	-5.139743	-2.657438
H	-2.204417	-4.153131	-2.867810
H	-3.399269	-3.739531	-1.568770
C	0.936109	-2.306654	0.540061
S	-1.341474	-2.306501	-0.761887
C	-0.000000	-1.435185	-0.000000
H	1.844392	-1.978138	1.060690
H	0.258730	-9.614033	0.192984
C	0.000000	0.000000	0.000000
S	0.581934	0.692785	1.507541
C	1.592155	1.897915	0.718873
C	0.581944	0.692363	-1.067872
C	1.473741	1.758764	-0.686410
S	0.427560	0.503942	-2.805516
C	1.549278	1.849357	-3.054530
C	2.002690	2.393529	-1.862551
F	2.858191	3.420549	-1.819088
C	1.838710	2.191348	-4.456084
O	1.349977	1.596481	-5.406510
O	2.701091	3.230705	-4.569225
C	3.023327	3.606605	-5.916207
H	3.725703	4.454534	-5.833064
H	2.112072	3.910035	-6.470168
H	3.495281	2.762996	-6.459293
H	2.185174	2.606846	1.306486
$end

$rem
JOBTYPE		SP
EXCHANGE	HF
CORRELATION	pRIMP2
BASIS		cc-pvtz
METHOD		rimp2
AUX_BASIS	rimp2-cc-pvtz
SOLVENT_METHOD	PCM
PURECART	11111
SYMMETRY	false
MEM_TOTAL	110000
SCF_CONVERGENCE = 6
THRESH=10
GUI = 2
$end

$solvent
dielectric 4.90
$end
--------------------------------------------------------------

             Standard Nuclear Orientation (Angstroms)
    I     Atom           X                Y                Z
 ----------------------------------------------------------------
    1      C       0.2549450000    -8.5177020000     0.1949170000
    2      C      -0.6805960000    -7.6415750000    -0.3358390000
    3      S       1.6038760000    -7.6386340000     0.9547720000
    4      C      -0.3545850000    -6.2647850000    -0.1475760000
    5      H      -1.5913560000    -7.9660810000    -0.8548360000
    6      C       0.8799990000    -6.0727140000     0.5670900000
    7      C       1.3795340000    -4.7870490000     0.8267310000
    8      C      -1.1243840000    -5.1628010000    -0.6184050000
    9      C      -0.6224070000    -3.8748170000    -0.3623330000
   10      C       0.6120670000    -3.6839520000     0.3555750000
   11      O      -2.2811660000    -5.4997720000    -1.2536770000
   12      O       2.5421740000    -4.4590550000     1.4638590000
   13      C       3.0607180000    -5.3290630000     2.4626790000
   14      H       3.8416780000    -4.7556940000     2.9975070000
   15      H       3.5303610000    -6.2380950000     2.0271790000
   16      H       2.2742830000    -5.6372620000     3.1851320000
   17      C      -2.9165450000    -4.5722610000    -2.1249020000
   18      H      -3.7030730000    -5.1397430000    -2.6574380000
   19      H      -2.2044170000    -4.1531310000    -2.8678100000
   20      H      -3.3992690000    -3.7395310000    -1.5687700000
   21      C       0.9361090000    -2.3066540000     0.5400610000
   22      S      -1.3414740000    -2.3065010000    -0.7618870000
   23      C       0.0000000000    -1.4351850000     0.0000000000
   24      H       1.8443920000    -1.9781380000     1.0606900000
   25      H       0.2587300000    -9.6140330000     0.1929840000
   26      C       0.0000000000     0.0000000000     0.0000000000
   27      S       0.5819340000     0.6927850000     1.5075410000
   28      C       1.5921550000     1.8979150000     0.7188730000
   29      C       0.5819440000     0.6923630000    -1.0678720000
   30      C       1.4737410000     1.7587640000    -0.6864100000
   31      S       0.4275600000     0.5039420000    -2.8055160000
   32      C       1.5492780000     1.8493570000    -3.0545300000
   33      C       2.0026900000     2.3935290000    -1.8625510000
   34      F       2.8581910000     3.4205490000    -1.8190880000
   35      C       1.8387100000     2.1913480000    -4.4560840000
   36      O       1.3499770000     1.5964810000    -5.4065100000
   37      O       2.7010910000     3.2307050000    -4.5692250000
   38      C       3.0233270000     3.6066050000    -5.9162070000
   39      H       3.7257030000     4.4545340000    -5.8330640000
   40      H       2.1120720000     3.9100350000    -6.4701680000
   41      H       3.4952810000     2.7629960000    -6.4592930000
   42      H       2.1851740000     2.6068460000     1.3064860000
 ----------------------------------------------------------------

   10   -2754.2876506699      8.27e-07  Convergence criterion met
 Total energy in the final basis set =    -2754.2876506699
        RIMP2         total energy =     -2759.3444870377 a.u.

                    Orbital Energies (a.u.)
 --------------------------------------------------------------

 Alpha MOs
 -- Occupied --
-92.0148 -92.0027 -91.9857 -91.9849 -26.3443 -20.6147 -20.5913 -20.5897
-20.5610 -11.4094 -11.3840 -11.3204 -11.3178 -11.3146 -11.3105 -11.2970
-11.2943 -11.2888 -11.2859 -11.2858 -11.2854 -11.2850 -11.2825 -11.2824
-11.2776 -11.2590 -11.2559 -11.2497 -11.2488  -9.0135  -9.0025  -8.9862
 -8.9848  -6.6941  -6.6934  -6.6930  -6.6835  -6.6827  -6.6817  -6.6672
 -6.6665  -6.6658  -6.6656  -6.6652  -6.6643  -1.6614  -1.4672  -1.4152
 -1.4126  -1.3699  -1.2256  -1.1922  -1.1644  -1.1374  -1.0840  -1.0498
 -1.0431  -1.0242  -0.9992  -0.9870  -0.9635  -0.9582  -0.9490  -0.9400
 -0.8936  -0.8689  -0.8470  -0.8139  -0.7926  -0.7871  -0.7851  -0.7637
 -0.7553  -0.7319  -0.7262  -0.7109  -0.6991  -0.6854  -0.6822  -0.6807
 -0.6739  -0.6586  -0.6574  -0.6515  -0.6292  -0.6187  -0.6155  -0.6055
 -0.5996  -0.5889  -0.5747  -0.5683  -0.5659  -0.5644  -0.5536  -0.5508
 -0.5310  -0.5248  -0.5209  -0.5146  -0.5139  -0.5107  -0.5039  -0.4930
 -0.4886  -0.4813  -0.4747  -0.4734  -0.4693  -0.4631  -0.4590  -0.4113
 -0.3938  -0.3855  -0.3614  -0.3446  -0.3176  -0.2978  -0.2540

          Ground-State Mulliken Net Atomic Charges

     Atom                 Charge (a.u.)
  ----------------------------------------
      1 C                    -0.192891
      2 C                    -0.253657
      3 S                    -0.025267
      4 C                    -0.018418
      5 H                     0.195885
      6 C                    -0.027536
      7 C                     0.236127
      8 C                     0.244238
      9 C                    -0.044460
     10 C                    -0.014920
     11 O                    -0.333561
     12 O                    -0.341278
     13 C                    -0.085618
     14 H                     0.121611
     15 H                     0.090925
     16 H                     0.093356
     17 C                    -0.086773
     18 H                     0.124493
     19 H                     0.095083
     20 H                     0.089603
     21 C                    -0.252677
     22 S                    -0.013830
     23 C                    -0.018805
     24 H                     0.197264
     25 H                     0.205577
     26 C                    -0.081758
     27 S                     0.105507
     28 C                    -0.159242
     29 C                     0.034827
     30 C                    -0.099687
     31 S                     0.027183
     32 C                    -0.151137
     33 C                     0.389597
     34 F                    -0.205354
     35 C                     0.447054
     36 O                    -0.461945
     37 O                    -0.301227
     38 C                    -0.058357
     39 H                     0.121293
     40 H                     0.095100
     41 H                     0.095162
     42 H                     0.218513
  ----------------------------------------
  Sum of atomic charges =     0.000000

                    Cartesian Multipole Moments
 -----------------------------------------------------------------
    Charge (ESU x 10^10)
                 0.0000
    Dipole Moment (Debye)
         X       1.9127      Y       1.5955      Z       2.9224
       Tot       3.8398
    Quadrupole Moments (Debye-Ang)
        XX    -182.2720     XY       9.2862     YY    -170.6679
        XZ       7.7529     YZ      -6.5431     ZZ    -193.9754

 Total job time:  291.06s(wall), 8883.54s(cpu)
        *  Thank you very much for using Q-Chem.  Have a nice day.  *
