 Q-Chem 5.4, Q-Chem, Inc., Pleasanton, CA (2021)
 Q-Chem 5.4.0 for Intel X86 EM64T Linux

User input:
--------------------------------------------------------------
$molecule
0 1
C	-0.320589	-8.517702	0.014560
C	0.737240	-7.641575	-0.180211
S	-1.842356	-7.638634	0.299553
C	0.366488	-6.264785	-0.114873
H	1.768528	-7.966081	-0.368061
C	-1.038637	-6.072714	0.131236
C	-1.588197	-4.787049	0.253435
C	1.258831	-5.162801	-0.249014
C	0.709695	-3.874817	-0.122513
C	-0.697430	-3.683952	0.121043
O	2.553323	-5.499772	-0.505933
O	-2.888369	-4.459055	0.512697
C	-3.927625	-5.329063	0.080869
H	-4.869656	-4.755694	0.173159
H	-4.007459	-6.238095	0.716363
H	-3.789565	-5.637262	-0.978072
C	3.600064	-4.572261	-0.246949
H	4.544887	-5.139743	-0.344574
H	3.532074	-4.153131	0.779898
H	3.612378	-3.739531	-0.983261
C	-1.064246	-2.306654	0.188009
S	1.517360	-2.306501	-0.278644
C	-0.000000	-1.435185	-0.000000
H	-2.094685	-1.978138	0.373017
H	-0.322246	-9.614033	0.018474
C	0.000000	0.000000	0.000000
S	0.309893	0.850039	1.507541
C	0.847011	2.328006	0.718873
C	0.310046	0.849645	-1.067872
C	0.783331	2.156746	-0.686410
S	0.229416	0.619785	-2.805516
C	0.823328	2.267711	-3.054530
C	1.063278	2.934142	-1.862551
F	1.515925	4.191824	-1.819088
C	0.978337	2.688069	-4.456084
O	0.722535	1.961921	-5.406510
O	1.433229	3.959697	-4.569225
C	1.607467	4.423139	-5.916207
H	1.977475	5.460158	-5.833064
H	0.647388	4.396602	-6.470168
H	2.339490	3.791823	-6.459293
H	1.161798	3.197007	1.306486
$end

$rem
JOBTYPE		SP
EXCHANGE	HF
CORRELATION	pRIMP2
BASIS		cc-pvtz
METHOD		rimp2
AUX_BASIS	rimp2-cc-pvtz
SOLVENT_METHOD	PCM
PURECART	11111
SYMMETRY	false
MEM_TOTAL	110000
SCF_CONVERGENCE = 6
THRESH=10
GUI = 2
$end

$solvent
dielectric 4.90
$end
--------------------------------------------------------------

             Standard Nuclear Orientation (Angstroms)
    I     Atom           X                Y                Z
 ----------------------------------------------------------------
    1      C      -0.3205890000    -8.5177020000     0.0145600000
    2      C       0.7372400000    -7.6415750000    -0.1802110000
    3      S      -1.8423560000    -7.6386340000     0.2995530000
    4      C       0.3664880000    -6.2647850000    -0.1148730000
    5      H       1.7685280000    -7.9660810000    -0.3680610000
    6      C      -1.0386370000    -6.0727140000     0.1312360000
    7      C      -1.5881970000    -4.7870490000     0.2534350000
    8      C       1.2588310000    -5.1628010000    -0.2490140000
    9      C       0.7096950000    -3.8748170000    -0.1225130000
   10      C      -0.6974300000    -3.6839520000     0.1210430000
   11      O       2.5533230000    -5.4997720000    -0.5059330000
   12      O      -2.8883690000    -4.4590550000     0.5126970000
   13      C      -3.9276250000    -5.3290630000     0.0808690000
   14      H      -4.8696560000    -4.7556940000     0.1731590000
   15      H      -4.0074590000    -6.2380950000     0.7163630000
   16      H      -3.7895650000    -5.6372620000    -0.9780720000
   17      C       3.6000640000    -4.5722610000    -0.2469490000
   18      H       4.5448870000    -5.1397430000    -0.3445740000
   19      H       3.5320740000    -4.1531310000     0.7798980000
   20      H       3.6123780000    -3.7395310000    -0.9832610000
   21      C      -1.0642460000    -2.3066540000     0.1880090000
   22      S       1.5173600000    -2.3065010000    -0.2786440000
   23      C       0.0000000000    -1.4351850000     0.0000000000
   24      H      -2.0946850000    -1.9781380000     0.3730170000
   25      H      -0.3222460000    -9.6140330000     0.0184740000
   26      C       0.0000000000     0.0000000000     0.0000000000
   27      S       0.3098930000     0.8500390000     1.5075410000
   28      C       0.8470110000     2.3280060000     0.7188730000
   29      C       0.3100460000     0.8496450000    -1.0678720000
   30      C       0.7833310000     2.1567460000    -0.6864100000
   31      S       0.2294160000     0.6197850000    -2.8055160000
   32      C       0.8233280000     2.2677110000    -3.0545300000
   33      C       1.0632780000     2.9341420000    -1.8625510000
   34      F       1.5159250000     4.1918240000    -1.8190880000
   35      C       0.9783370000     2.6880690000    -4.4560840000
   36      O       0.7225350000     1.9619210000    -5.4065100000
   37      O       1.4332290000     3.9596970000    -4.5692250000
   38      C       1.6074670000     4.4231390000    -5.9162070000
   39      H       1.9774750000     5.4601580000    -5.8330640000
   40      H       0.6473880000     4.3966020000    -6.4701680000
   41      H       2.3394900000     3.7918230000    -6.4592930000
   42      H       1.1617980000     3.1970070000     1.3064860000
 ----------------------------------------------------------------

   10   -2754.3080195759      7.32e-07  Convergence criterion met
 Total energy in the final basis set =    -2754.3080195759
        RIMP2         total energy =     -2759.3589182568 a.u.

                    Orbital Energies (a.u.)
 --------------------------------------------------------------

 Alpha MOs
 -- Occupied --
-92.0141 -91.9977 -91.9882 -91.9863 -26.3428 -20.6143 -20.5921 -20.5916
-20.5606 -11.4087 -11.3818 -11.3188 -11.3182 -11.3111 -11.3015 -11.2965
-11.2933 -11.2904 -11.2885 -11.2868 -11.2861 -11.2858 -11.2838 -11.2837
-11.2800 -11.2597 -11.2592 -11.2566 -11.2499  -9.0126  -8.9977  -8.9886
 -8.9863  -6.6933  -6.6927  -6.6922  -6.6787  -6.6780  -6.6768  -6.6695
 -6.6688  -6.6679  -6.6672  -6.6666  -6.6658  -1.6599  -1.4667  -1.4162
 -1.4143  -1.3694  -1.2208  -1.1939  -1.1649  -1.1353  -1.0840  -1.0517
 -1.0408  -1.0220  -1.0013  -0.9873  -0.9620  -0.9598  -0.9502  -0.9385
 -0.8956  -0.8669  -0.8504  -0.8104  -0.7921  -0.7883  -0.7861  -0.7648
 -0.7549  -0.7336  -0.7248  -0.7092  -0.7001  -0.6846  -0.6830  -0.6803
 -0.6734  -0.6590  -0.6572  -0.6525  -0.6301  -0.6200  -0.6171  -0.6052
 -0.5973  -0.5854  -0.5772  -0.5688  -0.5658  -0.5605  -0.5555  -0.5477
 -0.5329  -0.5305  -0.5234  -0.5158  -0.5147  -0.5088  -0.5039  -0.4949
 -0.4895  -0.4797  -0.4746  -0.4729  -0.4689  -0.4663  -0.4609  -0.4046
 -0.3984  -0.3862  -0.3563  -0.3492  -0.3151  -0.2976  -0.2591

          Ground-State Mulliken Net Atomic Charges

     Atom                 Charge (a.u.)
  ----------------------------------------
      1 C                    -0.187680
      2 C                    -0.254595
      3 S                    -0.022431
      4 C                    -0.012968
      5 H                     0.196399
      6 C                    -0.028233
      7 C                     0.244356
      8 C                     0.239181
      9 C                    -0.041560
     10 C                    -0.023418
     11 O                    -0.333350
     12 O                    -0.339735
     13 C                    -0.085752
     14 H                     0.122623
     15 H                     0.090979
     16 H                     0.094431
     17 C                    -0.086548
     18 H                     0.124777
     19 H                     0.094200
     20 H                     0.090422
     21 C                    -0.221949
     22 S                     0.001426
     23 C                    -0.066203
     24 H                     0.197035
     25 H                     0.206495
     26 C                    -0.000851
     27 S                     0.110754
     28 C                    -0.185873
     29 C                    -0.036869
     30 C                    -0.084726
     31 S                     0.015917
     32 C                    -0.154162
     33 C                     0.390371
     34 F                    -0.206761
     35 C                     0.446329
     36 O                    -0.461260
     37 O                    -0.300903
     38 C                    -0.058385
     39 H                     0.121174
     40 H                     0.095053
     41 H                     0.094985
     42 H                     0.217303
  ----------------------------------------
  Sum of atomic charges =     0.000000

                    Cartesian Multipole Moments
 -----------------------------------------------------------------
    Charge (ESU x 10^10)
                -0.0000
    Dipole Moment (Debye)
         X       1.0145      Y       0.8928      Z       2.7471
       Tot       3.0615
    Quadrupole Moments (Debye-Ang)
        XX    -175.1055     XY       5.8373     YY    -161.3355
        XZ      -0.9749     YZ      -5.5094     ZZ    -206.4693

 Total job time:  302.39s(wall), 9722.88s(cpu)
        *  Thank you very much for using Q-Chem.  Have a nice day.  *
