 Q-Chem 5.4, Q-Chem, Inc., Pleasanton, CA (2021)
 Q-Chem 5.4.0 for Intel X86 EM64T Linux

User input:
--------------------------------------------------------------
$molecule
0 1
C	-0.320589	-8.517702	0.014560
C	0.737240	-7.641575	-0.180211
S	-1.842356	-7.638634	0.299553
C	0.366488	-6.264785	-0.114873
H	1.768528	-7.966081	-0.368061
C	-1.038637	-6.072714	0.131236
C	-1.588197	-4.787049	0.253435
C	1.258831	-5.162801	-0.249014
C	0.709695	-3.874817	-0.122513
C	-0.697430	-3.683952	0.121043
O	2.553323	-5.499772	-0.505933
O	-2.888369	-4.459055	0.512697
C	-3.927625	-5.329063	0.080869
H	-4.869656	-4.755694	0.173159
H	-4.007459	-6.238095	0.716363
H	-3.789565	-5.637262	-0.978072
C	3.600064	-4.572261	-0.246949
H	4.544887	-5.139743	-0.344574
H	3.532074	-4.153131	0.779898
H	3.612378	-3.739531	-0.983261
C	-1.064246	-2.306654	0.188009
S	1.517360	-2.306501	-0.278644
C	0.000000	-1.435185	0.000000
H	-2.094685	-1.978138	0.373017
H	-0.322246	-9.614033	0.018474
C	0.000000	0.000000	0.000000
S	0.693394	0.581209	1.507541
C	1.897536	1.592607	0.718873
C	0.693330	0.580791	-1.067872
C	1.756758	1.476132	-0.686410
S	0.508573	0.422041	-2.805516
C	1.846879	1.552232	-3.054530
C	2.387897	2.009402	-1.862551
F	3.408741	2.872264	-1.819088
C	2.191300	1.838768	-4.456084
O	1.606694	1.337806	-5.406510
O	3.221062	2.712584	-4.569225
C	3.603677	3.026817	-5.916207
H	4.442623	3.739898	-5.833064
H	2.758956	3.483875	-6.470168
H	3.921969	2.114070	-6.459293
H	2.604650	2.187790	1.306486
$end

$rem
JOBTYPE		SP
EXCHANGE	HF
CORRELATION	pRIMP2
BASIS		cc-pvtz
METHOD		rimp2
AUX_BASIS	rimp2-cc-pvtz
SOLVENT_METHOD	PCM
PURECART	11111
SYMMETRY	false
MEM_TOTAL	110000
SCF_CONVERGENCE = 6
THRESH=10
GUI = 2
$end

$solvent
dielectric 4.90
$end
--------------------------------------------------------------

             Standard Nuclear Orientation (Angstroms)
    I     Atom           X                Y                Z
 ----------------------------------------------------------------
    1      C      -0.3205890000    -8.5177020000     0.0145600000
    2      C       0.7372400000    -7.6415750000    -0.1802110000
    3      S      -1.8423560000    -7.6386340000     0.2995530000
    4      C       0.3664880000    -6.2647850000    -0.1148730000
    5      H       1.7685280000    -7.9660810000    -0.3680610000
    6      C      -1.0386370000    -6.0727140000     0.1312360000
    7      C      -1.5881970000    -4.7870490000     0.2534350000
    8      C       1.2588310000    -5.1628010000    -0.2490140000
    9      C       0.7096950000    -3.8748170000    -0.1225130000
   10      C      -0.6974300000    -3.6839520000     0.1210430000
   11      O       2.5533230000    -5.4997720000    -0.5059330000
   12      O      -2.8883690000    -4.4590550000     0.5126970000
   13      C      -3.9276250000    -5.3290630000     0.0808690000
   14      H      -4.8696560000    -4.7556940000     0.1731590000
   15      H      -4.0074590000    -6.2380950000     0.7163630000
   16      H      -3.7895650000    -5.6372620000    -0.9780720000
   17      C       3.6000640000    -4.5722610000    -0.2469490000
   18      H       4.5448870000    -5.1397430000    -0.3445740000
   19      H       3.5320740000    -4.1531310000     0.7798980000
   20      H       3.6123780000    -3.7395310000    -0.9832610000
   21      C      -1.0642460000    -2.3066540000     0.1880090000
   22      S       1.5173600000    -2.3065010000    -0.2786440000
   23      C       0.0000000000    -1.4351850000     0.0000000000
   24      H      -2.0946850000    -1.9781380000     0.3730170000
   25      H      -0.3222460000    -9.6140330000     0.0184740000
   26      C       0.0000000000     0.0000000000     0.0000000000
   27      S       0.6933940000     0.5812090000     1.5075410000
   28      C       1.8975360000     1.5926070000     0.7188730000
   29      C       0.6933300000     0.5807910000    -1.0678720000
   30      C       1.7567580000     1.4761320000    -0.6864100000
   31      S       0.5085730000     0.4220410000    -2.8055160000
   32      C       1.8468790000     1.5522320000    -3.0545300000
   33      C       2.3878970000     2.0094020000    -1.8625510000
   34      F       3.4087410000     2.8722640000    -1.8190880000
   35      C       2.1913000000     1.8387680000    -4.4560840000
   36      O       1.6066940000     1.3378060000    -5.4065100000
   37      O       3.2210620000     2.7125840000    -4.5692250000
   38      C       3.6036770000     3.0268170000    -5.9162070000
   39      H       4.4426230000     3.7398980000    -5.8330640000
   40      H       2.7589560000     3.4838750000    -6.4701680000
   41      H       3.9219690000     2.1140700000    -6.4592930000
   42      H       2.6046500000     2.1877900000     1.3064860000
 ----------------------------------------------------------------

   10   -2754.2711662829      9.13e-07  Convergence criterion met
 Total energy in the final basis set =    -2754.2711662829
        RIMP2         total energy =     -2759.3310021172 a.u.

                    Orbital Energies (a.u.)
 --------------------------------------------------------------

 Alpha MOs
 -- Occupied --
-92.0132 -92.0051 -91.9848 -91.9828 -26.3451 -20.6151 -20.5910 -20.5895
-20.5615 -11.4100 -11.3853 -11.3270 -11.3170 -11.3147 -11.3133 -11.2980
-11.2891 -11.2881 -11.2869 -11.2863 -11.2849 -11.2825 -11.2819 -11.2779
-11.2747 -11.2566 -11.2564 -11.2487 -11.2472  -9.0122  -9.0048  -8.9847
 -8.9837  -6.6929  -6.6920  -6.6917  -6.6857  -6.6850  -6.6840  -6.6657
 -6.6651  -6.6646  -6.6642  -6.6639  -6.6630  -1.6622  -1.4677  -1.4151
 -1.4123  -1.3704  -1.2289  -1.1912  -1.1640  -1.1384  -1.0837  -1.0494
 -1.0437  -1.0248  -0.9987  -0.9865  -0.9637  -0.9587  -0.9493  -0.9387
 -0.8938  -0.8699  -0.8454  -0.8132  -0.7937  -0.7859  -0.7834  -0.7638
 -0.7556  -0.7316  -0.7269  -0.7114  -0.6993  -0.6858  -0.6825  -0.6800
 -0.6743  -0.6593  -0.6577  -0.6512  -0.6288  -0.6184  -0.6163  -0.6079
 -0.5988  -0.5874  -0.5753  -0.5690  -0.5640  -0.5632  -0.5538  -0.5370
 -0.5318  -0.5312  -0.5209  -0.5159  -0.5138  -0.5095  -0.5038  -0.4943
 -0.4884  -0.4826  -0.4749  -0.4736  -0.4668  -0.4652  -0.4593  -0.4019
 -0.3968  -0.3836  -0.3536  -0.3522  -0.3137  -0.3002  -0.2565

          Ground-State Mulliken Net Atomic Charges

     Atom                 Charge (a.u.)
  ----------------------------------------
      1 C                    -0.191886
      2 C                    -0.254177
      3 S                    -0.024861
      4 C                    -0.017142
      5 H                     0.195759
      6 C                    -0.028034
      7 C                     0.239463
      8 C                     0.240993
      9 C                    -0.041397
     10 C                    -0.016678
     11 O                    -0.333680
     12 O                    -0.339904
     13 C                    -0.085740
     14 H                     0.122003
     15 H                     0.090529
     16 H                     0.093745
     17 C                    -0.086672
     18 H                     0.124755
     19 H                     0.093603
     20 H                     0.089694
     21 C                    -0.238517
     22 S                    -0.021916
     23 C                    -0.057919
     24 H                     0.195288
     25 H                     0.205690
     26 C                    -0.085839
     27 S                     0.124670
     28 C                    -0.141666
     29 C                    -0.010582
     30 C                    -0.089098
     31 S                     0.053414
     32 C                    -0.150292
     33 C                     0.393360
     34 F                    -0.205089
     35 C                     0.448141
     36 O                    -0.461693
     37 O                    -0.301165
     38 C                    -0.058227
     39 H                     0.121351
     40 H                     0.095263
     41 H                     0.095231
     42 H                     0.219223
  ----------------------------------------
  Sum of atomic charges =     0.000000

                    Cartesian Multipole Moments
 -----------------------------------------------------------------
    Charge (ESU x 10^10)
                 0.0000
    Dipole Moment (Debye)
         X       3.0590      Y       1.4027      Z       2.4380
       Tot       4.1556
    Quadrupole Moments (Debye-Ang)
        XX    -167.3721     XY       9.0238     YY    -172.8924
        XZ      -3.9317     YZ      -3.3109     ZZ    -204.8377

 Total job time:  305.95s(wall), 9141.56s(cpu)
        *  Thank you very much for using Q-Chem.  Have a nice day.  *
