 Q-Chem 5.4, Q-Chem, Inc., Pleasanton, CA (2021)
 Q-Chem 5.4.0 for Intel X86 EM64T Linux

User input:
--------------------------------------------------------------
$molecule
0 1
C	-0.306235	-8.517702	-0.095966
C	0.754415	-7.641575	0.082807
S	-1.833702	-7.638634	-0.348635
C	0.383675	-6.264785	0.017401
H	1.787757	-7.966081	0.259008
C	-1.020885	-6.072714	-0.231913
C	-1.579097	-4.787049	-0.305044
C	1.268082	-5.162801	0.196549
C	0.708796	-3.874817	0.127606
C	-0.696769	-3.683952	-0.124792
O	2.572378	-5.499772	0.397867
O	-2.889532	-4.459055	-0.506103
C	-3.718420	-5.329063	-1.267335
H	-4.635204	-4.755694	-1.502804
H	-4.010790	-6.238095	-0.697471
H	-3.226506	-5.637262	-2.215194
C	3.467415	-4.572261	0.999238
H	4.388648	-5.139743	1.230649
H	3.052323	-4.153131	1.940905
H	3.730819	-3.739531	0.311543
C	-1.064366	-2.306654	-0.187323
S	1.521154	-2.306501	0.257128
C	-0.000000	-1.435185	-0.000000
H	-2.095939	-1.978138	-0.365903
H	-0.309131	-9.614033	-0.092855
C	0.000000	0.000000	0.000000
S	0.382799	0.819795	1.507541
C	1.046687	2.245325	0.718873
C	0.382918	0.819389	-1.067872
C	0.968323	2.080267	-0.686410
S	0.282561	0.597432	-2.805516
C	1.017839	2.187324	-3.054530
C	1.314960	2.830306	-1.862551
F	1.875498	4.043751	-1.819088
C	1.208895	2.592573	-4.456084
O	0.890778	1.891482	-5.406510
O	1.772886	3.819715	-4.569225
C	1.986852	4.266207	-5.916207
H	2.445834	5.267032	-5.833064
H	1.028114	4.323448	-6.470168
H	2.661066	3.573494	-6.459293
H	1.436015	3.083584	1.306486
$end

$rem
JOBTYPE		SP
EXCHANGE	HF
CORRELATION	pRIMP2
BASIS		cc-pvtz
METHOD		rimp2
AUX_BASIS	rimp2-cc-pvtz
SOLVENT_METHOD	PCM
PURECART	11111
SYMMETRY	false
MEM_TOTAL	110000
SCF_CONVERGENCE = 6
THRESH=10
GUI = 2
$end

$solvent
dielectric 4.90
$end
--------------------------------------------------------------

             Standard Nuclear Orientation (Angstroms)
    I     Atom           X                Y                Z
 ----------------------------------------------------------------
    1      C      -0.3062350000    -8.5177020000    -0.0959660000
    2      C       0.7544150000    -7.6415750000     0.0828070000
    3      S      -1.8337020000    -7.6386340000    -0.3486350000
    4      C       0.3836750000    -6.2647850000     0.0174010000
    5      H       1.7877570000    -7.9660810000     0.2590080000
    6      C      -1.0208850000    -6.0727140000    -0.2319130000
    7      C      -1.5790970000    -4.7870490000    -0.3050440000
    8      C       1.2680820000    -5.1628010000     0.1965490000
    9      C       0.7087960000    -3.8748170000     0.1276060000
   10      C      -0.6967690000    -3.6839520000    -0.1247920000
   11      O       2.5723780000    -5.4997720000     0.3978670000
   12      O      -2.8895320000    -4.4590550000    -0.5061030000
   13      C      -3.7184200000    -5.3290630000    -1.2673350000
   14      H      -4.6352040000    -4.7556940000    -1.5028040000
   15      H      -4.0107900000    -6.2380950000    -0.6974710000
   16      H      -3.2265060000    -5.6372620000    -2.2151940000
   17      C       3.4674150000    -4.5722610000     0.9992380000
   18      H       4.3886480000    -5.1397430000     1.2306490000
   19      H       3.0523230000    -4.1531310000     1.9409050000
   20      H       3.7308190000    -3.7395310000     0.3115430000
   21      C      -1.0643660000    -2.3066540000    -0.1873230000
   22      S       1.5211540000    -2.3065010000     0.2571280000
   23      C       0.0000000000    -1.4351850000     0.0000000000
   24      H      -2.0959390000    -1.9781380000    -0.3659030000
   25      H      -0.3091310000    -9.6140330000    -0.0928550000
   26      C       0.0000000000     0.0000000000     0.0000000000
   27      S       0.3827990000     0.8197950000     1.5075410000
   28      C       1.0466870000     2.2453250000     0.7188730000
   29      C       0.3829180000     0.8193890000    -1.0678720000
   30      C       0.9683230000     2.0802670000    -0.6864100000
   31      S       0.2825610000     0.5974320000    -2.8055160000
   32      C       1.0178390000     2.1873240000    -3.0545300000
   33      C       1.3149600000     2.8303060000    -1.8625510000
   34      F       1.8754980000     4.0437510000    -1.8190880000
   35      C       1.2088950000     2.5925730000    -4.4560840000
   36      O       0.8907780000     1.8914820000    -5.4065100000
   37      O       1.7728860000     3.8197150000    -4.5692250000
   38      C       1.9868520000     4.2662070000    -5.9162070000
   39      H       2.4458340000     5.2670320000    -5.8330640000
   40      H       1.0281140000     4.3234480000    -6.4701680000
   41      H       2.6610660000     3.5734940000    -6.4592930000
   42      H       1.4360150000     3.0835840000     1.3064860000
 ----------------------------------------------------------------

   10   -2754.3038988641      7.45e-07  Convergence criterion met
 Total energy in the final basis set =    -2754.3038988641
        RIMP2         total energy =     -2759.3556488574 a.u.

                    Orbital Energies (a.u.)
 --------------------------------------------------------------

 Alpha MOs
 -- Occupied --
-92.0138 -91.9985 -91.9880 -91.9861 -26.3431 -20.6143 -20.5921 -20.5912
-20.5606 -11.4088 -11.3822 -11.3187 -11.3176 -11.3131 -11.3033 -11.2965
-11.2915 -11.2902 -11.2885 -11.2870 -11.2858 -11.2855 -11.2840 -11.2835
-11.2797 -11.2593 -11.2588 -11.2553 -11.2498  -9.0124  -8.9984  -8.9884
 -8.9861  -6.6931  -6.6925  -6.6920  -6.6794  -6.6787  -6.6776  -6.6693
 -6.6687  -6.6677  -6.6670  -6.6664  -6.6656  -1.6602  -1.4668  -1.4162
 -1.4140  -1.3694  -1.2216  -1.1936  -1.1648  -1.1357  -1.0838  -1.0514
 -1.0412  -1.0222  -1.0010  -0.9872  -0.9614  -0.9606  -0.9501  -0.9383
 -0.8954  -0.8673  -0.8499  -0.8095  -0.7935  -0.7879  -0.7859  -0.7645
 -0.7549  -0.7333  -0.7250  -0.7094  -0.7006  -0.6847  -0.6827  -0.6803
 -0.6735  -0.6589  -0.6573  -0.6524  -0.6299  -0.6198  -0.6171  -0.6052
 -0.5977  -0.5865  -0.5768  -0.5689  -0.5656  -0.5610  -0.5552  -0.5447
 -0.5339  -0.5306  -0.5227  -0.5155  -0.5148  -0.5093  -0.5036  -0.4939
 -0.4894  -0.4800  -0.4742  -0.4732  -0.4689  -0.4667  -0.4614  -0.4057
 -0.3962  -0.3866  -0.3561  -0.3500  -0.3124  -0.3001  -0.2587

          Ground-State Mulliken Net Atomic Charges

     Atom                 Charge (a.u.)
  ----------------------------------------
      1 C                    -0.188249
      2 C                    -0.254640
      3 S                    -0.022541
      4 C                    -0.013571
      5 H                     0.196254
      6 C                    -0.028161
      7 C                     0.242864
      8 C                     0.239501
      9 C                    -0.041602
     10 C                    -0.024789
     11 O                    -0.333393
     12 O                    -0.339823
     13 C                    -0.085757
     14 H                     0.122656
     15 H                     0.090846
     16 H                     0.094317
     17 C                    -0.086412
     18 H                     0.124821
     19 H                     0.094101
     20 H                     0.090074
     21 C                    -0.215749
     22 S                    -0.000873
     23 C                    -0.075893
     24 H                     0.197904
     25 H                     0.206381
     26 C                    -0.018172
     27 S                     0.108494
     28 C                    -0.179279
     29 C                    -0.009550
     30 C                    -0.088383
     31 S                     0.014380
     32 C                    -0.153011
     33 C                     0.389328
     34 F                    -0.206425
     35 C                     0.446444
     36 O                    -0.461397
     37 O                    -0.301005
     38 C                    -0.058424
     39 H                     0.121202
     40 H                     0.095048
     41 H                     0.095030
     42 H                     0.217453
  ----------------------------------------
  Sum of atomic charges =     0.000000

                    Cartesian Multipole Moments
 -----------------------------------------------------------------
    Charge (ESU x 10^10)
                -0.0000
    Dipole Moment (Debye)
         X       1.3870      Y       0.9908      Z       2.7408
       Tot       3.2276
    Quadrupole Moments (Debye-Ang)
        XX    -178.0586     XY       6.3525     YY    -162.8016
        XZ       6.1814     YZ      -5.1137     ZZ    -202.4706

 Total job time:  304.66s(wall), 10061.95s(cpu)
        *  Thank you very much for using Q-Chem.  Have a nice day.  *
