 Q-Chem 5.4, Q-Chem, Inc., Pleasanton, CA (2021)
 Q-Chem 5.4.0 for Intel X86 EM64T Linux

User input:
--------------------------------------------------------------
$molecule
0 1
C	-0.095966	-8.517702	0.306235
C	0.082807	-7.641575	-0.754415
S	-0.348635	-7.638634	1.833702
C	0.017401	-6.264785	-0.383675
H	0.259008	-7.966081	-1.787757
C	-0.231913	-6.072714	1.020885
C	-0.305044	-4.787049	1.579097
C	0.196549	-5.162801	-1.268082
C	0.127606	-3.874817	-0.708796
C	-0.124792	-3.683952	0.696769
O	0.397867	-5.499772	-2.572378
O	-0.506103	-4.459055	2.889532
C	-1.267335	-5.329063	3.718420
H	-1.502804	-4.755694	4.635204
H	-0.697471	-6.238095	4.010790
H	-2.215194	-5.637262	3.226506
C	0.999238	-4.572261	-3.467415
H	1.230649	-5.139743	-4.388648
H	1.940905	-4.153131	-3.052323
H	0.311543	-3.739531	-3.730819
C	-0.187323	-2.306654	1.064366
S	0.257128	-2.306501	-1.521154
C	0.000000	-1.435185	0.000000
H	-0.365903	-1.978138	2.095939
H	-0.092855	-9.614033	0.309131
C	0.000000	0.000000	0.000000
S	0.693394	0.581209	1.507541
C	1.897536	1.592607	0.718873
C	0.693330	0.580791	-1.067872
C	1.756758	1.476132	-0.686410
S	0.508573	0.422041	-2.805516
C	1.846879	1.552232	-3.054530
C	2.387897	2.009402	-1.862551
F	3.408741	2.872264	-1.819088
C	2.191300	1.838768	-4.456084
O	1.606694	1.337806	-5.406510
O	3.221062	2.712584	-4.569225
C	3.603677	3.026817	-5.916207
H	4.442623	3.739898	-5.833064
H	2.758956	3.483875	-6.470168
H	3.921969	2.114070	-6.459293
H	2.604650	2.187790	1.306486
$end

$rem
JOBTYPE		SP
EXCHANGE	HF
CORRELATION	pRIMP2
BASIS		cc-pvtz
METHOD		rimp2
AUX_BASIS	rimp2-cc-pvtz
SOLVENT_METHOD	PCM
PURECART	11111
SYMMETRY	false
MEM_TOTAL	110000
SCF_CONVERGENCE = 6
THRESH=10
GUI = 2
$end

$solvent
dielectric 4.90
$end
--------------------------------------------------------------

             Standard Nuclear Orientation (Angstroms)
    I     Atom           X                Y                Z
 ----------------------------------------------------------------
    1      C      -0.0959660000    -8.5177020000     0.3062350000
    2      C       0.0828070000    -7.6415750000    -0.7544150000
    3      S      -0.3486350000    -7.6386340000     1.8337020000
    4      C       0.0174010000    -6.2647850000    -0.3836750000
    5      H       0.2590080000    -7.9660810000    -1.7877570000
    6      C      -0.2319130000    -6.0727140000     1.0208850000
    7      C      -0.3050440000    -4.7870490000     1.5790970000
    8      C       0.1965490000    -5.1628010000    -1.2680820000
    9      C       0.1276060000    -3.8748170000    -0.7087960000
   10      C      -0.1247920000    -3.6839520000     0.6967690000
   11      O       0.3978670000    -5.4997720000    -2.5723780000
   12      O      -0.5061030000    -4.4590550000     2.8895320000
   13      C      -1.2673350000    -5.3290630000     3.7184200000
   14      H      -1.5028040000    -4.7556940000     4.6352040000
   15      H      -0.6974710000    -6.2380950000     4.0107900000
   16      H      -2.2151940000    -5.6372620000     3.2265060000
   17      C       0.9992380000    -4.5722610000    -3.4674150000
   18      H       1.2306490000    -5.1397430000    -4.3886480000
   19      H       1.9409050000    -4.1531310000    -3.0523230000
   20      H       0.3115430000    -3.7395310000    -3.7308190000
   21      C      -0.1873230000    -2.3066540000     1.0643660000
   22      S       0.2571280000    -2.3065010000    -1.5211540000
   23      C       0.0000000000    -1.4351850000     0.0000000000
   24      H      -0.3659030000    -1.9781380000     2.0959390000
   25      H      -0.0928550000    -9.6140330000     0.3091310000
   26      C       0.0000000000     0.0000000000     0.0000000000
   27      S       0.6933940000     0.5812090000     1.5075410000
   28      C       1.8975360000     1.5926070000     0.7188730000
   29      C       0.6933300000     0.5807910000    -1.0678720000
   30      C       1.7567580000     1.4761320000    -0.6864100000
   31      S       0.5085730000     0.4220410000    -2.8055160000
   32      C       1.8468790000     1.5522320000    -3.0545300000
   33      C       2.3878970000     2.0094020000    -1.8625510000
   34      F       3.4087410000     2.8722640000    -1.8190880000
   35      C       2.1913000000     1.8387680000    -4.4560840000
   36      O       1.6066940000     1.3378060000    -5.4065100000
   37      O       3.2210620000     2.7125840000    -4.5692250000
   38      C       3.6036770000     3.0268170000    -5.9162070000
   39      H       4.4426230000     3.7398980000    -5.8330640000
   40      H       2.7589560000     3.4838750000    -6.4701680000
   41      H       3.9219690000     2.1140700000    -6.4592930000
   42      H       2.6046500000     2.1877900000     1.3064860000
 ----------------------------------------------------------------

   10   -2754.2640721765      7.00e-07  Convergence criterion met
 Total energy in the final basis set =    -2754.2640721765
        RIMP2         total energy =     -2759.3284042094 a.u.

                    Orbital Energies (a.u.)
 --------------------------------------------------------------

 Alpha MOs
 -- Occupied --
-92.0149 -92.0081 -91.9837 -91.9826 -26.3466 -20.6162 -20.5903 -20.5865
-20.5628 -11.4113 -11.3872 -11.3323 -11.3184 -11.3166 -11.3085 -11.2994
-11.2977 -11.2898 -11.2897 -11.2853 -11.2837 -11.2824 -11.2806 -11.2768
-11.2738 -11.2573 -11.2510 -11.2471 -11.2369  -9.0143  -9.0082  -8.9849
 -8.9825  -6.6950  -6.6941  -6.6938  -6.6890  -6.6882  -6.6872  -6.6657
 -6.6650  -6.6640  -6.6635  -6.6629  -6.6621  -1.6635  -1.4688  -1.4141
 -1.4094  -1.3715  -1.2330  -1.1895  -1.1638  -1.1401  -1.0861  -1.0481
 -1.0438  -1.0286  -0.9977  -0.9869  -0.9665  -0.9555  -0.9476  -0.9418
 -0.8921  -0.8725  -0.8450  -0.8191  -0.7947  -0.7848  -0.7808  -0.7632
 -0.7559  -0.7298  -0.7283  -0.7130  -0.6974  -0.6872  -0.6839  -0.6794
 -0.6753  -0.6606  -0.6563  -0.6496  -0.6300  -0.6167  -0.6148  -0.6061
 -0.6008  -0.5813  -0.5804  -0.5701  -0.5651  -0.5581  -0.5546  -0.5493
 -0.5334  -0.5290  -0.5240  -0.5171  -0.5149  -0.5104  -0.5044  -0.4941
 -0.4857  -0.4822  -0.4776  -0.4743  -0.4692  -0.4592  -0.4557  -0.4239
 -0.3894  -0.3807  -0.3576  -0.3540  -0.3244  -0.2904  -0.2437

          Ground-State Mulliken Net Atomic Charges

     Atom                 Charge (a.u.)
  ----------------------------------------
      1 C                    -0.201296
      2 C                    -0.252203
      3 S                    -0.029486
      4 C                    -0.027481
      5 H                     0.195078
      6 C                    -0.023506
      7 C                     0.223581
      8 C                     0.246239
      9 C                    -0.046807
     10 C                    -0.003621
     11 O                    -0.333245
     12 O                    -0.342638
     13 C                    -0.085420
     14 H                     0.120623
     15 H                     0.089951
     16 H                     0.092555
     17 C                    -0.088267
     18 H                     0.125229
     19 H                     0.093689
     20 H                     0.090603
     21 C                    -0.299955
     22 S                    -0.037634
     23 C                     0.026078
     24 H                     0.181525
     25 H                     0.204260
     26 C                    -0.094676
     27 S                     0.115334
     28 C                    -0.131710
     29 C                     0.041236
     30 C                    -0.105797
     31 S                     0.057371
     32 C                    -0.159486
     33 C                     0.401559
     34 F                    -0.204363
     35 C                     0.448703
     36 O                    -0.461524
     37 O                    -0.300964
     38 C                    -0.058193
     39 H                     0.121720
     40 H                     0.095405
     41 H                     0.095232
     42 H                     0.222300
  ----------------------------------------
  Sum of atomic charges =     0.000000

                    Cartesian Multipole Moments
 -----------------------------------------------------------------
    Charge (ESU x 10^10)
                 0.0000
    Dipole Moment (Debye)
         X       3.1096      Y       2.8609      Z       1.8841
       Tot       4.6265
    Quadrupole Moments (Debye-Ang)
        XX    -187.4395     XY       9.9246     YY    -180.9789
        XZ     -14.5541     YZ      -2.6217     ZZ    -183.8848

 Total job time:  300.38s(wall), 9602.96s(cpu)
        *  Thank you very much for using Q-Chem.  Have a nice day.  *
