 Q-Chem 5.4, Q-Chem, Inc., Pleasanton, CA (2021)
 Q-Chem 5.4.0 for Intel X86 EM64T Linux

User input:
--------------------------------------------------------------
$molecule
0 1
C	-0.217225	-8.517702	-0.236226
C	0.611939	-7.641575	0.448921
S	-1.413715	-7.638634	-1.218777
C	0.323572	-6.264785	0.206907
H	1.418739	-7.966081	1.118185
C	-0.768156	-6.072714	-0.711285
C	-1.215016	-4.787049	-1.053725
C	0.999917	-5.162801	0.804258
C	0.550033	-3.874817	0.464908
C	-0.541024	-3.683952	-0.456457
O	2.028811	-5.499772	1.630752
O	-2.249357	-4.459055	-1.883064
C	-2.586579	-5.329063	-2.956754
H	-3.262802	-4.755694	-3.619069
H	-3.124711	-6.238095	-2.609423
H	-1.686639	-5.637262	-3.531667
C	2.503251	-4.572261	2.599073
H	3.185356	-5.139743	3.260097
H	1.672937	-4.153131	3.207034
H	3.075213	-3.739531	2.135214
C	-0.828107	-2.306654	-0.694410
S	1.188794	-2.306501	0.983256
C	0.000000	-1.435185	0.000000
H	-1.632185	-1.978138	-1.364851
H	-0.221288	-9.614033	-0.234980
C	0.000000	0.000000	0.000000
S	0.000474	0.904764	1.507541
C	-0.000295	2.477305	0.718873
C	0.000752	0.904447	-1.067872
C	-0.001560	2.294593	-0.686410
S	0.003602	0.660872	-2.805516
C	-0.001928	2.412546	-3.054530
C	-0.004381	3.120854	-1.862551
F	-0.009185	4.457503	-1.819088
C	-0.000038	2.860570	-4.456084
O	0.007944	2.090724	-5.406510
O	-0.007501	4.211092	-4.569225
C	-0.002278	4.706177	-5.916207
H	-0.009265	5.807207	-5.833064
H	-0.895381	4.352875	-6.470168
H	0.901521	4.363301	-6.459293
H	-0.001708	3.401562	1.306486
$end

$rem
JOBTYPE		SP
EXCHANGE	HF
CORRELATION	pRIMP2
BASIS		cc-pvtz
METHOD		rimp2
AUX_BASIS	rimp2-cc-pvtz
SOLVENT_METHOD	PCM
PURECART	11111
SYMMETRY	false
MEM_TOTAL	110000
SCF_CONVERGENCE = 6
THRESH=10
GUI = 2
$end

$solvent
dielectric 4.90
$end
--------------------------------------------------------------

             Standard Nuclear Orientation (Angstroms)
    I     Atom           X                Y                Z
 ----------------------------------------------------------------
    1      C      -0.2172250000    -8.5177020000    -0.2362260000
    2      C       0.6119390000    -7.6415750000     0.4489210000
    3      S      -1.4137150000    -7.6386340000    -1.2187770000
    4      C       0.3235720000    -6.2647850000     0.2069070000
    5      H       1.4187390000    -7.9660810000     1.1181850000
    6      C      -0.7681560000    -6.0727140000    -0.7112850000
    7      C      -1.2150160000    -4.7870490000    -1.0537250000
    8      C       0.9999170000    -5.1628010000     0.8042580000
    9      C       0.5500330000    -3.8748170000     0.4649080000
   10      C      -0.5410240000    -3.6839520000    -0.4564570000
   11      O       2.0288110000    -5.4997720000     1.6307520000
   12      O      -2.2493570000    -4.4590550000    -1.8830640000
   13      C      -2.5865790000    -5.3290630000    -2.9567540000
   14      H      -3.2628020000    -4.7556940000    -3.6190690000
   15      H      -3.1247110000    -6.2380950000    -2.6094230000
   16      H      -1.6866390000    -5.6372620000    -3.5316670000
   17      C       2.5032510000    -4.5722610000     2.5990730000
   18      H       3.1853560000    -5.1397430000     3.2600970000
   19      H       1.6729370000    -4.1531310000     3.2070340000
   20      H       3.0752130000    -3.7395310000     2.1352140000
   21      C      -0.8281070000    -2.3066540000    -0.6944100000
   22      S       1.1887940000    -2.3065010000     0.9832560000
   23      C       0.0000000000    -1.4351850000     0.0000000000
   24      H      -1.6321850000    -1.9781380000    -1.3648510000
   25      H      -0.2212880000    -9.6140330000    -0.2349800000
   26      C       0.0000000000     0.0000000000     0.0000000000
   27      S       0.0004740000     0.9047640000     1.5075410000
   28      C      -0.0002950000     2.4773050000     0.7188730000
   29      C       0.0007520000     0.9044470000    -1.0678720000
   30      C      -0.0015600000     2.2945930000    -0.6864100000
   31      S       0.0036020000     0.6608720000    -2.8055160000
   32      C      -0.0019280000     2.4125460000    -3.0545300000
   33      C      -0.0043810000     3.1208540000    -1.8625510000
   34      F      -0.0091850000     4.4575030000    -1.8190880000
   35      C      -0.0000380000     2.8605700000    -4.4560840000
   36      O       0.0079440000     2.0907240000    -5.4065100000
   37      O      -0.0075010000     4.2110920000    -4.5692250000
   38      C      -0.0022780000     4.7061770000    -5.9162070000
   39      H      -0.0092650000     5.8072070000    -5.8330640000
   40      H      -0.8953810000     4.3528750000    -6.4701680000
   41      H       0.9015210000     4.3633010000    -6.4592930000
   42      H      -0.0017080000     3.4015620000     1.3064860000
 ----------------------------------------------------------------

   10   -2754.3163158806      7.08e-07  Convergence criterion met
 Total energy in the final basis set =    -2754.3163158806
        RIMP2         total energy =     -2759.3664873941 a.u.

                    Orbital Energies (a.u.)
 --------------------------------------------------------------

 Alpha MOs
 -- Occupied --
-92.0151 -91.9969 -91.9907 -91.9866 -26.3426 -20.6144 -20.5929 -20.5914
-20.5608 -11.4089 -11.3815 -11.3198 -11.3182 -11.3086 -11.3002 -11.2990
-11.2968 -11.2945 -11.2886 -11.2876 -11.2867 -11.2858 -11.2843 -11.2843
-11.2800 -11.2614 -11.2593 -11.2574 -11.2502  -9.0136  -8.9969  -8.9911
 -8.9865  -6.6943  -6.6938  -6.6932  -6.6779  -6.6772  -6.6761  -6.6721
 -6.6714  -6.6704  -6.6675  -6.6668  -6.6660  -1.6597  -1.4669  -1.4169
 -1.4142  -1.3696  -1.2205  -1.1949  -1.1659  -1.1355  -1.0850  -1.0523
 -1.0409  -1.0223  -1.0020  -0.9881  -0.9627  -0.9601  -0.9505  -0.9388
 -0.8963  -0.8671  -0.8520  -0.8078  -0.7973  -0.7874  -0.7871  -0.7647
 -0.7550  -0.7342  -0.7246  -0.7091  -0.7018  -0.6848  -0.6834  -0.6802
 -0.6735  -0.6594  -0.6576  -0.6527  -0.6306  -0.6201  -0.6174  -0.6043
 -0.5972  -0.5852  -0.5779  -0.5699  -0.5665  -0.5594  -0.5548  -0.5504
 -0.5345  -0.5305  -0.5229  -0.5168  -0.5163  -0.5100  -0.5045  -0.4948
 -0.4885  -0.4791  -0.4759  -0.4735  -0.4699  -0.4679  -0.4616  -0.4148
 -0.3961  -0.3864  -0.3582  -0.3500  -0.3217  -0.2926  -0.2551

          Ground-State Mulliken Net Atomic Charges

     Atom                 Charge (a.u.)
  ----------------------------------------
      1 C                    -0.188091
      2 C                    -0.254153
      3 S                    -0.021481
      4 C                    -0.014638
      5 H                     0.196384
      6 C                    -0.026963
      7 C                     0.242862
      8 C                     0.239888
      9 C                    -0.046535
     10 C                    -0.026252
     11 O                    -0.333048
     12 O                    -0.339874
     13 C                    -0.085949
     14 H                     0.123180
     15 H                     0.090906
     16 H                     0.094356
     17 C                    -0.087203
     18 H                     0.125154
     19 H                     0.094428
     20 H                     0.090060
     21 C                    -0.233896
     22 S                    -0.010625
     23 C                    -0.030550
     24 H                     0.201798
     25 H                     0.206503
     26 C                    -0.014511
     27 S                     0.098436
     28 C                    -0.187700
     29 C                     0.013796
     30 C                    -0.110511
     31 S                     0.007306
     32 C                    -0.152030
     33 C                     0.392408
     34 F                    -0.207254
     35 C                     0.444466
     36 O                    -0.461061
     37 O                    -0.300518
     38 C                    -0.058656
     39 H                     0.121312
     40 H                     0.095005
     41 H                     0.095060
     42 H                     0.218192
  ----------------------------------------
  Sum of atomic charges =     0.000000

                    Cartesian Multipole Moments
 -----------------------------------------------------------------
    Charge (ESU x 10^10)
                 0.0000
    Dipole Moment (Debye)
         X       0.1914      Y       0.8551      Z       2.8802
       Tot       3.0105
    Quadrupole Moments (Debye-Ang)
        XX    -193.1781     XY      -0.6206     YY    -159.0509
        XZ      12.2291     YZ      -6.0388     ZZ    -190.3754

 Total job time:  338.45s(wall), 12206.26s(cpu)
        *  Thank you very much for using Q-Chem.  Have a nice day.  *
