 Q-Chem 5.4, Q-Chem, Inc., Pleasanton, CA (2021)
 Q-Chem 5.4.0 for Intel X86 EM64T Linux

User input:
--------------------------------------------------------------
$molecule
0 1
C	0.147685	-8.517702	-0.284919
C	-0.212552	-7.641575	0.728574
S	0.661757	-7.638634	-1.745304
C	-0.083761	-6.264785	0.374824
H	-0.565513	-7.966081	1.715621
C	0.405665	-6.072714	-0.965104
C	0.574617	-4.787049	-1.502136
C	-0.413763	-5.162801	1.214687
C	-0.248748	-3.874817	0.675870
C	0.243888	-3.683952	-0.664513
O	-0.838511	-5.499772	2.464209
O	1.000176	-4.459055	-2.757750
C	1.893778	-5.329063	-3.441858
H	2.284868	-4.755694	-4.303826
H	1.383341	-6.238095	-3.828743
H	2.741817	-5.637262	-2.792824
C	-1.586168	-4.572261	3.241222
H	-1.974033	-5.139743	4.108274
H	-2.441448	-4.153131	2.668916
H	-0.954660	-3.739531	3.620041
C	0.369302	-2.306654	-1.015668
S	-0.517367	-2.306501	1.453394
C	0.000000	-1.435185	0.000000
H	0.724300	-1.978138	-2.000559
H	0.145124	-9.614033	-0.288311
C	0.000000	0.000000	0.000000
S	0.693394	0.581209	1.507541
C	1.897536	1.592607	0.718873
C	0.693330	0.580791	-1.067872
C	1.756758	1.476132	-0.686410
S	0.508573	0.422041	-2.805516
C	1.846879	1.552232	-3.054530
C	2.387897	2.009402	-1.862551
F	3.408741	2.872264	-1.819088
C	2.191300	1.838768	-4.456084
O	1.606694	1.337806	-5.406510
O	3.221062	2.712584	-4.569225
C	3.603677	3.026817	-5.916207
H	4.442623	3.739898	-5.833064
H	2.758956	3.483875	-6.470168
H	3.921969	2.114070	-6.459293
H	2.604650	2.187790	1.306486
$end

$rem
JOBTYPE		SP
EXCHANGE	HF
CORRELATION	pRIMP2
BASIS		cc-pvtz
METHOD		rimp2
AUX_BASIS	rimp2-cc-pvtz
SOLVENT_METHOD	PCM
PURECART	11111
SYMMETRY	false
MEM_TOTAL	110000
SCF_CONVERGENCE = 6
THRESH=10
GUI = 2
$end

$solvent
dielectric 4.90
$end
--------------------------------------------------------------

             Standard Nuclear Orientation (Angstroms)
    I     Atom           X                Y                Z
 ----------------------------------------------------------------
    1      C       0.1476850000    -8.5177020000    -0.2849190000
    2      C      -0.2125520000    -7.6415750000     0.7285740000
    3      S       0.6617570000    -7.6386340000    -1.7453040000
    4      C      -0.0837610000    -6.2647850000     0.3748240000
    5      H      -0.5655130000    -7.9660810000     1.7156210000
    6      C       0.4056650000    -6.0727140000    -0.9651040000
    7      C       0.5746170000    -4.7870490000    -1.5021360000
    8      C      -0.4137630000    -5.1628010000     1.2146870000
    9      C      -0.2487480000    -3.8748170000     0.6758700000
   10      C       0.2438880000    -3.6839520000    -0.6645130000
   11      O      -0.8385110000    -5.4997720000     2.4642090000
   12      O       1.0001760000    -4.4590550000    -2.7577500000
   13      C       1.8937780000    -5.3290630000    -3.4418580000
   14      H       2.2848680000    -4.7556940000    -4.3038260000
   15      H       1.3833410000    -6.2380950000    -3.8287430000
   16      H       2.7418170000    -5.6372620000    -2.7928240000
   17      C      -1.5861680000    -4.5722610000     3.2412220000
   18      H      -1.9740330000    -5.1397430000     4.1082740000
   19      H      -2.4414480000    -4.1531310000     2.6689160000
   20      H      -0.9546600000    -3.7395310000     3.6200410000
   21      C       0.3693020000    -2.3066540000    -1.0156680000
   22      S      -0.5173670000    -2.3065010000     1.4533940000
   23      C       0.0000000000    -1.4351850000     0.0000000000
   24      H       0.7243000000    -1.9781380000    -2.0005590000
   25      H       0.1451240000    -9.6140330000    -0.2883110000
   26      C       0.0000000000     0.0000000000     0.0000000000
   27      S       0.6933940000     0.5812090000     1.5075410000
   28      C       1.8975360000     1.5926070000     0.7188730000
   29      C       0.6933300000     0.5807910000    -1.0678720000
   30      C       1.7567580000     1.4761320000    -0.6864100000
   31      S       0.5085730000     0.4220410000    -2.8055160000
   32      C       1.8468790000     1.5522320000    -3.0545300000
   33      C       2.3878970000     2.0094020000    -1.8625510000
   34      F       3.4087410000     2.8722640000    -1.8190880000
   35      C       2.1913000000     1.8387680000    -4.4560840000
   36      O       1.6066940000     1.3378060000    -5.4065100000
   37      O       3.2210620000     2.7125840000    -4.5692250000
   38      C       3.6036770000     3.0268170000    -5.9162070000
   39      H       4.4426230000     3.7398980000    -5.8330640000
   40      H       2.7589560000     3.4838750000    -6.4701680000
   41      H       3.9219690000     2.1140700000    -6.4592930000
   42      H       2.6046500000     2.1877900000     1.3064860000
 ----------------------------------------------------------------

   10   -2754.2683568961      8.56e-07  Convergence criterion met
 Total energy in the final basis set =    -2754.2683568961
        RIMP2         total energy =     -2759.3310395023 a.u.

                    Orbital Energies (a.u.)
 --------------------------------------------------------------

 Alpha MOs
 -- Occupied --
-92.0161 -92.0078 -91.9840 -91.9834 -26.3461 -20.6159 -20.5910 -20.5872
-20.5624 -11.4110 -11.3865 -11.3304 -11.3170 -11.3160 -11.3107 -11.2993
-11.2970 -11.2896 -11.2895 -11.2863 -11.2836 -11.2818 -11.2812 -11.2802
-11.2752 -11.2576 -11.2529 -11.2477 -11.2390  -9.0155  -9.0076  -8.9851
 -8.9834  -6.6961  -6.6953  -6.6950  -6.6885  -6.6877  -6.6867  -6.6661
 -6.6654  -6.6645  -6.6644  -6.6638  -6.6629  -1.6631  -1.4684  -1.4149
 -1.4100  -1.3712  -1.2316  -1.1906  -1.1646  -1.1399  -1.0853  -1.0486
 -1.0451  -1.0273  -0.9973  -0.9876  -0.9657  -0.9580  -0.9486  -0.9396
 -0.8935  -0.8717  -0.8461  -0.8112  -0.7985  -0.7875  -0.7829  -0.7619
 -0.7562  -0.7311  -0.7279  -0.7135  -0.7000  -0.6868  -0.6827  -0.6805
 -0.6750  -0.6602  -0.6572  -0.6500  -0.6294  -0.6174  -0.6158  -0.6057
 -0.6016  -0.5819  -0.5769  -0.5703  -0.5647  -0.5603  -0.5574  -0.5443
 -0.5330  -0.5302  -0.5219  -0.5161  -0.5140  -0.5089  -0.5053  -0.4955
 -0.4871  -0.4821  -0.4770  -0.4743  -0.4685  -0.4617  -0.4569  -0.4229
 -0.3920  -0.3817  -0.3611  -0.3481  -0.3275  -0.2895  -0.2469

          Ground-State Mulliken Net Atomic Charges

     Atom                 Charge (a.u.)
  ----------------------------------------
      1 C                    -0.197940
      2 C                    -0.253746
      3 S                    -0.027318
      4 C                    -0.023369
      5 H                     0.195072
      6 C                    -0.024264
      7 C                     0.233326
      8 C                     0.247458
      9 C                    -0.046896
     10 C                    -0.017572
     11 O                    -0.333622
     12 O                    -0.342026
     13 C                    -0.086150
     14 H                     0.122124
     15 H                     0.090666
     16 H                     0.092297
     17 C                    -0.087475
     18 H                     0.125277
     19 H                     0.094758
     20 H                     0.088822
     21 C                    -0.259385
     22 S                    -0.048882
     23 C                     0.002822
     24 H                     0.193162
     25 H                     0.204722
     26 C                    -0.104213
     27 S                     0.120286
     28 C                    -0.145642
     29 C                     0.030148
     30 C                    -0.099381
     31 S                     0.058170
     32 C                    -0.158284
     33 C                     0.399222
     34 F                    -0.204772
     35 C                     0.448574
     36 O                    -0.461232
     37 O                    -0.301046
     38 C                    -0.058165
     39 H                     0.121611
     40 H                     0.095418
     41 H                     0.095276
     42 H                     0.222170
  ----------------------------------------
  Sum of atomic charges =     0.000000

                    Cartesian Multipole Moments
 -----------------------------------------------------------------
    Charge (ESU x 10^10)
                 0.0000
    Dipole Moment (Debye)
         X       3.1998      Y       2.3885      Z       3.0353
       Tot       5.0157
    Quadrupole Moments (Debye-Ang)
        XX    -184.0457     XY       8.0001     YY    -177.9341
        XZ     -16.7553     YZ      -5.9966     ZZ    -187.7006

 Total job time:  299.55s(wall), 8709.48s(cpu)
        *  Thank you very much for using Q-Chem.  Have a nice day.  *
