 Q-Chem 5.4, Q-Chem, Inc., Pleasanton, CA (2021)
 Q-Chem 5.4.0 for Intel X86 EM64T Linux

User input:
--------------------------------------------------------------
$molecule
0 1
C	-0.254945	-8.517702	-0.194917
C	0.680596	-7.641575	0.335839
S	-1.603876	-7.638634	-0.954772
C	0.354585	-6.264785	0.147576
H	1.591356	-7.966081	0.854836
C	-0.879999	-6.072714	-0.567090
C	-1.379534	-4.787049	-0.826731
C	1.124384	-5.162801	0.618405
C	0.622407	-3.874817	0.362333
C	-0.612067	-3.683952	-0.355575
O	2.281166	-5.499772	1.253677
O	-2.542174	-4.459055	-1.463859
C	-3.060718	-5.329063	-2.462679
H	-3.841678	-4.755694	-2.997507
H	-3.530361	-6.238095	-2.027179
H	-2.274283	-5.637262	-3.185132
C	2.916545	-4.572261	2.124902
H	3.703073	-5.139743	2.657438
H	2.204417	-4.153131	2.867810
H	3.399269	-3.739531	1.568770
C	-0.936109	-2.306654	-0.540061
S	1.341474	-2.306501	0.761887
C	-0.000000	-1.435185	-0.000000
H	-1.844392	-1.978138	-1.060690
H	-0.258730	-9.614033	-0.192984
C	0.000000	0.000000	0.000000
S	0.783786	0.451972	1.507541
C	2.145261	1.238908	0.718873
C	0.783650	0.451572	-1.067872
C	1.986396	1.148648	-0.686410
S	0.574133	0.327317	-2.805516
C	2.088363	1.207943	-3.054530
C	2.700548	1.564221	-1.862551
F	3.855718	2.236706	-1.819088
C	2.477307	1.430318	-4.456084
O	1.814592	1.038482	-5.406510
O	3.643162	2.112042	-4.569225
C	4.074530	2.355061	-5.916207
H	5.024556	2.911627	-5.833064
H	3.322010	2.951860	-6.470168
H	4.229490	1.400910	-6.459293
H	2.944986	1.702260	1.306486
$end

$rem
JOBTYPE		SP
EXCHANGE	HF
CORRELATION	pRIMP2
BASIS		cc-pvtz
METHOD		rimp2
AUX_BASIS	rimp2-cc-pvtz
SOLVENT_METHOD	PCM
PURECART	11111
SYMMETRY	false
MEM_TOTAL	110000
SCF_CONVERGENCE = 6
THRESH=10
GUI = 2
$end

$solvent
dielectric 4.90
$end
--------------------------------------------------------------

             Standard Nuclear Orientation (Angstroms)
    I     Atom           X                Y                Z
 ----------------------------------------------------------------
    1      C      -0.2549450000    -8.5177020000    -0.1949170000
    2      C       0.6805960000    -7.6415750000     0.3358390000
    3      S      -1.6038760000    -7.6386340000    -0.9547720000
    4      C       0.3545850000    -6.2647850000     0.1475760000
    5      H       1.5913560000    -7.9660810000     0.8548360000
    6      C      -0.8799990000    -6.0727140000    -0.5670900000
    7      C      -1.3795340000    -4.7870490000    -0.8267310000
    8      C       1.1243840000    -5.1628010000     0.6184050000
    9      C       0.6224070000    -3.8748170000     0.3623330000
   10      C      -0.6120670000    -3.6839520000    -0.3555750000
   11      O       2.2811660000    -5.4997720000     1.2536770000
   12      O      -2.5421740000    -4.4590550000    -1.4638590000
   13      C      -3.0607180000    -5.3290630000    -2.4626790000
   14      H      -3.8416780000    -4.7556940000    -2.9975070000
   15      H      -3.5303610000    -6.2380950000    -2.0271790000
   16      H      -2.2742830000    -5.6372620000    -3.1851320000
   17      C       2.9165450000    -4.5722610000     2.1249020000
   18      H       3.7030730000    -5.1397430000     2.6574380000
   19      H       2.2044170000    -4.1531310000     2.8678100000
   20      H       3.3992690000    -3.7395310000     1.5687700000
   21      C      -0.9361090000    -2.3066540000    -0.5400610000
   22      S       1.3414740000    -2.3065010000     0.7618870000
   23      C       0.0000000000    -1.4351850000     0.0000000000
   24      H      -1.8443920000    -1.9781380000    -1.0606900000
   25      H      -0.2587300000    -9.6140330000    -0.1929840000
   26      C       0.0000000000     0.0000000000     0.0000000000
   27      S       0.7837860000     0.4519720000     1.5075410000
   28      C       2.1452610000     1.2389080000     0.7188730000
   29      C       0.7836500000     0.4515720000    -1.0678720000
   30      C       1.9863960000     1.1486480000    -0.6864100000
   31      S       0.5741330000     0.3273170000    -2.8055160000
   32      C       2.0883630000     1.2079430000    -3.0545300000
   33      C       2.7005480000     1.5642210000    -1.8625510000
   34      F       3.8557180000     2.2367060000    -1.8190880000
   35      C       2.4773070000     1.4303180000    -4.4560840000
   36      O       1.8145920000     1.0384820000    -5.4065100000
   37      O       3.6431620000     2.1120420000    -4.5692250000
   38      C       4.0745300000     2.3550610000    -5.9162070000
   39      H       5.0245560000     2.9116270000    -5.8330640000
   40      H       3.3220100000     2.9518600000    -6.4701680000
   41      H       4.2294900000     1.4009100000    -6.4592930000
   42      H       2.9449860000     1.7022600000     1.3064860000
 ----------------------------------------------------------------

   10   -2754.2461883514      8.32e-07  Convergence criterion met
 Total energy in the final basis set =    -2754.2461883514
        RIMP2         total energy =     -2759.3113135100 a.u.

                    Orbital Energies (a.u.)
 --------------------------------------------------------------

 Alpha MOs
 -- Occupied --
-92.0136 -92.0099 -91.9829 -91.9826 -26.3465 -20.6155 -20.5906 -20.5867
-20.5619 -11.4106 -11.3874 -11.3364 -11.3236 -11.3159 -11.3100 -11.2985
-11.2914 -11.2894 -11.2886 -11.2864 -11.2833 -11.2803 -11.2777 -11.2751
-11.2692 -11.2552 -11.2526 -11.2474 -11.2377  -9.0135  -9.0094  -8.9837
 -8.9829  -6.6940  -6.6931  -6.6930  -6.6903  -6.6896  -6.6886  -6.6646
 -6.6638  -6.6638  -6.6632  -6.6629  -6.6624  -1.6635  -1.4681  -1.4145
 -1.4097  -1.3708  -1.2353  -1.1894  -1.1651  -1.1398  -1.0840  -1.0472
 -1.0458  -1.0274  -0.9969  -0.9867  -0.9654  -0.9582  -0.9483  -0.9382
 -0.8927  -0.8723  -0.8438  -0.8129  -0.7964  -0.7841  -0.7832  -0.7623
 -0.7560  -0.7299  -0.7282  -0.7137  -0.6991  -0.6864  -0.6832  -0.6781
 -0.6748  -0.6607  -0.6568  -0.6497  -0.6289  -0.6169  -0.6151  -0.6087
 -0.5992  -0.5913  -0.5762  -0.5707  -0.5635  -0.5627  -0.5525  -0.5328
 -0.5324  -0.5304  -0.5196  -0.5154  -0.5127  -0.5115  -0.5025  -0.4913
 -0.4869  -0.4856  -0.4762  -0.4747  -0.4722  -0.4593  -0.4540  -0.4101
 -0.3969  -0.3804  -0.3536  -0.3503  -0.3166  -0.2977  -0.2514

          Ground-State Mulliken Net Atomic Charges

     Atom                 Charge (a.u.)
  ----------------------------------------
      1 C                    -0.197720
      2 C                    -0.253557
      3 S                    -0.027844
      4 C                    -0.024258
      5 H                     0.194888
      6 C                    -0.025186
      7 C                     0.231815
      8 C                     0.241995
      9 C                    -0.053674
     10 C                    -0.008404
     11 O                    -0.333722
     12 O                    -0.341131
     13 C                    -0.085641
     14 H                     0.121364
     15 H                     0.089937
     16 H                     0.092804
     17 C                    -0.086708
     18 H                     0.124860
     19 H                     0.093647
     20 H                     0.088345
     21 C                    -0.281056
     22 S                    -0.028007
     23 C                    -0.015916
     24 H                     0.191999
     25 H                     0.204592
     26 C                    -0.149616
     27 S                     0.116620
     28 C                    -0.123452
     29 C                     0.101878
     30 C                    -0.113614
     31 S                     0.058591
     32 C                    -0.152974
     33 C                     0.391943
     34 F                    -0.203925
     35 C                     0.449251
     36 O                    -0.462227
     37 O                    -0.301377
     38 C                    -0.058129
     39 H                     0.121468
     40 H                     0.095260
     41 H                     0.095403
     42 H                     0.221481
  ----------------------------------------
  Sum of atomic charges =     0.000000

                    Cartesian Multipole Moments
 -----------------------------------------------------------------
    Charge (ESU x 10^10)
                -0.0000
    Dipole Moment (Debye)
         X       4.2912      Y       2.0943      Z       2.6085
       Tot       5.4410
    Quadrupole Moments (Debye-Ang)
        XX    -175.8751     XY       6.6190     YY    -181.7502
        XZ       6.0175     YZ      -2.9473     ZZ    -192.2807

 Total job time:  284.40s(wall), 9528.42s(cpu)
        *  Thank you very much for using Q-Chem.  Have a nice day.  *
