 Q-Chem 5.4, Q-Chem, Inc., Pleasanton, CA (2021)
 Q-Chem 5.4.0 for Intel X86 EM64T Linux

User input:
--------------------------------------------------------------
$molecule
0 1
C	0.172904	-8.517702	0.270358
C	-0.524688	-7.641575	-0.548363
S	1.180599	-7.638634	1.445750
C	-0.282727	-6.264785	-0.259951
H	-1.203014	-7.966081	-1.347559
C	0.632972	-6.072714	0.833868
C	1.013580	-4.787049	1.248701
C	-0.845068	-5.162801	-0.965673
C	-0.460946	-3.874817	-0.553357
C	0.453541	-3.683952	0.543470
O	-1.714812	-5.499772	-1.958276
O	1.888193	-4.459055	2.245053
C	2.033848	-5.329063	3.360989
H	2.584788	-4.755694	4.130667
H	2.624118	-6.238095	3.112380
H	1.047748	-5.637262	3.770895
C	-2.013896	-4.572261	-2.994272
H	-2.570853	-5.139743	-3.763700
H	-1.090625	-4.153131	-3.448815
H	-2.657717	-3.739531	-2.636780
C	0.694943	-2.306654	0.827659
S	-0.999993	-2.306501	-1.174750
C	0.000000	-1.435185	0.000000
H	1.370385	-1.978138	1.627541
H	0.177122	-9.614033	0.269836
C	0.000000	0.000000	0.000000
S	0.000474	0.904764	1.507541
C	-0.000295	2.477305	0.718873
C	0.000752	0.904447	-1.067872
C	-0.001560	2.294593	-0.686410
S	0.003602	0.660872	-2.805516
C	-0.001928	2.412546	-3.054530
C	-0.004381	3.120854	-1.862551
F	-0.009185	4.457503	-1.819088
C	-0.000038	2.860570	-4.456084
O	0.007944	2.090724	-5.406510
O	-0.007501	4.211092	-4.569225
C	-0.002278	4.706177	-5.916207
H	-0.009265	5.807207	-5.833064
H	-0.895381	4.352875	-6.470168
H	0.901521	4.363301	-6.459293
H	-0.001708	3.401562	1.306486
$end

$rem
JOBTYPE		SP
EXCHANGE	HF
CORRELATION	pRIMP2
BASIS		cc-pvtz
METHOD		rimp2
AUX_BASIS	rimp2-cc-pvtz
SOLVENT_METHOD	PCM
PURECART	11111
SYMMETRY	false
MEM_TOTAL	110000
SCF_CONVERGENCE = 6
THRESH=10
GUI = 2
$end

$solvent
dielectric 4.90
$end
--------------------------------------------------------------

             Standard Nuclear Orientation (Angstroms)
    I     Atom           X                Y                Z
 ----------------------------------------------------------------
    1      C       0.1729040000    -8.5177020000     0.2703580000
    2      C      -0.5246880000    -7.6415750000    -0.5483630000
    3      S       1.1805990000    -7.6386340000     1.4457500000
    4      C      -0.2827270000    -6.2647850000    -0.2599510000
    5      H      -1.2030140000    -7.9660810000    -1.3475590000
    6      C       0.6329720000    -6.0727140000     0.8338680000
    7      C       1.0135800000    -4.7870490000     1.2487010000
    8      C      -0.8450680000    -5.1628010000    -0.9656730000
    9      C      -0.4609460000    -3.8748170000    -0.5533570000
   10      C       0.4535410000    -3.6839520000     0.5434700000
   11      O      -1.7148120000    -5.4997720000    -1.9582760000
   12      O       1.8881930000    -4.4590550000     2.2450530000
   13      C       2.0338480000    -5.3290630000     3.3609890000
   14      H       2.5847880000    -4.7556940000     4.1306670000
   15      H       2.6241180000    -6.2380950000     3.1123800000
   16      H       1.0477480000    -5.6372620000     3.7708950000
   17      C      -2.0138960000    -4.5722610000    -2.9942720000
   18      H      -2.5708530000    -5.1397430000    -3.7637000000
   19      H      -1.0906250000    -4.1531310000    -3.4488150000
   20      H      -2.6577170000    -3.7395310000    -2.6367800000
   21      C       0.6949430000    -2.3066540000     0.8276590000
   22      S      -0.9999930000    -2.3065010000    -1.1747500000
   23      C       0.0000000000    -1.4351850000     0.0000000000
   24      H       1.3703850000    -1.9781380000     1.6275410000
   25      H       0.1771220000    -9.6140330000     0.2698360000
   26      C       0.0000000000     0.0000000000     0.0000000000
   27      S       0.0004740000     0.9047640000     1.5075410000
   28      C      -0.0002950000     2.4773050000     0.7188730000
   29      C       0.0007520000     0.9044470000    -1.0678720000
   30      C      -0.0015600000     2.2945930000    -0.6864100000
   31      S       0.0036020000     0.6608720000    -2.8055160000
   32      C      -0.0019280000     2.4125460000    -3.0545300000
   33      C      -0.0043810000     3.1208540000    -1.8625510000
   34      F      -0.0091850000     4.4575030000    -1.8190880000
   35      C      -0.0000380000     2.8605700000    -4.4560840000
   36      O       0.0079440000     2.0907240000    -5.4065100000
   37      O      -0.0075010000     4.2110920000    -4.5692250000
   38      C      -0.0022780000     4.7061770000    -5.9162070000
   39      H      -0.0092650000     5.8072070000    -5.8330640000
   40      H      -0.8953810000     4.3528750000    -6.4701680000
   41      H       0.9015210000     4.3633010000    -6.4592930000
   42      H      -0.0017080000     3.4015620000     1.3064860000
 ----------------------------------------------------------------

   10   -2754.3167872515      7.29e-07  Convergence criterion met
 Total energy in the final basis set =    -2754.3167872515
        RIMP2         total energy =     -2759.3681393483 a.u.

                    Orbital Energies (a.u.)
 --------------------------------------------------------------

 Alpha MOs
 -- Occupied --
-92.0155 -91.9973 -91.9907 -91.9865 -26.3428 -20.6145 -20.5924 -20.5917
-20.5609 -11.4090 -11.3817 -11.3198 -11.3180 -11.3084 -11.3007 -11.2993
-11.2968 -11.2959 -11.2886 -11.2867 -11.2866 -11.2864 -11.2847 -11.2844
-11.2798 -11.2618 -11.2590 -11.2569 -11.2501  -9.0138  -8.9974  -8.9912
 -8.9865  -6.6946  -6.6940  -6.6935  -6.6784  -6.6776  -6.6765  -6.6721
 -6.6714  -6.6705  -6.6674  -6.6668  -6.6660  -1.6599  -1.4670  -1.4165
 -1.4145  -1.3696  -1.2210  -1.1949  -1.1659  -1.1356  -1.0855  -1.0523
 -1.0410  -1.0229  -1.0022  -0.9881  -0.9636  -0.9589  -0.9502  -0.9399
 -0.8960  -0.8672  -0.8520  -0.8133  -0.7917  -0.7873  -0.7873  -0.7653
 -0.7551  -0.7342  -0.7247  -0.7097  -0.6992  -0.6852  -0.6836  -0.6810
 -0.6736  -0.6593  -0.6576  -0.6528  -0.6307  -0.6202  -0.6170  -0.6038
 -0.5972  -0.5853  -0.5775  -0.5695  -0.5674  -0.5621  -0.5562  -0.5525
 -0.5319  -0.5299  -0.5228  -0.5178  -0.5170  -0.5099  -0.5058  -0.4947
 -0.4886  -0.4785  -0.4771  -0.4736  -0.4706  -0.4657  -0.4605  -0.4185
 -0.3963  -0.3859  -0.3588  -0.3498  -0.3238  -0.2908  -0.2535

          Ground-State Mulliken Net Atomic Charges

     Atom                 Charge (a.u.)
  ----------------------------------------
      1 C                    -0.188785
      2 C                    -0.253550
      3 S                    -0.022059
      4 C                    -0.014845
      5 H                     0.196562
      6 C                    -0.027499
      7 C                     0.241809
      8 C                     0.240972
      9 C                    -0.043254
     10 C                    -0.023528
     11 O                    -0.333136
     12 O                    -0.340341
     13 C                    -0.085881
     14 H                     0.122470
     15 H                     0.091438
     16 H                     0.093905
     17 C                    -0.088188
     18 H                     0.125182
     19 H                     0.095958
     20 H                     0.090031
     21 C                    -0.253520
     22 S                    -0.013627
     23 C                    -0.002766
     24 H                     0.195826
     25 H                     0.206418
     26 C                     0.008310
     27 S                     0.099608
     28 C                    -0.188392
     29 C                    -0.010280
     30 C                    -0.113269
     31 S                     0.006492
     32 C                    -0.155588
     33 C                     0.397509
     34 F                    -0.207202
     35 C                     0.444171
     36 O                    -0.461045
     37 O                    -0.300541
     38 C                    -0.058688
     39 H                     0.121342
     40 H                     0.095011
     41 H                     0.095068
     42 H                     0.217904
  ----------------------------------------
  Sum of atomic charges =     0.000000

                    Cartesian Multipole Moments
 -----------------------------------------------------------------
    Charge (ESU x 10^10)
                -0.0000
    Dipole Moment (Debye)
         X      -0.2978      Y       0.9144      Z       3.0636
       Tot       3.2110
    Quadrupole Moments (Debye-Ang)
        XX    -197.1415     XY       1.0583     YY    -159.4028
        XZ      10.2772     YZ      -8.3166     ZZ    -186.2968

 Total job time:  320.15s(wall), 10048.07s(cpu)
        *  Thank you very much for using Q-Chem.  Have a nice day.  *
