 Q-Chem 5.4, Q-Chem, Inc., Pleasanton, CA (2021)
 Q-Chem 5.4.0 for Intel X86 EM64T Linux

User input:
--------------------------------------------------------------
$molecule
0 1
C	-0.254945	-8.517702	-0.194917
C	0.680596	-7.641575	0.335839
S	-1.603876	-7.638634	-0.954772
C	0.354585	-6.264785	0.147576
H	1.591356	-7.966081	0.854836
C	-0.879999	-6.072714	-0.567090
C	-1.379534	-4.787049	-0.826731
C	1.124384	-5.162801	0.618405
C	0.622407	-3.874817	0.362333
C	-0.612067	-3.683952	-0.355575
O	2.281166	-5.499772	1.253677
O	-2.542174	-4.459055	-1.463859
C	-3.060718	-5.329063	-2.462679
H	-3.841678	-4.755694	-2.997507
H	-3.530361	-6.238095	-2.027179
H	-2.274283	-5.637262	-3.185132
C	2.916545	-4.572261	2.124902
H	3.703073	-5.139743	2.657438
H	2.204417	-4.153131	2.867810
H	3.399269	-3.739531	1.568770
C	-0.936109	-2.306654	-0.540061
S	1.341474	-2.306501	0.761887
C	0.000000	-1.435185	0.000000
H	-1.844392	-1.978138	-1.060690
H	-0.258730	-9.614033	-0.192984
C	0.000000	0.000000	0.000000
S	0.693394	0.581209	1.507541
C	1.897536	1.592607	0.718873
C	0.693330	0.580791	-1.067872
C	1.756758	1.476132	-0.686410
S	0.508573	0.422041	-2.805516
C	1.846879	1.552232	-3.054530
C	2.387897	2.009402	-1.862551
F	3.408741	2.872264	-1.819088
C	2.191300	1.838768	-4.456084
O	1.606694	1.337806	-5.406510
O	3.221062	2.712584	-4.569225
C	3.603677	3.026817	-5.916207
H	4.442623	3.739898	-5.833064
H	2.758956	3.483875	-6.470168
H	3.921969	2.114070	-6.459293
H	2.604650	2.187790	1.306486
$end

$rem
JOBTYPE		SP
EXCHANGE	HF
CORRELATION	pRIMP2
BASIS		cc-pvtz
METHOD		rimp2
AUX_BASIS	rimp2-cc-pvtz
SOLVENT_METHOD	PCM
PURECART	11111
SYMMETRY	false
MEM_TOTAL	110000
SCF_CONVERGENCE = 6
THRESH=10
GUI = 2
$end

$solvent
dielectric 4.90
$end
--------------------------------------------------------------

             Standard Nuclear Orientation (Angstroms)
    I     Atom           X                Y                Z
 ----------------------------------------------------------------
    1      C      -0.2549450000    -8.5177020000    -0.1949170000
    2      C       0.6805960000    -7.6415750000     0.3358390000
    3      S      -1.6038760000    -7.6386340000    -0.9547720000
    4      C       0.3545850000    -6.2647850000     0.1475760000
    5      H       1.5913560000    -7.9660810000     0.8548360000
    6      C      -0.8799990000    -6.0727140000    -0.5670900000
    7      C      -1.3795340000    -4.7870490000    -0.8267310000
    8      C       1.1243840000    -5.1628010000     0.6184050000
    9      C       0.6224070000    -3.8748170000     0.3623330000
   10      C      -0.6120670000    -3.6839520000    -0.3555750000
   11      O       2.2811660000    -5.4997720000     1.2536770000
   12      O      -2.5421740000    -4.4590550000    -1.4638590000
   13      C      -3.0607180000    -5.3290630000    -2.4626790000
   14      H      -3.8416780000    -4.7556940000    -2.9975070000
   15      H      -3.5303610000    -6.2380950000    -2.0271790000
   16      H      -2.2742830000    -5.6372620000    -3.1851320000
   17      C       2.9165450000    -4.5722610000     2.1249020000
   18      H       3.7030730000    -5.1397430000     2.6574380000
   19      H       2.2044170000    -4.1531310000     2.8678100000
   20      H       3.3992690000    -3.7395310000     1.5687700000
   21      C      -0.9361090000    -2.3066540000    -0.5400610000
   22      S       1.3414740000    -2.3065010000     0.7618870000
   23      C       0.0000000000    -1.4351850000     0.0000000000
   24      H      -1.8443920000    -1.9781380000    -1.0606900000
   25      H      -0.2587300000    -9.6140330000    -0.1929840000
   26      C       0.0000000000     0.0000000000     0.0000000000
   27      S       0.6933940000     0.5812090000     1.5075410000
   28      C       1.8975360000     1.5926070000     0.7188730000
   29      C       0.6933300000     0.5807910000    -1.0678720000
   30      C       1.7567580000     1.4761320000    -0.6864100000
   31      S       0.5085730000     0.4220410000    -2.8055160000
   32      C       1.8468790000     1.5522320000    -3.0545300000
   33      C       2.3878970000     2.0094020000    -1.8625510000
   34      F       3.4087410000     2.8722640000    -1.8190880000
   35      C       2.1913000000     1.8387680000    -4.4560840000
   36      O       1.6066940000     1.3378060000    -5.4065100000
   37      O       3.2210620000     2.7125840000    -4.5692250000
   38      C       3.6036770000     3.0268170000    -5.9162070000
   39      H       4.4426230000     3.7398980000    -5.8330640000
   40      H       2.7589560000     3.4838750000    -6.4701680000
   41      H       3.9219690000     2.1140700000    -6.4592930000
   42      H       2.6046500000     2.1877900000     1.3064860000
 ----------------------------------------------------------------

   10   -2754.2690880905      8.41e-07  Convergence criterion met
 Total energy in the final basis set =    -2754.2690880905
        RIMP2         total energy =     -2759.3296483588 a.u.

                    Orbital Energies (a.u.)
 --------------------------------------------------------------

 Alpha MOs
 -- Occupied --
-92.0136 -92.0060 -91.9852 -91.9838 -26.3454 -20.6152 -20.5911 -20.5880
-20.5616 -11.4101 -11.3857 -11.3283 -11.3169 -11.3164 -11.3122 -11.2979
-11.2914 -11.2892 -11.2873 -11.2866 -11.2840 -11.2813 -11.2802 -11.2778
-11.2764 -11.2566 -11.2544 -11.2481 -11.2427  -9.0130  -9.0057  -8.9860
 -8.9838  -6.6937  -6.6928  -6.6926  -6.6866  -6.6859  -6.6848  -6.6669
 -6.6661  -6.6652  -6.6648  -6.6641  -6.6633  -1.6624  -1.4677  -1.4151
 -1.4109  -1.3704  -1.2299  -1.1907  -1.1644  -1.1388  -1.0836  -1.0485
 -1.0444  -1.0257  -0.9981  -0.9865  -0.9642  -0.9589  -0.9489  -0.9383
 -0.8936  -0.8705  -0.8458  -0.8115  -0.7956  -0.7852  -0.7842  -0.7627
 -0.7557  -0.7308  -0.7271  -0.7122  -0.6997  -0.6859  -0.6823  -0.6793
 -0.6744  -0.6592  -0.6575  -0.6505  -0.6288  -0.6177  -0.6157  -0.6068
 -0.5995  -0.5899  -0.5756  -0.5703  -0.5639  -0.5626  -0.5533  -0.5357
 -0.5331  -0.5311  -0.5201  -0.5147  -0.5132  -0.5118  -0.5030  -0.4922
 -0.4873  -0.4841  -0.4752  -0.4742  -0.4710  -0.4601  -0.4596  -0.4108
 -0.3960  -0.3821  -0.3538  -0.3516  -0.3155  -0.2982  -0.2530

          Ground-State Mulliken Net Atomic Charges

     Atom                 Charge (a.u.)
  ----------------------------------------
      1 C                    -0.195036
      2 C                    -0.253926
      3 S                    -0.026150
      4 C                    -0.020850
      5 H                     0.195275
      6 C                    -0.025390
      7 C                     0.233107
      8 C                     0.241328
      9 C                    -0.049741
     10 C                    -0.014775
     11 O                    -0.333548
     12 O                    -0.340853
     13 C                    -0.085684
     14 H                     0.121761
     15 H                     0.090196
     16 H                     0.093271
     17 C                    -0.086729
     18 H                     0.124875
     19 H                     0.093876
     20 H                     0.088881
     21 C                    -0.263138
     22 S                    -0.018136
     23 C                    -0.031214
     24 H                     0.194657
     25 H                     0.205101
     26 C                    -0.098488
     27 S                     0.106700
     28 C                    -0.139798
     29 C                     0.063998
     30 C                    -0.104674
     31 S                     0.042718
     32 C                    -0.151896
     33 C                     0.390223
     34 F                    -0.204660
     35 C                     0.448302
     36 O                    -0.461884
     37 O                    -0.301263
     38 C                    -0.058238
     39 H                     0.121375
     40 H                     0.095180
     41 H                     0.095312
     42 H                     0.219934
  ----------------------------------------
  Sum of atomic charges =     0.000000

                    Cartesian Multipole Moments
 -----------------------------------------------------------------
    Charge (ESU x 10^10)
                 0.0000
    Dipole Moment (Debye)
         X       3.4139      Y       1.9105      Z       2.6732
       Tot       4.7382
    Quadrupole Moments (Debye-Ang)
        XX    -179.0787     XY       7.5286     YY    -175.9410
        XZ       6.8184     YZ      -3.7957     ZZ    -193.1064

 Total job time:  567.71s(wall), 25446.55s(cpu)
        *  Thank you very much for using Q-Chem.  Have a nice day.  *
