 Q-Chem 5.4, Q-Chem, Inc., Pleasanton, CA (2021)
 Q-Chem 5.4.0 for Intel X86 EM64T Linux

User input:
--------------------------------------------------------------
$molecule
0 1
C	0.041330	-8.517702	-0.318247
C	0.049453	-7.641575	0.757333
S	0.024919	-7.638634	-1.866383
C	0.049488	-6.264785	0.380867
H	0.055368	-7.966081	1.805573
C	0.051115	-6.072714	-1.045647
C	0.026203	-4.787049	-1.608077
C	0.026637	-5.162801	1.282948
C	-0.002586	-3.874817	0.720187
C	0.001903	-3.683952	-0.707853
O	0.054867	-5.499772	2.602386
O	-0.003348	-4.459055	-2.933517
C	0.602384	-5.329063	-3.881999
H	0.675079	-4.755694	-4.825744
H	-0.009592	-6.238095	-4.070972
H	1.621263	-5.637262	-3.562152
C	-0.381947	-4.572261	3.588253
H	-0.449872	-5.139743	4.535674
H	-1.381388	-4.153131	3.342986
H	0.341040	-3.739531	3.728239
C	-0.000348	-2.306654	-1.080725
S	0.010924	-2.306501	1.542694
C	-0.000000	-1.435185	-0.000000
H	-0.003612	-1.978138	-2.127635
H	0.037764	-9.614033	-0.320559
C	0.000000	0.000000	0.000000
S	0.309893	0.850039	1.507541
C	0.847011	2.328006	0.718873
C	0.310046	0.849645	-1.067872
C	0.783331	2.156746	-0.686410
S	0.229416	0.619785	-2.805516
C	0.823328	2.267711	-3.054530
C	1.063278	2.934142	-1.862551
F	1.515925	4.191824	-1.819088
C	0.978337	2.688069	-4.456084
O	0.722535	1.961921	-5.406510
O	1.433229	3.959697	-4.569225
C	1.607467	4.423139	-5.916207
H	1.977475	5.460158	-5.833064
H	0.647388	4.396602	-6.470168
H	2.339490	3.791823	-6.459293
H	1.161798	3.197007	1.306486
$end

$rem
JOBTYPE		SP
EXCHANGE	HF
CORRELATION	pRIMP2
BASIS		cc-pvtz
METHOD		rimp2
AUX_BASIS	rimp2-cc-pvtz
SOLVENT_METHOD	PCM
PURECART	11111
SYMMETRY	false
MEM_TOTAL	110000
SCF_CONVERGENCE = 6
THRESH=10
GUI = 2
$end

$solvent
dielectric 4.90
$end
--------------------------------------------------------------

             Standard Nuclear Orientation (Angstroms)
    I     Atom           X                Y                Z
 ----------------------------------------------------------------
    1      C       0.0413300000    -8.5177020000    -0.3182470000
    2      C       0.0494530000    -7.6415750000     0.7573330000
    3      S       0.0249190000    -7.6386340000    -1.8663830000
    4      C       0.0494880000    -6.2647850000     0.3808670000
    5      H       0.0553680000    -7.9660810000     1.8055730000
    6      C       0.0511150000    -6.0727140000    -1.0456470000
    7      C       0.0262030000    -4.7870490000    -1.6080770000
    8      C       0.0266370000    -5.1628010000     1.2829480000
    9      C      -0.0025860000    -3.8748170000     0.7201870000
   10      C       0.0019030000    -3.6839520000    -0.7078530000
   11      O       0.0548670000    -5.4997720000     2.6023860000
   12      O      -0.0033480000    -4.4590550000    -2.9335170000
   13      C       0.6023840000    -5.3290630000    -3.8819990000
   14      H       0.6750790000    -4.7556940000    -4.8257440000
   15      H      -0.0095920000    -6.2380950000    -4.0709720000
   16      H       1.6212630000    -5.6372620000    -3.5621520000
   17      C      -0.3819470000    -4.5722610000     3.5882530000
   18      H      -0.4498720000    -5.1397430000     4.5356740000
   19      H      -1.3813880000    -4.1531310000     3.3429860000
   20      H       0.3410400000    -3.7395310000     3.7282390000
   21      C      -0.0003480000    -2.3066540000    -1.0807250000
   22      S       0.0109240000    -2.3065010000     1.5426940000
   23      C       0.0000000000    -1.4351850000     0.0000000000
   24      H      -0.0036120000    -1.9781380000    -2.1276350000
   25      H       0.0377640000    -9.6140330000    -0.3205590000
   26      C       0.0000000000     0.0000000000     0.0000000000
   27      S       0.3098930000     0.8500390000     1.5075410000
   28      C       0.8470110000     2.3280060000     0.7188730000
   29      C       0.3100460000     0.8496450000    -1.0678720000
   30      C       0.7833310000     2.1567460000    -0.6864100000
   31      S       0.2294160000     0.6197850000    -2.8055160000
   32      C       0.8233280000     2.2677110000    -3.0545300000
   33      C       1.0632780000     2.9341420000    -1.8625510000
   34      F       1.5159250000     4.1918240000    -1.8190880000
   35      C       0.9783370000     2.6880690000    -4.4560840000
   36      O       0.7225350000     1.9619210000    -5.4065100000
   37      O       1.4332290000     3.9596970000    -4.5692250000
   38      C       1.6074670000     4.4231390000    -5.9162070000
   39      H       1.9774750000     5.4601580000    -5.8330640000
   40      H       0.6473880000     4.3966020000    -6.4701680000
   41      H       2.3394900000     3.7918230000    -6.4592930000
   42      H       1.1617980000     3.1970070000     1.3064860000
 ----------------------------------------------------------------

   10   -2754.3088162430      7.38e-07  Convergence criterion met
 Total energy in the final basis set =    -2754.3088162430
        RIMP2         total energy =     -2759.3636459401 a.u.

                    Orbital Energies (a.u.)
 --------------------------------------------------------------

 Alpha MOs
 -- Occupied --
-92.0164 -92.0014 -91.9905 -91.9859 -26.3442 -20.6151 -20.5928 -20.5903
-20.5616 -11.4098 -11.3838 -11.3197 -11.3163 -11.3135 -11.3024 -11.2993
-11.2982 -11.2976 -11.2890 -11.2876 -11.2867 -11.2860 -11.2850 -11.2838
-11.2787 -11.2618 -11.2578 -11.2533 -11.2496  -9.0152  -9.0013  -8.9912
 -8.9858  -6.6960  -6.6954  -6.6949  -6.6823  -6.6815  -6.6805  -6.6722
 -6.6715  -6.6705  -6.6668  -6.6662  -6.6653  -1.6612  -1.4676  -1.4168
 -1.4130  -1.3703  -1.2237  -1.1945  -1.1661  -1.1377  -1.0857  -1.0518
 -1.0428  -1.0246  -1.0014  -0.9886  -0.9646  -0.9598  -0.9503  -0.9397
 -0.8963  -0.8690  -0.8516  -0.8092  -0.7991  -0.7884  -0.7857  -0.7640
 -0.7557  -0.7341  -0.7260  -0.7108  -0.7018  -0.6861  -0.6834  -0.6814
 -0.6741  -0.6592  -0.6591  -0.6520  -0.6307  -0.6195  -0.6167  -0.6022
 -0.5992  -0.5844  -0.5799  -0.5713  -0.5648  -0.5608  -0.5568  -0.5487
 -0.5357  -0.5305  -0.5236  -0.5194  -0.5168  -0.5114  -0.5053  -0.4956
 -0.4872  -0.4816  -0.4775  -0.4744  -0.4699  -0.4645  -0.4597  -0.4278
 -0.3963  -0.3838  -0.3616  -0.3483  -0.3282  -0.2893  -0.2494

          Ground-State Mulliken Net Atomic Charges

     Atom                 Charge (a.u.)
  ----------------------------------------
      1 C                    -0.190919
      2 C                    -0.254457
      3 S                    -0.022554
      4 C                    -0.017980
      5 H                     0.196092
      6 C                    -0.026733
      7 C                     0.243950
      8 C                     0.243699
      9 C                    -0.040724
     10 C                    -0.022506
     11 O                    -0.332860
     12 O                    -0.341236
     13 C                    -0.086475
     14 H                     0.123542
     15 H                     0.091427
     16 H                     0.093615
     17 C                    -0.088848
     18 H                     0.126157
     19 H                     0.095003
     20 H                     0.089458
     21 C                    -0.233810
     22 S                    -0.042281
     23 C                    -0.019397
     24 H                     0.188167
     25 H                     0.206085
     26 C                     0.026095
     27 S                     0.087794
     28 C                    -0.187858
     29 C                     0.000544
     30 C                    -0.112444
     31 S                     0.013390
     32 C                    -0.162907
     33 C                     0.407359
     34 F                    -0.205649
     35 C                     0.444835
     36 O                    -0.461049
     37 O                    -0.300997
     38 C                    -0.058431
     39 H                     0.121510
     40 H                     0.095249
     41 H                     0.095190
     42 H                     0.220950
  ----------------------------------------
  Sum of atomic charges =     0.000000

                    Cartesian Multipole Moments
 -----------------------------------------------------------------
    Charge (ESU x 10^10)
                -0.0000
    Dipole Moment (Debye)
         X       1.2987      Y       1.4242      Z       3.0987
       Tot       3.6493
    Quadrupole Moments (Debye-Ang)
        XX    -198.9400     XY       3.9359     YY    -162.5247
        XZ      -8.2494     YZ      -7.2076     ZZ    -182.1465

 Total job time:  363.67s(wall), 12021.78s(cpu)
        *  Thank you very much for using Q-Chem.  Have a nice day.  *
