 Q-Chem 5.4, Q-Chem, Inc., Pleasanton, CA (2021)
 Q-Chem 5.4.0 for Intel X86 EM64T Linux

User input:
--------------------------------------------------------------
$molecule
0 1
C	0.123330	-8.517702	0.296276
C	-0.421494	-7.641575	-0.631143
S	0.911611	-7.638634	1.628795
C	-0.233291	-6.264785	-0.305097
H	-0.950737	-7.966081	-1.535988
C	0.478557	-6.072714	0.931114
C	0.781346	-4.787049	1.405737
C	-0.664542	-5.162801	-1.097747
C	-0.357854	-3.874817	-0.624993
C	0.352278	-3.683952	0.613970
O	-1.348709	-5.499772	-2.226300
O	1.469658	-4.459055	2.538827
C	1.419319	-5.329063	3.663102
H	1.828237	-4.755694	4.516756
H	2.043793	-6.238095	3.520769
H	0.377021	-5.637262	3.895546
C	-1.463351	-4.572261	-3.298492
H	-1.878237	-5.139743	-4.152945
H	-0.475176	-4.153131	-3.585804
H	-2.159469	-3.739531	-3.058230
C	0.540664	-2.306654	0.935761
S	-0.780808	-2.306501	-1.330550
C	-0.000000	-1.435185	-0.000000
H	1.066946	-1.978138	1.840780
H	0.127575	-9.614033	0.296494
C	0.000000	0.000000	0.000000
S	0.783786	0.451972	1.507541
C	2.145261	1.238908	0.718873
C	0.783650	0.451572	-1.067872
C	1.986396	1.148648	-0.686410
S	0.574133	0.327317	-2.805516
C	2.088363	1.207943	-3.054530
C	2.700548	1.564221	-1.862551
F	3.855718	2.236706	-1.819088
C	2.477307	1.430318	-4.456084
O	1.814592	1.038482	-5.406510
O	3.643162	2.112042	-4.569225
C	4.074530	2.355061	-5.916207
H	5.024556	2.911627	-5.833064
H	3.322010	2.951860	-6.470168
H	4.229490	1.400910	-6.459293
H	2.944986	1.702260	1.306486
$end

$rem
JOBTYPE		SP
EXCHANGE	HF
CORRELATION	pRIMP2
BASIS		cc-pvtz
METHOD		rimp2
AUX_BASIS	rimp2-cc-pvtz
SOLVENT_METHOD	PCM
PURECART	11111
SYMMETRY	false
MEM_TOTAL	110000
SCF_CONVERGENCE = 6
THRESH=10
GUI = 2
$end

$solvent
dielectric 4.90
$end
--------------------------------------------------------------

             Standard Nuclear Orientation (Angstroms)
    I     Atom           X                Y                Z
 ----------------------------------------------------------------
    1      C       0.1233300000    -8.5177020000     0.2962760000
    2      C      -0.4214940000    -7.6415750000    -0.6311430000
    3      S       0.9116110000    -7.6386340000     1.6287950000
    4      C      -0.2332910000    -6.2647850000    -0.3050970000
    5      H      -0.9507370000    -7.9660810000    -1.5359880000
    6      C       0.4785570000    -6.0727140000     0.9311140000
    7      C       0.7813460000    -4.7870490000     1.4057370000
    8      C      -0.6645420000    -5.1628010000    -1.0977470000
    9      C      -0.3578540000    -3.8748170000    -0.6249930000
   10      C       0.3522780000    -3.6839520000     0.6139700000
   11      O      -1.3487090000    -5.4997720000    -2.2263000000
   12      O       1.4696580000    -4.4590550000     2.5388270000
   13      C       1.4193190000    -5.3290630000     3.6631020000
   14      H       1.8282370000    -4.7556940000     4.5167560000
   15      H       2.0437930000    -6.2380950000     3.5207690000
   16      H       0.3770210000    -5.6372620000     3.8955460000
   17      C      -1.4633510000    -4.5722610000    -3.2984920000
   18      H      -1.8782370000    -5.1397430000    -4.1529450000
   19      H      -0.4751760000    -4.1531310000    -3.5858040000
   20      H      -2.1594690000    -3.7395310000    -3.0582300000
   21      C       0.5406640000    -2.3066540000     0.9357610000
   22      S      -0.7808080000    -2.3065010000    -1.3305500000
   23      C       0.0000000000    -1.4351850000     0.0000000000
   24      H       1.0669460000    -1.9781380000     1.8407800000
   25      H       0.1275750000    -9.6140330000     0.2964940000
   26      C       0.0000000000     0.0000000000     0.0000000000
   27      S       0.7837860000     0.4519720000     1.5075410000
   28      C       2.1452610000     1.2389080000     0.7188730000
   29      C       0.7836500000     0.4515720000    -1.0678720000
   30      C       1.9863960000     1.1486480000    -0.6864100000
   31      S       0.5741330000     0.3273170000    -2.8055160000
   32      C       2.0883630000     1.2079430000    -3.0545300000
   33      C       2.7005480000     1.5642210000    -1.8625510000
   34      F       3.8557180000     2.2367060000    -1.8190880000
   35      C       2.4773070000     1.4303180000    -4.4560840000
   36      O       1.8145920000     1.0384820000    -5.4065100000
   37      O       3.6431620000     2.1120420000    -4.5692250000
   38      C       4.0745300000     2.3550610000    -5.9162070000
   39      H       5.0245560000     2.9116270000    -5.8330640000
   40      H       3.3220100000     2.9518600000    -6.4701680000
   41      H       4.2294900000     1.4009100000    -6.4592930000
   42      H       2.9449860000     1.7022600000     1.3064860000
 ----------------------------------------------------------------

   10   -2754.2488256102      8.19e-07  Convergence criterion met
 Total energy in the final basis set =    -2754.2488256102
        RIMP2         total energy =     -2759.3136540700 a.u.

                    Orbital Energies (a.u.)
 --------------------------------------------------------------

 Alpha MOs
 -- Occupied --
-92.0137 -92.0111 -91.9824 -91.9823 -26.3469 -20.6159 -20.5901 -20.5864
-20.5624 -11.4111 -11.3878 -11.3383 -11.3260 -11.3161 -11.3082 -11.2998
-11.2988 -11.2900 -11.2897 -11.2851 -11.2838 -11.2802 -11.2777 -11.2748
-11.2736 -11.2559 -11.2507 -11.2469 -11.2340  -9.0134  -9.0107  -8.9834
 -8.9824  -6.6940  -6.6931  -6.6929  -6.6916  -6.6908  -6.6898  -6.6644
 -6.6637  -6.6634  -6.6628  -6.6628  -6.6619  -1.6639  -1.4685  -1.4139
 -1.4094  -1.3713  -1.2366  -1.1894  -1.1651  -1.1405  -1.0861  -1.0476
 -1.0454  -1.0292  -0.9966  -0.9874  -0.9672  -0.9553  -0.9473  -0.9414
 -0.8916  -0.8731  -0.8429  -0.8200  -0.7950  -0.7838  -0.7821  -0.7629
 -0.7558  -0.7294  -0.7286  -0.7139  -0.6980  -0.6869  -0.6836  -0.6791
 -0.6751  -0.6612  -0.6562  -0.6496  -0.6298  -0.6168  -0.6151  -0.6057
 -0.6036  -0.5895  -0.5792  -0.5680  -0.5649  -0.5634  -0.5525  -0.5466
 -0.5325  -0.5257  -0.5214  -0.5168  -0.5116  -0.5105  -0.5031  -0.4922
 -0.4869  -0.4812  -0.4769  -0.4736  -0.4644  -0.4611  -0.4545  -0.4235
 -0.3863  -0.3822  -0.3621  -0.3482  -0.3232  -0.2942  -0.2470

          Ground-State Mulliken Net Atomic Charges

     Atom                 Charge (a.u.)
  ----------------------------------------
      1 C                    -0.201357
      2 C                    -0.252443
      3 S                    -0.030589
      4 C                    -0.025609
      5 H                     0.194963
      6 C                    -0.020801
      7 C                     0.222564
      8 C                     0.245136
      9 C                    -0.042173
     10 C                    -0.000682
     11 O                    -0.333538
     12 O                    -0.343419
     13 C                    -0.085588
     14 H                     0.120356
     15 H                     0.090144
     16 H                     0.092460
     17 C                    -0.087684
     18 H                     0.124551
     19 H                     0.094694
     20 H                     0.089399
     21 C                    -0.319852
     22 S                    -0.042986
     23 C                     0.026028
     24 H                     0.188658
     25 H                     0.204107
     26 C                    -0.145690
     27 S                     0.109792
     28 C                    -0.115246
     29 C                     0.108832
     30 C                    -0.127289
     31 S                     0.064899
     32 C                    -0.160801
     33 C                     0.399698
     34 F                    -0.203702
     35 C                     0.449459
     36 O                    -0.462506
     37 O                    -0.301321
     38 C                    -0.058164
     39 H                     0.121658
     40 H                     0.095262
     41 H                     0.095375
     42 H                     0.223403
  ----------------------------------------
  Sum of atomic charges =     0.000000

                    Cartesian Multipole Moments
 -----------------------------------------------------------------
    Charge (ESU x 10^10)
                -0.0000
    Dipole Moment (Debye)
         X       3.3964      Y       2.5616      Z       2.0269
       Tot       4.7123
    Quadrupole Moments (Debye-Ang)
        XX    -186.4125     XY      10.1627     YY    -184.5677
        XZ       0.2043     YZ      -2.6133     ZZ    -181.6695

 Total job time:  298.76s(wall), 9775.06s(cpu)
        *  Thank you very much for using Q-Chem.  Have a nice day.  *
