 Q-Chem 5.4, Q-Chem, Inc., Pleasanton, CA (2021)
 Q-Chem 5.4.0 for Intel X86 EM64T Linux

User input:
--------------------------------------------------------------
$molecule
0 1
C	0.306235	-8.517702	0.095966
C	-0.754415	-7.641575	-0.082807
S	1.833702	-7.638634	0.348635
C	-0.383675	-6.264785	-0.017401
H	-1.787757	-7.966081	-0.259008
C	1.020885	-6.072714	0.231913
C	1.579097	-4.787049	0.305044
C	-1.268082	-5.162801	-0.196549
C	-0.708796	-3.874817	-0.127606
C	0.696769	-3.683952	0.124792
O	-2.572378	-5.499772	-0.397867
O	2.889532	-4.459055	0.506103
C	3.718420	-5.329063	1.267335
H	4.635204	-4.755694	1.502804
H	4.010790	-6.238095	0.697471
H	3.226506	-5.637262	2.215194
C	-3.467415	-4.572261	-0.999238
H	-4.388648	-5.139743	-1.230649
H	-3.052323	-4.153131	-1.940905
H	-3.730819	-3.739531	-0.311543
C	1.064366	-2.306654	0.187323
S	-1.521154	-2.306501	-0.257128
C	0.000000	-1.435185	0.000000
H	2.095939	-1.978138	0.365903
H	0.309131	-9.614033	0.092855
C	0.000000	0.000000	0.000000
S	0.693394	0.581209	1.507541
C	1.897536	1.592607	0.718873
C	0.693330	0.580791	-1.067872
C	1.756758	1.476132	-0.686410
S	0.508573	0.422041	-2.805516
C	1.846879	1.552232	-3.054530
C	2.387897	2.009402	-1.862551
F	3.408741	2.872264	-1.819088
C	2.191300	1.838768	-4.456084
O	1.606694	1.337806	-5.406510
O	3.221062	2.712584	-4.569225
C	3.603677	3.026817	-5.916207
H	4.442623	3.739898	-5.833064
H	2.758956	3.483875	-6.470168
H	3.921969	2.114070	-6.459293
H	2.604650	2.187790	1.306486
$end

$rem
JOBTYPE		SP
EXCHANGE	HF
CORRELATION	pRIMP2
BASIS		cc-pvtz
METHOD		rimp2
AUX_BASIS	rimp2-cc-pvtz
SOLVENT_METHOD	PCM
PURECART	11111
SYMMETRY	false
MEM_TOTAL	110000
SCF_CONVERGENCE = 6
THRESH=10
GUI = 2
$end

$solvent
dielectric 4.90
$end
--------------------------------------------------------------

             Standard Nuclear Orientation (Angstroms)
    I     Atom           X                Y                Z
 ----------------------------------------------------------------
    1      C       0.3062350000    -8.5177020000     0.0959660000
    2      C      -0.7544150000    -7.6415750000    -0.0828070000
    3      S       1.8337020000    -7.6386340000     0.3486350000
    4      C      -0.3836750000    -6.2647850000    -0.0174010000
    5      H      -1.7877570000    -7.9660810000    -0.2590080000
    6      C       1.0208850000    -6.0727140000     0.2319130000
    7      C       1.5790970000    -4.7870490000     0.3050440000
    8      C      -1.2680820000    -5.1628010000    -0.1965490000
    9      C      -0.7087960000    -3.8748170000    -0.1276060000
   10      C       0.6967690000    -3.6839520000     0.1247920000
   11      O      -2.5723780000    -5.4997720000    -0.3978670000
   12      O       2.8895320000    -4.4590550000     0.5061030000
   13      C       3.7184200000    -5.3290630000     1.2673350000
   14      H       4.6352040000    -4.7556940000     1.5028040000
   15      H       4.0107900000    -6.2380950000     0.6974710000
   16      H       3.2265060000    -5.6372620000     2.2151940000
   17      C      -3.4674150000    -4.5722610000    -0.9992380000
   18      H      -4.3886480000    -5.1397430000    -1.2306490000
   19      H      -3.0523230000    -4.1531310000    -1.9409050000
   20      H      -3.7308190000    -3.7395310000    -0.3115430000
   21      C       1.0643660000    -2.3066540000     0.1873230000
   22      S      -1.5211540000    -2.3065010000    -0.2571280000
   23      C       0.0000000000    -1.4351850000     0.0000000000
   24      H       2.0959390000    -1.9781380000     0.3659030000
   25      H       0.3091310000    -9.6140330000     0.0928550000
   26      C       0.0000000000     0.0000000000     0.0000000000
   27      S       0.6933940000     0.5812090000     1.5075410000
   28      C       1.8975360000     1.5926070000     0.7188730000
   29      C       0.6933300000     0.5807910000    -1.0678720000
   30      C       1.7567580000     1.4761320000    -0.6864100000
   31      S       0.5085730000     0.4220410000    -2.8055160000
   32      C       1.8468790000     1.5522320000    -3.0545300000
   33      C       2.3878970000     2.0094020000    -1.8625510000
   34      F       3.4087410000     2.8722640000    -1.8190880000
   35      C       2.1913000000     1.8387680000    -4.4560840000
   36      O       1.6066940000     1.3378060000    -5.4065100000
   37      O       3.2210620000     2.7125840000    -4.5692250000
   38      C       3.6036770000     3.0268170000    -5.9162070000
   39      H       4.4426230000     3.7398980000    -5.8330640000
   40      H       2.7589560000     3.4838750000    -6.4701680000
   41      H       3.9219690000     2.1140700000    -6.4592930000
   42      H       2.6046500000     2.1877900000     1.3064860000
 ----------------------------------------------------------------

   11   -2754.2700345300      3.99e-07  Convergence criterion met
 Total energy in the final basis set =    -2754.2700345300
        RIMP2         total energy =     -2759.3294702317 a.u.

                    Orbital Energies (a.u.)
 --------------------------------------------------------------

 Alpha MOs
 -- Occupied --
-92.0135 -92.0050 -91.9842 -91.9822 -26.3451 -20.6148 -20.5907 -20.5893
-20.5610 -11.4095 -11.3852 -11.3270 -11.3167 -11.3156 -11.3137 -11.2969
-11.2914 -11.2889 -11.2857 -11.2855 -11.2852 -11.2817 -11.2806 -11.2771
-11.2744 -11.2579 -11.2550 -11.2484 -11.2477  -9.0125  -9.0047  -8.9842
 -8.9828  -6.6931  -6.6923  -6.6920  -6.6857  -6.6849  -6.6839  -6.6652
 -6.6646  -6.6637  -6.6637  -6.6630  -6.6622  -1.6621  -1.4673  -1.4146
 -1.4121  -1.3700  -1.2281  -1.1909  -1.1638  -1.1380  -1.0835  -1.0488
 -1.0439  -1.0245  -0.9979  -0.9865  -0.9632  -0.9581  -0.9486  -0.9396
 -0.8926  -0.8696  -0.8444  -0.8131  -0.7937  -0.7875  -0.7839  -0.7631
 -0.7554  -0.7312  -0.7268  -0.7115  -0.6994  -0.6854  -0.6821  -0.6801
 -0.6740  -0.6586  -0.6571  -0.6511  -0.6285  -0.6183  -0.6151  -0.6073
 -0.5996  -0.5887  -0.5735  -0.5687  -0.5658  -0.5634  -0.5531  -0.5490
 -0.5311  -0.5234  -0.5197  -0.5150  -0.5125  -0.5097  -0.5028  -0.4926
 -0.4880  -0.4829  -0.4744  -0.4731  -0.4679  -0.4618  -0.4584  -0.4031
 -0.3943  -0.3854  -0.3625  -0.3412  -0.3103  -0.3060  -0.2539

          Ground-State Mulliken Net Atomic Charges

     Atom                 Charge (a.u.)
  ----------------------------------------
      1 C                    -0.193659
      2 C                    -0.254065
      3 S                    -0.026875
      4 C                    -0.018632
      5 H                     0.195695
      6 C                    -0.027311
      7 C                     0.233596
      8 C                     0.242359
      9 C                    -0.046003
     10 C                    -0.017103
     11 O                    -0.333708
     12 O                    -0.341680
     13 C                    -0.085704
     14 H                     0.121337
     15 H                     0.090970
     16 H                     0.093132
     17 C                    -0.086169
     18 H                     0.124236
     19 H                     0.094408
     20 H                     0.089519
     21 C                    -0.243055
     22 S                    -0.016117
     23 C                    -0.022596
     24 H                     0.195873
     25 H                     0.205349
     26 C                    -0.120793
     27 S                     0.120746
     28 C                    -0.145586
     29 C                     0.040297
     30 C                    -0.101083
     31 S                     0.041936
     32 C                    -0.154852
     33 C                     0.393370
     34 F                    -0.204895
     35 C                     0.448267
     36 O                    -0.462596
     37 O                    -0.301402
     38 C                    -0.058271
     39 H                     0.121257
     40 H                     0.095097
     41 H                     0.095225
     42 H                     0.219485
  ----------------------------------------
  Sum of atomic charges =     0.000000

                    Cartesian Multipole Moments
 -----------------------------------------------------------------
    Charge (ESU x 10^10)
                -0.0000
    Dipole Moment (Debye)
         X       2.7325      Y       1.6394      Z       2.9569
       Tot       4.3471
    Quadrupole Moments (Debye-Ang)
        XX    -171.5351     XY       9.0937     YY    -175.1220
        XZ       3.6642     YZ      -5.8849     ZZ    -201.3035

 Total job time:  479.47s(wall), 19199.73s(cpu)
        *  Thank you very much for using Q-Chem.  Have a nice day.  *
