 Q-Chem 5.4, Q-Chem, Inc., Pleasanton, CA (2021)
 Q-Chem 5.4.0 for Intel X86 EM64T Linux

User input:
--------------------------------------------------------------
$molecule
0 1
C	0.217225	-8.517702	0.236226
C	-0.611939	-7.641575	-0.448921
S	1.413715	-7.638634	1.218777
C	-0.323572	-6.264785	-0.206907
H	-1.418739	-7.966081	-1.118185
C	0.768156	-6.072714	0.711285
C	1.215016	-4.787049	1.053725
C	-0.999917	-5.162801	-0.804258
C	-0.550033	-3.874817	-0.464908
C	0.541024	-3.683952	0.456457
O	-2.028811	-5.499772	-1.630752
O	2.249357	-4.459055	1.883064
C	2.586579	-5.329063	2.956754
H	3.262802	-4.755694	3.619069
H	3.124711	-6.238095	2.609423
H	1.686639	-5.637262	3.531667
C	-2.503251	-4.572261	-2.599073
H	-3.185356	-5.139743	-3.260097
H	-1.672937	-4.153131	-3.207034
H	-3.075213	-3.739531	-2.135214
C	0.828107	-2.306654	0.694410
S	-1.188794	-2.306501	-0.983256
C	-0.000000	-1.435185	-0.000000
H	1.632185	-1.978138	1.364851
H	0.221288	-9.614033	0.234980
C	0.000000	0.000000	0.000000
S	0.581934	0.692785	1.507541
C	1.592155	1.897915	0.718873
C	0.581944	0.692363	-1.067872
C	1.473741	1.758764	-0.686410
S	0.427560	0.503942	-2.805516
C	1.549278	1.849357	-3.054530
C	2.002690	2.393529	-1.862551
F	2.858191	3.420549	-1.819088
C	1.838710	2.191348	-4.456084
O	1.349977	1.596481	-5.406510
O	2.701091	3.230705	-4.569225
C	3.023327	3.606605	-5.916207
H	3.725703	4.454534	-5.833064
H	2.112072	3.910035	-6.470168
H	3.495281	2.762996	-6.459293
H	2.185174	2.606846	1.306486
$end

$rem
JOBTYPE		SP
EXCHANGE	HF
CORRELATION	pRIMP2
BASIS		cc-pvtz
METHOD		rimp2
AUX_BASIS	rimp2-cc-pvtz
SOLVENT_METHOD	PCM
PURECART	11111
SYMMETRY	false
MEM_TOTAL	110000
SCF_CONVERGENCE = 6
THRESH=10
GUI = 2
$end

$solvent
dielectric 4.90
$end
--------------------------------------------------------------

             Standard Nuclear Orientation (Angstroms)
    I     Atom           X                Y                Z
 ----------------------------------------------------------------
    1      C       0.2172250000    -8.5177020000     0.2362260000
    2      C      -0.6119390000    -7.6415750000    -0.4489210000
    3      S       1.4137150000    -7.6386340000     1.2187770000
    4      C      -0.3235720000    -6.2647850000    -0.2069070000
    5      H      -1.4187390000    -7.9660810000    -1.1181850000
    6      C       0.7681560000    -6.0727140000     0.7112850000
    7      C       1.2150160000    -4.7870490000     1.0537250000
    8      C      -0.9999170000    -5.1628010000    -0.8042580000
    9      C      -0.5500330000    -3.8748170000    -0.4649080000
   10      C       0.5410240000    -3.6839520000     0.4564570000
   11      O      -2.0288110000    -5.4997720000    -1.6307520000
   12      O       2.2493570000    -4.4590550000     1.8830640000
   13      C       2.5865790000    -5.3290630000     2.9567540000
   14      H       3.2628020000    -4.7556940000     3.6190690000
   15      H       3.1247110000    -6.2380950000     2.6094230000
   16      H       1.6866390000    -5.6372620000     3.5316670000
   17      C      -2.5032510000    -4.5722610000    -2.5990730000
   18      H      -3.1853560000    -5.1397430000    -3.2600970000
   19      H      -1.6729370000    -4.1531310000    -3.2070340000
   20      H      -3.0752130000    -3.7395310000    -2.1352140000
   21      C       0.8281070000    -2.3066540000     0.6944100000
   22      S      -1.1887940000    -2.3065010000    -0.9832560000
   23      C       0.0000000000    -1.4351850000     0.0000000000
   24      H       1.6321850000    -1.9781380000     1.3648510000
   25      H       0.2212880000    -9.6140330000     0.2349800000
   26      C       0.0000000000     0.0000000000     0.0000000000
   27      S       0.5819340000     0.6927850000     1.5075410000
   28      C       1.5921550000     1.8979150000     0.7188730000
   29      C       0.5819440000     0.6923630000    -1.0678720000
   30      C       1.4737410000     1.7587640000    -0.6864100000
   31      S       0.4275600000     0.5039420000    -2.8055160000
   32      C       1.5492780000     1.8493570000    -3.0545300000
   33      C       2.0026900000     2.3935290000    -1.8625510000
   34      F       2.8581910000     3.4205490000    -1.8190880000
   35      C       1.8387100000     2.1913480000    -4.4560840000
   36      O       1.3499770000     1.5964810000    -5.4065100000
   37      O       2.7010910000     3.2307050000    -4.5692250000
   38      C       3.0233270000     3.6066050000    -5.9162070000
   39      H       3.7257030000     4.4545340000    -5.8330640000
   40      H       2.1120720000     3.9100350000    -6.4701680000
   41      H       3.4952810000     2.7629960000    -6.4592930000
   42      H       2.1851740000     2.6068460000     1.3064860000
 ----------------------------------------------------------------

   10   -2754.2884488248      7.81e-07  Convergence criterion met
 Total energy in the final basis set =    -2754.2884488248
        RIMP2         total energy =     -2759.3456533475 a.u.

                    Orbital Energies (a.u.)
 --------------------------------------------------------------

 Alpha MOs
 -- Occupied --
-92.0149 -92.0031 -91.9865 -91.9848 -26.3445 -20.6149 -20.5913 -20.5895
-20.5612 -11.4096 -11.3842 -11.3209 -11.3180 -11.3141 -11.3111 -11.2973
-11.2960 -11.2889 -11.2866 -11.2864 -11.2859 -11.2853 -11.2826 -11.2825
-11.2773 -11.2591 -11.2555 -11.2487 -11.2483  -9.0137  -9.0029  -8.9870
 -8.9847  -6.6944  -6.6936  -6.6932  -6.6839  -6.6831  -6.6821  -6.6680
 -6.6673  -6.6664  -6.6657  -6.6651  -6.6642  -1.6615  -1.4674  -1.4153
 -1.4124  -1.3701  -1.2263  -1.1922  -1.1646  -1.1377  -1.0844  -1.0498
 -1.0434  -1.0248  -0.9993  -0.9872  -0.9641  -0.9579  -0.9489  -0.9404
 -0.8937  -0.8693  -0.8472  -0.8149  -0.7927  -0.7863  -0.7853  -0.7638
 -0.7555  -0.7318  -0.7263  -0.7111  -0.6989  -0.6856  -0.6823  -0.6809
 -0.6740  -0.6588  -0.6575  -0.6514  -0.6293  -0.6186  -0.6154  -0.6050
 -0.6002  -0.5892  -0.5753  -0.5678  -0.5660  -0.5648  -0.5538  -0.5506
 -0.5313  -0.5252  -0.5212  -0.5147  -0.5144  -0.5111  -0.5044  -0.4932
 -0.4884  -0.4810  -0.4752  -0.4734  -0.4693  -0.4632  -0.4587  -0.4157
 -0.3927  -0.3853  -0.3614  -0.3461  -0.3200  -0.2957  -0.2525

          Ground-State Mulliken Net Atomic Charges

     Atom                 Charge (a.u.)
  ----------------------------------------
      1 C                    -0.193754
      2 C                    -0.253294
      3 S                    -0.025707
      4 C                    -0.019256
      5 H                     0.195891
      6 C                    -0.026725
      7 C                     0.234813
      8 C                     0.245061
      9 C                    -0.042754
     10 C                    -0.014542
     11 O                    -0.333469
     12 O                    -0.341360
     13 C                    -0.085638
     14 H                     0.121594
     15 H                     0.090805
     16 H                     0.093276
     17 C                    -0.087247
     18 H                     0.124652
     19 H                     0.095292
     20 H                     0.089644
     21 C                    -0.265209
     22 S                    -0.018755
     23 C                    -0.009813
     24 H                     0.196340
     25 H                     0.205485
     26 C                    -0.075426
     27 S                     0.099782
     28 C                    -0.155553
     29 C                     0.040706
     30 C                    -0.104166
     31 S                     0.029228
     32 C                    -0.152000
     33 C                     0.391117
     34 F                    -0.205286
     35 C                     0.446998
     36 O                    -0.461791
     37 O                    -0.301207
     38 C                    -0.058369
     39 H                     0.121349
     40 H                     0.095122
     41 H                     0.095188
     42 H                     0.218975
  ----------------------------------------
  Sum of atomic charges =     0.000000

                    Cartesian Multipole Moments
 -----------------------------------------------------------------
    Charge (ESU x 10^10)
                -0.0000
    Dipole Moment (Debye)
         X       1.8711      Y       1.7149      Z       2.7947
       Tot       3.7752
    Quadrupole Moments (Debye-Ang)
        XX    -186.5016     XY       9.6863     YY    -171.1223
        XZ       7.1863     YZ      -6.2127     ZZ    -189.6105

 Total job time:  278.73s(wall), 8761.71s(cpu)
        *  Thank you very much for using Q-Chem.  Have a nice day.  *
