 Q-Chem 5.4, Q-Chem, Inc., Pleasanton, CA (2021)
 Q-Chem 5.4.0 for Intel X86 EM64T Linux

User input:
--------------------------------------------------------------
$molecule
0 1
C	0.041330	-8.517702	-0.318247
C	0.049453	-7.641575	0.757333
S	0.024919	-7.638634	-1.866383
C	0.049488	-6.264785	0.380867
H	0.055368	-7.966081	1.805573
C	0.051115	-6.072714	-1.045647
C	0.026203	-4.787049	-1.608077
C	0.026637	-5.162801	1.282948
C	-0.002586	-3.874817	0.720187
C	0.001903	-3.683952	-0.707853
O	0.054867	-5.499772	2.602386
O	-0.003348	-4.459055	-2.933517
C	0.602384	-5.329063	-3.881999
H	0.675079	-4.755694	-4.825744
H	-0.009592	-6.238095	-4.070972
H	1.621263	-5.637262	-3.562152
C	-0.381947	-4.572261	3.588253
H	-0.449872	-5.139743	4.535674
H	-1.381388	-4.153131	3.342986
H	0.341040	-3.739531	3.728239
C	-0.000348	-2.306654	-1.080725
S	0.010924	-2.306501	1.542694
C	0.000000	-1.435185	0.000000
H	-0.003612	-1.978138	-2.127635
H	0.037764	-9.614033	-0.320559
C	0.000000	0.000000	0.000000
S	0.234628	0.873813	1.507541
C	0.640889	2.392969	0.718873
C	0.234815	0.873434	-1.067872
C	0.592377	2.216811	-0.686410
S	0.174526	0.637422	-2.805516
C	0.622551	2.330840	-3.054530
C	0.803505	3.015647	-1.862551
F	1.144815	4.307994	-1.819088
C	0.740334	2.763108	-4.456084
O	0.548793	2.017428	-5.406510
O	1.082665	4.069544	-4.569225
C	1.215848	4.546407	-5.916207
H	1.494066	5.611729	-5.833064
H	0.261736	4.436296	-6.470168
H	2.000108	3.981294	-6.459293
H	0.878739	3.286099	1.306486
$end

$rem
JOBTYPE		SP
EXCHANGE	HF
CORRELATION	pRIMP2
BASIS		cc-pvtz
METHOD		rimp2
AUX_BASIS	rimp2-cc-pvtz
SOLVENT_METHOD	PCM
PURECART	11111
SYMMETRY	false
MEM_TOTAL	110000
SCF_CONVERGENCE = 6
THRESH=10
GUI = 2
$end

$solvent
dielectric 4.90
$end
--------------------------------------------------------------

             Standard Nuclear Orientation (Angstroms)
    I     Atom           X                Y                Z
 ----------------------------------------------------------------
    1      C       0.0413300000    -8.5177020000    -0.3182470000
    2      C       0.0494530000    -7.6415750000     0.7573330000
    3      S       0.0249190000    -7.6386340000    -1.8663830000
    4      C       0.0494880000    -6.2647850000     0.3808670000
    5      H       0.0553680000    -7.9660810000     1.8055730000
    6      C       0.0511150000    -6.0727140000    -1.0456470000
    7      C       0.0262030000    -4.7870490000    -1.6080770000
    8      C       0.0266370000    -5.1628010000     1.2829480000
    9      C      -0.0025860000    -3.8748170000     0.7201870000
   10      C       0.0019030000    -3.6839520000    -0.7078530000
   11      O       0.0548670000    -5.4997720000     2.6023860000
   12      O      -0.0033480000    -4.4590550000    -2.9335170000
   13      C       0.6023840000    -5.3290630000    -3.8819990000
   14      H       0.6750790000    -4.7556940000    -4.8257440000
   15      H      -0.0095920000    -6.2380950000    -4.0709720000
   16      H       1.6212630000    -5.6372620000    -3.5621520000
   17      C      -0.3819470000    -4.5722610000     3.5882530000
   18      H      -0.4498720000    -5.1397430000     4.5356740000
   19      H      -1.3813880000    -4.1531310000     3.3429860000
   20      H       0.3410400000    -3.7395310000     3.7282390000
   21      C      -0.0003480000    -2.3066540000    -1.0807250000
   22      S       0.0109240000    -2.3065010000     1.5426940000
   23      C       0.0000000000    -1.4351850000     0.0000000000
   24      H      -0.0036120000    -1.9781380000    -2.1276350000
   25      H       0.0377640000    -9.6140330000    -0.3205590000
   26      C       0.0000000000     0.0000000000     0.0000000000
   27      S       0.2346280000     0.8738130000     1.5075410000
   28      C       0.6408890000     2.3929690000     0.7188730000
   29      C       0.2348150000     0.8734340000    -1.0678720000
   30      C       0.5923770000     2.2168110000    -0.6864100000
   31      S       0.1745260000     0.6374220000    -2.8055160000
   32      C       0.6225510000     2.3308400000    -3.0545300000
   33      C       0.8035050000     3.0156470000    -1.8625510000
   34      F       1.1448150000     4.3079940000    -1.8190880000
   35      C       0.7403340000     2.7631080000    -4.4560840000
   36      O       0.5487930000     2.0174280000    -5.4065100000
   37      O       1.0826650000     4.0695440000    -4.5692250000
   38      C       1.2158480000     4.5464070000    -5.9162070000
   39      H       1.4940660000     5.6117290000    -5.8330640000
   40      H       0.2617360000     4.4362960000    -6.4701680000
   41      H       2.0001080000     3.9812940000    -6.4592930000
   42      H       0.8787390000     3.2860990000     1.3064860000
 ----------------------------------------------------------------

   10   -2754.3122024255      7.50e-07  Convergence criterion met
 Total energy in the final basis set =    -2754.3122024255
        RIMP2         total energy =     -2759.3661457181 a.u.

                    Orbital Energies (a.u.)
 --------------------------------------------------------------

 Alpha MOs
 -- Occupied --
-92.0165 -92.0007 -91.9909 -91.9862 -26.3440 -20.6150 -20.5929 -20.5906
-20.5615 -11.4097 -11.3835 -11.3200 -11.3169 -11.3121 -11.3015 -11.3003
-11.2981 -11.2977 -11.2889 -11.2878 -11.2866 -11.2865 -11.2852 -11.2841
-11.2791 -11.2621 -11.2583 -11.2548 -11.2498  -9.0152  -9.0006  -8.9916
 -8.9861  -6.6960  -6.6954  -6.6949  -6.6816  -6.6809  -6.6798  -6.6726
 -6.6719  -6.6709  -6.6670  -6.6664  -6.6656  -1.6610  -1.4675  -1.4170
 -1.4134  -1.3702  -1.2231  -1.1949  -1.1664  -1.1374  -1.0858  -1.0522
 -1.0426  -1.0243  -1.0018  -0.9887  -0.9645  -0.9599  -0.9505  -0.9397
 -0.8966  -0.8687  -0.8522  -0.8089  -0.7993  -0.7885  -0.7860  -0.7642
 -0.7556  -0.7344  -0.7258  -0.7106  -0.7020  -0.6861  -0.6836  -0.6812
 -0.6741  -0.6593  -0.6591  -0.6523  -0.6309  -0.6197  -0.6169  -0.6021
 -0.5989  -0.5847  -0.5799  -0.5713  -0.5649  -0.5609  -0.5564  -0.5495
 -0.5359  -0.5305  -0.5237  -0.5198  -0.5170  -0.5114  -0.5054  -0.4957
 -0.4873  -0.4815  -0.4776  -0.4743  -0.4699  -0.4649  -0.4599  -0.4279
 -0.3965  -0.3841  -0.3616  -0.3485  -0.3283  -0.2893  -0.2498

          Ground-State Mulliken Net Atomic Charges

     Atom                 Charge (a.u.)
  ----------------------------------------
      1 C                    -0.190119
      2 C                    -0.254556
      3 S                    -0.022069
      4 C                    -0.017358
      5 H                     0.196188
      6 C                    -0.026989
      7 C                     0.245456
      8 C                     0.243290
      9 C                    -0.039428
     10 C                    -0.025822
     11 O                    -0.332834
     12 O                    -0.341065
     13 C                    -0.086543
     14 H                     0.123645
     15 H                     0.091560
     16 H                     0.093747
     17 C                    -0.088890
     18 H                     0.126213
     19 H                     0.095052
     20 H                     0.089495
     21 C                    -0.226522
     22 S                    -0.042901
     23 C                    -0.019945
     24 H                     0.188397
     25 H                     0.206232
     26 C                     0.025159
     27 S                     0.084147
     28 C                    -0.189725
     29 C                     0.010148
     30 C                    -0.118153
     31 S                     0.008966
     32 C                    -0.163274
     33 C                     0.408002
     34 F                    -0.205963
     35 C                     0.444159
     36 O                    -0.461140
     37 O                    -0.300900
     38 C                    -0.058497
     39 H                     0.121519
     40 H                     0.095230
     41 H                     0.095175
     42 H                     0.220911
  ----------------------------------------
  Sum of atomic charges =     0.000000

                    Cartesian Multipole Moments
 -----------------------------------------------------------------
    Charge (ESU x 10^10)
                 0.0000
    Dipole Moment (Debye)
         X       1.0173      Y       1.2875      Z       3.1040
       Tot       3.5110
    Quadrupole Moments (Debye-Ang)
        XX    -199.7973     XY       2.7175     YY    -160.9391
        XZ      -7.6315     YZ      -7.3057     ZZ    -182.1994

 Total job time:  14663.63s(wall), 9603.43s(cpu)
        *  Thank you very much for using Q-Chem.  Have a nice day.  *
