 Q-Chem 5.4, Q-Chem, Inc., Pleasanton, CA (2021)
 Q-Chem 5.4.0 for Intel X86 EM64T Linux

User input:
--------------------------------------------------------------
$molecule
0 1
C	-0.313191	-8.517702	0.070009
C	0.694746	-7.641575	-0.305494
S	-1.762350	-7.638634	0.614924
C	0.340973	-6.264785	-0.176768
H	1.677747	-7.966081	-0.669571
C	-1.000069	-6.072714	0.309600
C	-1.520060	-4.787049	0.525372
C	1.196466	-5.162801	-0.463825
C	0.677639	-3.874817	-0.243888
C	-0.665815	-3.683952	0.240312
O	2.426678	-5.499772	-0.941626
O	-2.755460	-4.459055	1.006468
C	-3.853913	-5.329063	0.761666
H	-4.765607	-4.755694	1.016135
H	-3.822182	-6.238095	1.401368
H	-3.901833	-5.637262	-0.305161
C	3.502489	-4.572261	-0.868342
H	4.416005	-5.139743	-1.128551
H	3.613841	-4.153131	0.154712
H	3.386756	-3.739531	-1.595605
C	-1.015430	-2.306654	0.369957
S	1.445922	-2.306501	-0.537898
C	-0.000000	-1.435185	-0.000000
H	-1.998088	-1.978138	0.731088
H	-0.314143	-9.614033	0.074151
C	0.000000	0.000000	0.000000
S	0.581934	0.692785	1.507541
C	1.592155	1.897915	0.718873
C	0.581944	0.692363	-1.067872
C	1.473741	1.758764	-0.686410
S	0.427560	0.503942	-2.805516
C	1.549278	1.849357	-3.054530
C	2.002690	2.393529	-1.862551
F	2.858191	3.420549	-1.819088
C	1.838710	2.191348	-4.456084
O	1.349977	1.596481	-5.406510
O	2.701091	3.230705	-4.569225
C	3.023327	3.606605	-5.916207
H	3.725703	4.454534	-5.833064
H	2.112072	3.910035	-6.470168
H	3.495281	2.762996	-6.459293
H	2.185174	2.606846	1.306486
$end

$rem
JOBTYPE		SP
EXCHANGE	HF
CORRELATION	pRIMP2
BASIS		cc-pvtz
METHOD		rimp2
AUX_BASIS	rimp2-cc-pvtz
SOLVENT_METHOD	PCM
PURECART	11111
SYMMETRY	false
MEM_TOTAL	110000
SCF_CONVERGENCE = 6
THRESH=10
GUI = 2
$end

$solvent
dielectric 4.90
$end
--------------------------------------------------------------

             Standard Nuclear Orientation (Angstroms)
    I     Atom           X                Y                Z
 ----------------------------------------------------------------
    1      C      -0.3131910000    -8.5177020000     0.0700090000
    2      C       0.6947460000    -7.6415750000    -0.3054940000
    3      S      -1.7623500000    -7.6386340000     0.6149240000
    4      C       0.3409730000    -6.2647850000    -0.1767680000
    5      H       1.6777470000    -7.9660810000    -0.6695710000
    6      C      -1.0000690000    -6.0727140000     0.3096000000
    7      C      -1.5200600000    -4.7870490000     0.5253720000
    8      C       1.1964660000    -5.1628010000    -0.4638250000
    9      C       0.6776390000    -3.8748170000    -0.2438880000
   10      C      -0.6658150000    -3.6839520000     0.2403120000
   11      O       2.4266780000    -5.4997720000    -0.9416260000
   12      O      -2.7554600000    -4.4590550000     1.0064680000
   13      C      -3.8539130000    -5.3290630000     0.7616660000
   14      H      -4.7656070000    -4.7556940000     1.0161350000
   15      H      -3.8221820000    -6.2380950000     1.4013680000
   16      H      -3.9018330000    -5.6372620000    -0.3051610000
   17      C       3.5024890000    -4.5722610000    -0.8683420000
   18      H       4.4160050000    -5.1397430000    -1.1285510000
   19      H       3.6138410000    -4.1531310000     0.1547120000
   20      H       3.3867560000    -3.7395310000    -1.5956050000
   21      C      -1.0154300000    -2.3066540000     0.3699570000
   22      S       1.4459220000    -2.3065010000    -0.5378980000
   23      C       0.0000000000    -1.4351850000     0.0000000000
   24      H      -1.9980880000    -1.9781380000     0.7310880000
   25      H      -0.3141430000    -9.6140330000     0.0741510000
   26      C       0.0000000000     0.0000000000     0.0000000000
   27      S       0.5819340000     0.6927850000     1.5075410000
   28      C       1.5921550000     1.8979150000     0.7188730000
   29      C       0.5819440000     0.6923630000    -1.0678720000
   30      C       1.4737410000     1.7587640000    -0.6864100000
   31      S       0.4275600000     0.5039420000    -2.8055160000
   32      C       1.5492780000     1.8493570000    -3.0545300000
   33      C       2.0026900000     2.3935290000    -1.8625510000
   34      F       2.8581910000     3.4205490000    -1.8190880000
   35      C       1.8387100000     2.1913480000    -4.4560840000
   36      O       1.3499770000     1.5964810000    -5.4065100000
   37      O       2.7010910000     3.2307050000    -4.5692250000
   38      C       3.0233270000     3.6066050000    -5.9162070000
   39      H       3.7257030000     4.4545340000    -5.8330640000
   40      H       2.1120720000     3.9100350000    -6.4701680000
   41      H       3.4952810000     2.7629960000    -6.4592930000
   42      H       2.1851740000     2.6068460000     1.3064860000
 ----------------------------------------------------------------

   10   -2754.2874503373      8.47e-07  Convergence criterion met
 Total energy in the final basis set =    -2754.2874503373
        RIMP2         total energy =     -2759.3441867348 a.u.

                    Orbital Energies (a.u.)
 --------------------------------------------------------------

 Alpha MOs
 -- Occupied --
-92.0139 -92.0018 -91.9855 -91.9853 -26.3441 -20.6148 -20.5914 -20.5902
-20.5612 -11.4095 -11.3837 -11.3202 -11.3177 -11.3157 -11.3077 -11.2975
-11.2894 -11.2889 -11.2864 -11.2857 -11.2854 -11.2835 -11.2834 -11.2826
-11.2786 -11.2579 -11.2572 -11.2501 -11.2491  -9.0126  -9.0017  -8.9861
 -8.9852  -6.6933  -6.6926  -6.6921  -6.6826  -6.6819  -6.6808  -6.6670
 -6.6663  -6.6662  -6.6656  -6.6654  -6.6648  -1.6612  -1.4673  -1.4155
 -1.4130  -1.3700  -1.2254  -1.1922  -1.1641  -1.1372  -1.0838  -1.0503
 -1.0425  -1.0238  -0.9997  -0.9866  -0.9633  -0.9587  -0.9495  -0.9388
 -0.8944  -0.8687  -0.8473  -0.8127  -0.7927  -0.7864  -0.7844  -0.7642
 -0.7553  -0.7323  -0.7260  -0.7104  -0.6993  -0.6854  -0.6822  -0.6807
 -0.6740  -0.6585  -0.6579  -0.6517  -0.6291  -0.6190  -0.6165  -0.6066
 -0.5984  -0.5859  -0.5762  -0.5683  -0.5644  -0.5623  -0.5545  -0.5423
 -0.5322  -0.5309  -0.5220  -0.5154  -0.5144  -0.5090  -0.5046  -0.4952
 -0.4885  -0.4815  -0.4747  -0.4735  -0.4678  -0.4653  -0.4596  -0.4040
 -0.3992  -0.3837  -0.3542  -0.3511  -0.3179  -0.2959  -0.2565

          Ground-State Mulliken Net Atomic Charges

     Atom                 Charge (a.u.)
  ----------------------------------------
      1 C                    -0.190601
      2 C                    -0.254433
      3 S                    -0.024277
      4 C                    -0.016139
      5 H                     0.195953
      6 C                    -0.027070
      7 C                     0.237174
      8 C                     0.240606
      9 C                    -0.043031
     10 C                    -0.013726
     11 O                    -0.333516
     12 O                    -0.339973
     13 C                    -0.085766
     14 H                     0.122132
     15 H                     0.090767
     16 H                     0.093910
     17 C                    -0.087036
     18 H                     0.124953
     19 H                     0.093839
     20 H                     0.090154
     21 C                    -0.242011
     22 S                    -0.009323
     23 C                    -0.049682
     24 H                     0.195810
     25 H                     0.205922
     26 C                    -0.033841
     27 S                     0.120058
     28 C                    -0.164271
     29 C                    -0.058417
     30 C                    -0.073134
     31 S                     0.043543
     32 C                    -0.150432
     33 C                     0.391797
     34 F                    -0.205934
     35 C                     0.447056
     36 O                    -0.461463
     37 O                    -0.301053
     38 C                    -0.058324
     39 H                     0.121315
     40 H                     0.095250
     41 H                     0.095076
     42 H                     0.218136
  ----------------------------------------
  Sum of atomic charges =     0.000000

                    Cartesian Multipole Moments
 -----------------------------------------------------------------
    Charge (ESU x 10^10)
                 0.0000
    Dipole Moment (Debye)
         X       2.2891      Y       1.3205      Z       2.5397
       Tot       3.6652
    Quadrupole Moments (Debye-Ang)
        XX    -170.6490     XY       8.8526     YY    -168.8448
        XZ      -7.4545     YZ      -4.2249     ZZ    -205.2733

 Total job time:  316.86s(wall), 10622.52s(cpu)
        *  Thank you very much for using Q-Chem.  Have a nice day.  *
