 Q-Chem 5.4, Q-Chem, Inc., Pleasanton, CA (2021)
 Q-Chem 5.4.0 for Intel X86 EM64T Linux

User input:
--------------------------------------------------------------
$molecule
0 1
C	0.313191	-8.517702	-0.070009
C	-0.694746	-7.641575	0.305494
S	1.762350	-7.638634	-0.614924
C	-0.340973	-6.264785	0.176768
H	-1.677747	-7.966081	0.669571
C	1.000069	-6.072714	-0.309600
C	1.520060	-4.787049	-0.525372
C	-1.196466	-5.162801	0.463825
C	-0.677639	-3.874817	0.243888
C	0.665815	-3.683952	-0.240312
O	-2.426678	-5.499772	0.941626
O	2.755460	-4.459055	-1.006468
C	3.853913	-5.329063	-0.761666
H	4.765607	-4.755694	-1.016135
H	3.822182	-6.238095	-1.401368
H	3.901833	-5.637262	0.305161
C	-3.502489	-4.572261	0.868342
H	-4.416005	-5.139743	1.128551
H	-3.613841	-4.153131	-0.154712
H	-3.386756	-3.739531	1.595605
C	1.015430	-2.306654	-0.369957
S	-1.445922	-2.306501	0.537898
C	-0.000000	-1.435185	-0.000000
H	1.998088	-1.978138	-0.731088
H	0.314143	-9.614033	-0.074151
C	0.000000	0.000000	0.000000
S	0.309893	0.850039	1.507541
C	0.847011	2.328006	0.718873
C	0.310046	0.849645	-1.067872
C	0.783331	2.156746	-0.686410
S	0.229416	0.619785	-2.805516
C	0.823328	2.267711	-3.054530
C	1.063278	2.934142	-1.862551
F	1.515925	4.191824	-1.819088
C	0.978337	2.688069	-4.456084
O	0.722535	1.961921	-5.406510
O	1.433229	3.959697	-4.569225
C	1.607467	4.423139	-5.916207
H	1.977475	5.460158	-5.833064
H	0.647388	4.396602	-6.470168
H	2.339490	3.791823	-6.459293
H	1.161798	3.197007	1.306486
$end

$rem
JOBTYPE		SP
EXCHANGE	HF
CORRELATION	pRIMP2
BASIS		cc-pvtz
METHOD		rimp2
AUX_BASIS	rimp2-cc-pvtz
SOLVENT_METHOD	PCM
PURECART	11111
SYMMETRY	false
MEM_TOTAL	110000
SCF_CONVERGENCE = 6
THRESH=10
GUI = 2
$end

$solvent
dielectric 4.90
$end
--------------------------------------------------------------

             Standard Nuclear Orientation (Angstroms)
    I     Atom           X                Y                Z
 ----------------------------------------------------------------
    1      C       0.3131910000    -8.5177020000    -0.0700090000
    2      C      -0.6947460000    -7.6415750000     0.3054940000
    3      S       1.7623500000    -7.6386340000    -0.6149240000
    4      C      -0.3409730000    -6.2647850000     0.1767680000
    5      H      -1.6777470000    -7.9660810000     0.6695710000
    6      C       1.0000690000    -6.0727140000    -0.3096000000
    7      C       1.5200600000    -4.7870490000    -0.5253720000
    8      C      -1.1964660000    -5.1628010000     0.4638250000
    9      C      -0.6776390000    -3.8748170000     0.2438880000
   10      C       0.6658150000    -3.6839520000    -0.2403120000
   11      O      -2.4266780000    -5.4997720000     0.9416260000
   12      O       2.7554600000    -4.4590550000    -1.0064680000
   13      C       3.8539130000    -5.3290630000    -0.7616660000
   14      H       4.7656070000    -4.7556940000    -1.0161350000
   15      H       3.8221820000    -6.2380950000    -1.4013680000
   16      H       3.9018330000    -5.6372620000     0.3051610000
   17      C      -3.5024890000    -4.5722610000     0.8683420000
   18      H      -4.4160050000    -5.1397430000     1.1285510000
   19      H      -3.6138410000    -4.1531310000    -0.1547120000
   20      H      -3.3867560000    -3.7395310000     1.5956050000
   21      C       1.0154300000    -2.3066540000    -0.3699570000
   22      S      -1.4459220000    -2.3065010000     0.5378980000
   23      C       0.0000000000    -1.4351850000     0.0000000000
   24      H       1.9980880000    -1.9781380000    -0.7310880000
   25      H       0.3141430000    -9.6140330000    -0.0741510000
   26      C       0.0000000000     0.0000000000     0.0000000000
   27      S       0.3098930000     0.8500390000     1.5075410000
   28      C       0.8470110000     2.3280060000     0.7188730000
   29      C       0.3100460000     0.8496450000    -1.0678720000
   30      C       0.7833310000     2.1567460000    -0.6864100000
   31      S       0.2294160000     0.6197850000    -2.8055160000
   32      C       0.8233280000     2.2677110000    -3.0545300000
   33      C       1.0632780000     2.9341420000    -1.8625510000
   34      F       1.5159250000     4.1918240000    -1.8190880000
   35      C       0.9783370000     2.6880690000    -4.4560840000
   36      O       0.7225350000     1.9619210000    -5.4065100000
   37      O       1.4332290000     3.9596970000    -4.5692250000
   38      C       1.6074670000     4.4231390000    -5.9162070000
   39      H       1.9774750000     5.4601580000    -5.8330640000
   40      H       0.6473880000     4.3966020000    -6.4701680000
   41      H       2.3394900000     3.7918230000    -6.4592930000
   42      H       1.1617980000     3.1970070000     1.3064860000
 ----------------------------------------------------------------

   10   -2754.3078594300      7.37e-07  Convergence criterion met
 Total energy in the final basis set =    -2754.3078594300
        RIMP2         total energy =     -2759.3590652148 a.u.

                    Orbital Energies (a.u.)
 --------------------------------------------------------------

 Alpha MOs
 -- Occupied --
-92.0141 -91.9975 -91.9877 -91.9862 -26.3428 -20.6143 -20.5922 -20.5913
-20.5606 -11.4087 -11.3818 -11.3189 -11.3179 -11.3117 -11.3021 -11.2964
-11.2938 -11.2919 -11.2885 -11.2869 -11.2860 -11.2855 -11.2839 -11.2838
-11.2798 -11.2604 -11.2588 -11.2570 -11.2499  -9.0126  -8.9975  -8.9881
 -8.9862  -6.6933  -6.6927  -6.6922  -6.6785  -6.6777  -6.6766  -6.6691
 -6.6684  -6.6675  -6.6671  -6.6665  -6.6657  -1.6599  -1.4667  -1.4163
 -1.4141  -1.3694  -1.2209  -1.1940  -1.1650  -1.1353  -1.0842  -1.0516
 -1.0411  -1.0220  -1.0010  -0.9875  -0.9615  -0.9603  -0.9501  -0.9388
 -0.8953  -0.8670  -0.8503  -0.8085  -0.7955  -0.7880  -0.7862  -0.7644
 -0.7549  -0.7336  -0.7248  -0.7092  -0.7011  -0.6846  -0.6828  -0.6801
 -0.6734  -0.6591  -0.6572  -0.6525  -0.6300  -0.6199  -0.6170  -0.6049
 -0.5973  -0.5843  -0.5764  -0.5705  -0.5664  -0.5614  -0.5533  -0.5514
 -0.5307  -0.5299  -0.5238  -0.5161  -0.5146  -0.5082  -0.5042  -0.4949
 -0.4888  -0.4796  -0.4749  -0.4730  -0.4690  -0.4663  -0.4606  -0.4079
 -0.3958  -0.3868  -0.3576  -0.3486  -0.3174  -0.2963  -0.2574

          Ground-State Mulliken Net Atomic Charges

     Atom                 Charge (a.u.)
  ----------------------------------------
      1 C                    -0.188432
      2 C                    -0.254215
      3 S                    -0.022122
      4 C                    -0.015564
      5 H                     0.196274
      6 C                    -0.028967
      7 C                     0.241268
      8 C                     0.243508
      9 C                    -0.053013
     10 C                    -0.020076
     11 O                    -0.333606
     12 O                    -0.339626
     13 C                    -0.085762
     14 H                     0.122662
     15 H                     0.091255
     16 H                     0.093681
     17 C                    -0.086313
     18 H                     0.124709
     19 H                     0.094903
     20 H                     0.089343
     21 C                    -0.206761
     22 S                    -0.003096
     23 C                    -0.026274
     24 H                     0.200137
     25 H                     0.206379
     26 C                    -0.052485
     27 S                     0.109353
     28 C                    -0.183275
     29 C                    -0.026937
     30 C                    -0.088534
     31 S                     0.017034
     32 C                    -0.154224
     33 C                     0.391060
     34 F                    -0.206944
     35 C                     0.446127
     36 O                    -0.461237
     37 O                    -0.300869
     38 C                    -0.058414
     39 H                     0.121169
     40 H                     0.095078
     41 H                     0.094989
     42 H                     0.217816
  ----------------------------------------
  Sum of atomic charges =     0.000000

                    Cartesian Multipole Moments
 -----------------------------------------------------------------
    Charge (ESU x 10^10)
                 0.0000
    Dipole Moment (Debye)
         X       1.0736      Y       0.9764      Z       3.2323
       Tot       3.5431
    Quadrupole Moments (Debye-Ang)
        XX    -175.3970     XY       4.2037     YY    -161.8207
        XZ      -5.2711     YZ      -7.9713     ZZ    -206.3059

 Total job time:  293.21s(wall), 8851.84s(cpu)
        *  Thank you very much for using Q-Chem.  Have a nice day.  *
