 Q-Chem 5.4, Q-Chem, Inc., Pleasanton, CA (2021)
 Q-Chem 5.4.0 for Intel X86 EM64T Linux

User input:
--------------------------------------------------------------
$molecule
0 1
C	-0.014560	-8.517702	-0.320589
C	0.180211	-7.641575	0.737240
S	-0.299553	-7.638634	-1.842356
C	0.114873	-6.264785	0.366488
H	0.368061	-7.966081	1.768528
C	-0.131236	-6.072714	-1.038637
C	-0.253435	-4.787049	-1.588197
C	0.249014	-5.162801	1.258831
C	0.122513	-3.874817	0.709695
C	-0.121043	-3.683952	-0.697430
O	0.505933	-5.499772	2.553323
O	-0.512697	-4.459055	-2.888369
C	-0.080869	-5.329063	-3.927625
H	-0.173159	-4.755694	-4.869656
H	-0.716363	-6.238095	-4.007459
H	0.978072	-5.637262	-3.789565
C	0.246949	-4.572261	3.600064
H	0.344574	-5.139743	4.544887
H	-0.779898	-4.153131	3.532074
H	0.983261	-3.739531	3.612378
C	-0.188009	-2.306654	-1.064246
S	0.278644	-2.306501	1.517360
C	0.000000	-1.435185	0.000000
H	-0.373017	-1.978138	-2.094685
H	-0.018474	-9.614033	-0.322246
C	0.000000	0.000000	0.000000
S	0.693394	0.581209	1.507541
C	1.897536	1.592607	0.718873
C	0.693330	0.580791	-1.067872
C	1.756758	1.476132	-0.686410
S	0.508573	0.422041	-2.805516
C	1.846879	1.552232	-3.054530
C	2.387897	2.009402	-1.862551
F	3.408741	2.872264	-1.819088
C	2.191300	1.838768	-4.456084
O	1.606694	1.337806	-5.406510
O	3.221062	2.712584	-4.569225
C	3.603677	3.026817	-5.916207
H	4.442623	3.739898	-5.833064
H	2.758956	3.483875	-6.470168
H	3.921969	2.114070	-6.459293
H	2.604650	2.187790	1.306486
$end

$rem
JOBTYPE		SP
EXCHANGE	HF
CORRELATION	pRIMP2
BASIS		cc-pvtz
METHOD		rimp2
AUX_BASIS	rimp2-cc-pvtz
SOLVENT_METHOD	PCM
PURECART	11111
SYMMETRY	false
MEM_TOTAL	110000
SCF_CONVERGENCE = 6
THRESH=10
GUI = 2
$end

$solvent
dielectric 4.90
$end
--------------------------------------------------------------

             Standard Nuclear Orientation (Angstroms)
    I     Atom           X                Y                Z
 ----------------------------------------------------------------
    1      C      -0.0145600000    -8.5177020000    -0.3205890000
    2      C       0.1802110000    -7.6415750000     0.7372400000
    3      S      -0.2995530000    -7.6386340000    -1.8423560000
    4      C       0.1148730000    -6.2647850000     0.3664880000
    5      H       0.3680610000    -7.9660810000     1.7685280000
    6      C      -0.1312360000    -6.0727140000    -1.0386370000
    7      C      -0.2534350000    -4.7870490000    -1.5881970000
    8      C       0.2490140000    -5.1628010000     1.2588310000
    9      C       0.1225130000    -3.8748170000     0.7096950000
   10      C      -0.1210430000    -3.6839520000    -0.6974300000
   11      O       0.5059330000    -5.4997720000     2.5533230000
   12      O      -0.5126970000    -4.4590550000    -2.8883690000
   13      C      -0.0808690000    -5.3290630000    -3.9276250000
   14      H      -0.1731590000    -4.7556940000    -4.8696560000
   15      H      -0.7163630000    -6.2380950000    -4.0074590000
   16      H       0.9780720000    -5.6372620000    -3.7895650000
   17      C       0.2469490000    -4.5722610000     3.6000640000
   18      H       0.3445740000    -5.1397430000     4.5448870000
   19      H      -0.7798980000    -4.1531310000     3.5320740000
   20      H       0.9832610000    -3.7395310000     3.6123780000
   21      C      -0.1880090000    -2.3066540000    -1.0642460000
   22      S       0.2786440000    -2.3065010000     1.5173600000
   23      C       0.0000000000    -1.4351850000     0.0000000000
   24      H      -0.3730170000    -1.9781380000    -2.0946850000
   25      H      -0.0184740000    -9.6140330000    -0.3222460000
   26      C       0.0000000000     0.0000000000     0.0000000000
   27      S       0.6933940000     0.5812090000     1.5075410000
   28      C       1.8975360000     1.5926070000     0.7188730000
   29      C       0.6933300000     0.5807910000    -1.0678720000
   30      C       1.7567580000     1.4761320000    -0.6864100000
   31      S       0.5085730000     0.4220410000    -2.8055160000
   32      C       1.8468790000     1.5522320000    -3.0545300000
   33      C       2.3878970000     2.0094020000    -1.8625510000
   34      F       3.4087410000     2.8722640000    -1.8190880000
   35      C       2.1913000000     1.8387680000    -4.4560840000
   36      O       1.6066940000     1.3378060000    -5.4065100000
   37      O       3.2210620000     2.7125840000    -4.5692250000
   38      C       3.6036770000     3.0268170000    -5.9162070000
   39      H       4.4426230000     3.7398980000    -5.8330640000
   40      H       2.7589560000     3.4838750000    -6.4701680000
   41      H       3.9219690000     2.1140700000    -6.4592930000
   42      H       2.6046500000     2.1877900000     1.3064860000
 ----------------------------------------------------------------

   10   -2754.2664021287      8.04e-07  Convergence criterion met
 Total energy in the final basis set =    -2754.2664021287
        RIMP2         total energy =     -2759.3298952329 a.u.

                    Orbital Energies (a.u.)
 --------------------------------------------------------------

 Alpha MOs
 -- Occupied --
-92.0158 -92.0095 -91.9866 -91.9827 -26.3468 -20.6160 -20.5910 -20.5861
-20.5626 -11.4112 -11.3876 -11.3314 -11.3182 -11.3169 -11.3089 -11.2996
-11.2975 -11.2901 -11.2897 -11.2866 -11.2834 -11.2829 -11.2807 -11.2779
-11.2741 -11.2576 -11.2515 -11.2472 -11.2367  -9.0155  -9.0092  -8.9875
 -8.9826  -6.6962  -6.6954  -6.6950  -6.6900  -6.6893  -6.6883  -6.6684
 -6.6677  -6.6667  -6.6636  -6.6630  -6.6622  -1.6637  -1.4686  -1.4149
 -1.4090  -1.3714  -1.2326  -1.1902  -1.1649  -1.1401  -1.0851  -1.0481
 -1.0454  -1.0280  -0.9973  -0.9876  -0.9665  -0.9580  -0.9483  -0.9390
 -0.8936  -0.8722  -0.8465  -0.8121  -0.7986  -0.7869  -0.7824  -0.7615
 -0.7564  -0.7304  -0.7284  -0.7141  -0.6995  -0.6870  -0.6832  -0.6798
 -0.6751  -0.6603  -0.6570  -0.6494  -0.6291  -0.6169  -0.6151  -0.6034
 -0.6026  -0.5856  -0.5797  -0.5703  -0.5634  -0.5615  -0.5554  -0.5424
 -0.5347  -0.5308  -0.5225  -0.5165  -0.5150  -0.5104  -0.5031  -0.4945
 -0.4877  -0.4817  -0.4767  -0.4747  -0.4685  -0.4588  -0.4572  -0.4270
 -0.3933  -0.3800  -0.3623  -0.3445  -0.3287  -0.2905  -0.2450

          Ground-State Mulliken Net Atomic Charges

     Atom                 Charge (a.u.)
  ----------------------------------------
      1 C                    -0.200437
      2 C                    -0.253043
      3 S                    -0.028216
      4 C                    -0.026396
      5 H                     0.194803
      6 C                    -0.023297
      7 C                     0.229242
      8 C                     0.245633
      9 C                    -0.052265
     10 C                    -0.007514
     11 O                    -0.333191
     12 O                    -0.342849
     13 C                    -0.086028
     14 H                     0.122082
     15 H                     0.090357
     16 H                     0.092144
     17 C                    -0.088434
     18 H                     0.125449
     19 H                     0.094498
     20 H                     0.088878
     21 C                    -0.275654
     22 S                    -0.039049
     23 C                     0.001223
     24 H                     0.185259
     25 H                     0.204330
     26 C                    -0.078708
     27 S                     0.099231
     28 C                    -0.135076
     29 C                     0.063114
     30 C                    -0.120008
     31 S                     0.050415
     32 C                    -0.159273
     33 C                     0.402481
     34 F                    -0.203643
     35 C                     0.449187
     36 O                    -0.461324
     37 O                    -0.301203
     38 C                    -0.058193
     39 H                     0.121668
     40 H                     0.095354
     41 H                     0.095432
     42 H                     0.223022
  ----------------------------------------
  Sum of atomic charges =     0.000000

                    Cartesian Multipole Moments
 -----------------------------------------------------------------
    Charge (ESU x 10^10)
                 0.0000
    Dipole Moment (Debye)
         X       3.5231      Y       2.7844      Z       3.0595
       Tot       5.4337
    Quadrupole Moments (Debye-Ang)
        XX    -191.2900     XY       7.4466     YY    -180.0831
        XZ      -7.2371     YZ      -6.0769     ZZ    -180.1084

 Total job time:  318.19s(wall), 9675.86s(cpu)
        *  Thank you very much for using Q-Chem.  Have a nice day.  *
