 Q-Chem 5.4, Q-Chem, Inc., Pleasanton, CA (2021)
 Q-Chem 5.4.0 for Intel X86 EM64T Linux

User input:
--------------------------------------------------------------
$molecule
0 1
C	0.318247	-8.517702	0.041330
C	-0.757333	-7.641575	0.049453
S	1.866383	-7.638634	0.024919
C	-0.380867	-6.264785	0.049488
H	-1.805573	-7.966081	0.055368
C	1.045647	-6.072714	0.051115
C	1.608077	-4.787049	0.026203
C	-1.282948	-5.162801	0.026637
C	-0.720187	-3.874817	-0.002586
C	0.707853	-3.683952	0.001903
O	-2.602386	-5.499772	0.054867
O	2.933517	-4.459055	-0.003348
C	3.881999	-5.329063	0.602384
H	4.825744	-4.755694	0.675079
H	4.070972	-6.238095	-0.009592
H	3.562152	-5.637262	1.621263
C	-3.588253	-4.572261	-0.381947
H	-4.535674	-5.139743	-0.449872
H	-3.342986	-4.153131	-1.381388
H	-3.728239	-3.739531	0.341040
C	1.080725	-2.306654	-0.000348
S	-1.542694	-2.306501	0.010924
C	-0.000000	-1.435185	-0.000000
H	2.127635	-1.978138	-0.003612
H	0.320559	-9.614033	0.037764
C	0.000000	0.000000	0.000000
S	0.079327	0.901280	1.507541
C	0.215617	2.467903	0.718873
C	0.079577	0.900940	-1.067872
C	0.198433	2.285998	-0.686410
S	0.061187	0.658044	-2.805516
C	0.208347	2.403534	-3.054530
C	0.267636	3.109360	-1.862551
F	0.379347	4.441341	-1.819088
C	0.249278	2.849688	-4.456084
O	0.190132	2.082076	-5.406510
O	0.359548	4.195721	-4.569225
C	0.407901	4.688467	-5.916207
H	0.496901	5.785916	-5.833064
H	-0.512596	4.414348	-6.470168
H	1.278377	4.268124	-6.459293
H	0.294764	3.388767	1.306486
$end

$rem
JOBTYPE		SP
EXCHANGE	HF
CORRELATION	pRIMP2
BASIS		cc-pvtz
METHOD		rimp2
AUX_BASIS	rimp2-cc-pvtz
SOLVENT_METHOD	PCM
PURECART	11111
SYMMETRY	false
MEM_TOTAL	110000
SCF_CONVERGENCE = 6
THRESH=10
GUI = 2
$end

$solvent
dielectric 4.90
$end
--------------------------------------------------------------

             Standard Nuclear Orientation (Angstroms)
    I     Atom           X                Y                Z
 ----------------------------------------------------------------
    1      C       0.3182470000    -8.5177020000     0.0413300000
    2      C      -0.7573330000    -7.6415750000     0.0494530000
    3      S       1.8663830000    -7.6386340000     0.0249190000
    4      C      -0.3808670000    -6.2647850000     0.0494880000
    5      H      -1.8055730000    -7.9660810000     0.0553680000
    6      C       1.0456470000    -6.0727140000     0.0511150000
    7      C       1.6080770000    -4.7870490000     0.0262030000
    8      C      -1.2829480000    -5.1628010000     0.0266370000
    9      C      -0.7201870000    -3.8748170000    -0.0025860000
   10      C       0.7078530000    -3.6839520000     0.0019030000
   11      O      -2.6023860000    -5.4997720000     0.0548670000
   12      O       2.9335170000    -4.4590550000    -0.0033480000
   13      C       3.8819990000    -5.3290630000     0.6023840000
   14      H       4.8257440000    -4.7556940000     0.6750790000
   15      H       4.0709720000    -6.2380950000    -0.0095920000
   16      H       3.5621520000    -5.6372620000     1.6212630000
   17      C      -3.5882530000    -4.5722610000    -0.3819470000
   18      H      -4.5356740000    -5.1397430000    -0.4498720000
   19      H      -3.3429860000    -4.1531310000    -1.3813880000
   20      H      -3.7282390000    -3.7395310000     0.3410400000
   21      C       1.0807250000    -2.3066540000    -0.0003480000
   22      S      -1.5426940000    -2.3065010000     0.0109240000
   23      C       0.0000000000    -1.4351850000     0.0000000000
   24      H       2.1276350000    -1.9781380000    -0.0036120000
   25      H       0.3205590000    -9.6140330000     0.0377640000
   26      C       0.0000000000     0.0000000000     0.0000000000
   27      S       0.0793270000     0.9012800000     1.5075410000
   28      C       0.2156170000     2.4679030000     0.7188730000
   29      C       0.0795770000     0.9009400000    -1.0678720000
   30      C       0.1984330000     2.2859980000    -0.6864100000
   31      S       0.0611870000     0.6580440000    -2.8055160000
   32      C       0.2083470000     2.4035340000    -3.0545300000
   33      C       0.2676360000     3.1093600000    -1.8625510000
   34      F       0.3793470000     4.4413410000    -1.8190880000
   35      C       0.2492780000     2.8496880000    -4.4560840000
   36      O       0.1901320000     2.0820760000    -5.4065100000
   37      O       0.3595480000     4.1957210000    -4.5692250000
   38      C       0.4079010000     4.6884670000    -5.9162070000
   39      H       0.4969010000     5.7859160000    -5.8330640000
   40      H      -0.5125960000     4.4143480000    -6.4701680000
   41      H       1.2783770000     4.2681240000    -6.4592930000
   42      H       0.2947640000     3.3887670000     1.3064860000
 ----------------------------------------------------------------

   10   -2754.3134883634      6.94e-07  Convergence criterion met
 Total energy in the final basis set =    -2754.3134883634
        RIMP2         total energy =     -2759.3627664878 a.u.

                    Orbital Energies (a.u.)
 --------------------------------------------------------------

 Alpha MOs
 -- Occupied --
-92.0144 -91.9964 -91.9886 -91.9866 -26.3424 -20.6141 -20.5923 -20.5919
-20.5604 -11.4085 -11.3812 -11.3191 -11.3187 -11.3086 -11.3000 -11.2963
-11.2961 -11.2914 -11.2884 -11.2869 -11.2864 -11.2863 -11.2841 -11.2832
-11.2803 -11.2606 -11.2596 -11.2588 -11.2501  -9.0128  -8.9964  -8.9890
 -8.9865  -6.6935  -6.6929  -6.6924  -6.6774  -6.6767  -6.6755  -6.6699
 -6.6692  -6.6683  -6.6675  -6.6669  -6.6660  -1.6595  -1.4665  -1.4165
 -1.4146  -1.3692  -1.2195  -1.1945  -1.1652  -1.1347  -1.0843  -1.0521
 -1.0403  -1.0215  -1.0016  -0.9877  -0.9613  -0.9604  -0.9503  -0.9385
 -0.8957  -0.8664  -0.8513  -0.8093  -0.7933  -0.7887  -0.7864  -0.7649
 -0.7548  -0.7340  -0.7244  -0.7089  -0.7006  -0.6844  -0.6833  -0.6799
 -0.6732  -0.6593  -0.6568  -0.6528  -0.6304  -0.6202  -0.6172  -0.6046
 -0.5967  -0.5848  -0.5771  -0.5700  -0.5669  -0.5615  -0.5544  -0.5507
 -0.5312  -0.5304  -0.5238  -0.5165  -0.5147  -0.5084  -0.5038  -0.4944
 -0.4896  -0.4785  -0.4753  -0.4727  -0.4699  -0.4663  -0.4611  -0.4048
 -0.3975  -0.3873  -0.3576  -0.3478  -0.3142  -0.2987  -0.2595

          Ground-State Mulliken Net Atomic Charges

     Atom                 Charge (a.u.)
  ----------------------------------------
      1 C                    -0.187261
      2 C                    -0.254348
      3 S                    -0.021809
      4 C                    -0.013479
      5 H                     0.196604
      6 C                    -0.028403
      7 C                     0.244415
      8 C                     0.239776
      9 C                    -0.050258
     10 C                    -0.031029
     11 O                    -0.333362
     12 O                    -0.339569
     13 C                    -0.085812
     14 H                     0.122785
     15 H                     0.091265
     16 H                     0.093870
     17 C                    -0.086461
     18 H                     0.124564
     19 H                     0.095211
     20 H                     0.089676
     21 C                    -0.207077
     22 S                     0.003103
     23 C                    -0.047245
     24 H                     0.197888
     25 H                     0.206577
     26 C                    -0.040937
     27 S                     0.109233
     28 C                    -0.186679
     29 C                     0.016598
     30 C                    -0.108798
     31 S                     0.006994
     32 C                    -0.155194
     33 C                     0.393070
     34 F                    -0.207209
     35 C                     0.445518
     36 O                    -0.461339
     37 O                    -0.300631
     38 C                    -0.058655
     39 H                     0.121161
     40 H                     0.095020
     41 H                     0.094963
     42 H                     0.217265
  ----------------------------------------
  Sum of atomic charges =     0.000000

                    Cartesian Multipole Moments
 -----------------------------------------------------------------
    Charge (ESU x 10^10)
                -0.0000
    Dipole Moment (Debye)
         X       0.2174      Y       0.7993      Z       3.3066
       Tot       3.4088
    Quadrupole Moments (Debye-Ang)
        XX    -178.0695     XY       0.8142     YY    -159.2050
        XZ       5.1697     YZ      -8.6631     ZZ    -205.5186

 Total job time:  283.90s(wall), 9185.21s(cpu)
        *  Thank you very much for using Q-Chem.  Have a nice day.  *
