 Q-Chem 5.4, Q-Chem, Inc., Pleasanton, CA (2021)
 Q-Chem 5.4.0 for Intel X86 EM64T Linux

User input:
--------------------------------------------------------------
$molecule
0 1
C	-0.284919	-8.517702	-0.147685
C	0.728574	-7.641575	0.212552
S	-1.745304	-7.638634	-0.661757
C	0.374824	-6.264785	0.083761
H	1.715621	-7.966081	0.565513
C	-0.965104	-6.072714	-0.405665
C	-1.502136	-4.787049	-0.574617
C	1.214687	-5.162801	0.413763
C	0.675870	-3.874817	0.248748
C	-0.664513	-3.683952	-0.243888
O	2.464209	-5.499772	0.838511
O	-2.757750	-4.459055	-1.000176
C	-3.441858	-5.329063	-1.893778
H	-4.303826	-4.755694	-2.284868
H	-3.828743	-6.238095	-1.383341
H	-2.792824	-5.637262	-2.741817
C	3.241222	-4.572261	1.586168
H	4.108274	-5.139743	1.974033
H	2.668916	-4.153131	2.441448
H	3.620041	-3.739531	0.954660
C	-1.015668	-2.306654	-0.369302
S	1.453394	-2.306501	0.517367
C	-0.000000	-1.435185	-0.000000
H	-2.000559	-1.978138	-0.724300
H	-0.288311	-9.614033	-0.145124
C	0.000000	0.000000	0.000000
S	0.783786	0.451972	1.507541
C	2.145261	1.238908	0.718873
C	0.783650	0.451572	-1.067872
C	1.986396	1.148648	-0.686410
S	0.574133	0.327317	-2.805516
C	2.088363	1.207943	-3.054530
C	2.700548	1.564221	-1.862551
F	3.855718	2.236706	-1.819088
C	2.477307	1.430318	-4.456084
O	1.814592	1.038482	-5.406510
O	3.643162	2.112042	-4.569225
C	4.074530	2.355061	-5.916207
H	5.024556	2.911627	-5.833064
H	3.322010	2.951860	-6.470168
H	4.229490	1.400910	-6.459293
H	2.944986	1.702260	1.306486
$end

$rem
JOBTYPE		SP
EXCHANGE	HF
CORRELATION	pRIMP2
BASIS		cc-pvtz
METHOD		rimp2
AUX_BASIS	rimp2-cc-pvtz
SOLVENT_METHOD	PCM
PURECART	11111
SYMMETRY	false
MEM_TOTAL	110000
SCF_CONVERGENCE = 6
THRESH=10
GUI = 2
$end

$solvent
dielectric 4.90
$end
--------------------------------------------------------------

             Standard Nuclear Orientation (Angstroms)
    I     Atom           X                Y                Z
 ----------------------------------------------------------------
    1      C      -0.2849190000    -8.5177020000    -0.1476850000
    2      C       0.7285740000    -7.6415750000     0.2125520000
    3      S      -1.7453040000    -7.6386340000    -0.6617570000
    4      C       0.3748240000    -6.2647850000     0.0837610000
    5      H       1.7156210000    -7.9660810000     0.5655130000
    6      C      -0.9651040000    -6.0727140000    -0.4056650000
    7      C      -1.5021360000    -4.7870490000    -0.5746170000
    8      C       1.2146870000    -5.1628010000     0.4137630000
    9      C       0.6758700000    -3.8748170000     0.2487480000
   10      C      -0.6645130000    -3.6839520000    -0.2438880000
   11      O       2.4642090000    -5.4997720000     0.8385110000
   12      O      -2.7577500000    -4.4590550000    -1.0001760000
   13      C      -3.4418580000    -5.3290630000    -1.8937780000
   14      H      -4.3038260000    -4.7556940000    -2.2848680000
   15      H      -3.8287430000    -6.2380950000    -1.3833410000
   16      H      -2.7928240000    -5.6372620000    -2.7418170000
   17      C       3.2412220000    -4.5722610000     1.5861680000
   18      H       4.1082740000    -5.1397430000     1.9740330000
   19      H       2.6689160000    -4.1531310000     2.4414480000
   20      H       3.6200410000    -3.7395310000     0.9546600000
   21      C      -1.0156680000    -2.3066540000    -0.3693020000
   22      S       1.4533940000    -2.3065010000     0.5173670000
   23      C       0.0000000000    -1.4351850000     0.0000000000
   24      H      -2.0005590000    -1.9781380000    -0.7243000000
   25      H      -0.2883110000    -9.6140330000    -0.1451240000
   26      C       0.0000000000     0.0000000000     0.0000000000
   27      S       0.7837860000     0.4519720000     1.5075410000
   28      C       2.1452610000     1.2389080000     0.7188730000
   29      C       0.7836500000     0.4515720000    -1.0678720000
   30      C       1.9863960000     1.1486480000    -0.6864100000
   31      S       0.5741330000     0.3273170000    -2.8055160000
   32      C       2.0883630000     1.2079430000    -3.0545300000
   33      C       2.7005480000     1.5642210000    -1.8625510000
   34      F       3.8557180000     2.2367060000    -1.8190880000
   35      C       2.4773070000     1.4303180000    -4.4560840000
   36      O       1.8145920000     1.0384820000    -5.4065100000
   37      O       3.6431620000     2.1120420000    -4.5692250000
   38      C       4.0745300000     2.3550610000    -5.9162070000
   39      H       5.0245560000     2.9116270000    -5.8330640000
   40      H       3.3220100000     2.9518600000    -6.4701680000
   41      H       4.2294900000     1.4009100000    -6.4592930000
   42      H       2.9449860000     1.7022600000     1.3064860000
 ----------------------------------------------------------------

   10   -2754.2471718044      8.99e-07  Convergence criterion met
 Total energy in the final basis set =    -2754.2471718044
        RIMP2         total energy =     -2759.3115988953 a.u.

                    Orbital Energies (a.u.)
 --------------------------------------------------------------

 Alpha MOs
 -- Occupied --
-92.0128 -92.0095 -91.9836 -91.9807 -26.3463 -20.6154 -20.5906 -20.5877
-20.5618 -11.4105 -11.3871 -11.3358 -11.3223 -11.3159 -11.3117 -11.2983
-11.2896 -11.2893 -11.2880 -11.2863 -11.2839 -11.2807 -11.2796 -11.2762
-11.2671 -11.2551 -11.2540 -11.2478 -11.2408  -9.0126  -9.0090  -8.9835
 -8.9820  -6.6932  -6.6922  -6.6921  -6.6899  -6.6891  -6.6882  -6.6645
 -6.6639  -6.6630  -6.6629  -6.6621  -6.6612  -1.6633  -1.4680  -1.4145
 -1.4106  -1.3707  -1.2345  -1.1898  -1.1650  -1.1398  -1.0839  -1.0478
 -1.0456  -1.0267  -0.9973  -0.9867  -0.9648  -0.9586  -0.9487  -0.9383
 -0.8929  -0.8719  -0.8437  -0.8130  -0.7957  -0.7848  -0.7830  -0.7628
 -0.7560  -0.7304  -0.7280  -0.7133  -0.6993  -0.6863  -0.6830  -0.6786
 -0.6746  -0.6607  -0.6571  -0.6502  -0.6290  -0.6173  -0.6156  -0.6091
 -0.5989  -0.5906  -0.5754  -0.5708  -0.5637  -0.5631  -0.5528  -0.5325
 -0.5320  -0.5305  -0.5199  -0.5144  -0.5132  -0.5112  -0.5028  -0.4915
 -0.4874  -0.4852  -0.4756  -0.4749  -0.4719  -0.4600  -0.4552  -0.4067
 -0.3959  -0.3817  -0.3533  -0.3514  -0.3135  -0.2995  -0.2538

          Ground-State Mulliken Net Atomic Charges

     Atom                 Charge (a.u.)
  ----------------------------------------
      1 C                    -0.195551
      2 C                    -0.253911
      3 S                    -0.026728
      4 C                    -0.022059
      5 H                     0.195136
      6 C                    -0.026687
      7 C                     0.236733
      8 C                     0.241793
      9 C                    -0.049488
     10 C                    -0.013164
     11 O                    -0.333896
     12 O                    -0.340554
     13 C                    -0.085724
     14 H                     0.121632
     15 H                     0.090053
     16 H                     0.093144
     17 C                    -0.086495
     18 H                     0.124767
     19 H                     0.093471
     20 H                     0.088647
     21 C                    -0.258418
     22 S                    -0.030882
     23 C                    -0.041494
     24 H                     0.192810
     25 H                     0.204987
     26 C                    -0.151430
     27 S                     0.123216
     28 C                    -0.122090
     29 C                     0.095324
     30 C                    -0.116905
     31 S                     0.057895
     32 C                    -0.153102
     33 C                     0.392811
     34 F                    -0.204087
     35 C                     0.449262
     36 O                    -0.462339
     37 O                    -0.301378
     38 C                    -0.058127
     39 H                     0.121426
     40 H                     0.095253
     41 H                     0.095363
     42 H                     0.220785
  ----------------------------------------
  Sum of atomic charges =     0.000000

                    Cartesian Multipole Moments
 -----------------------------------------------------------------
    Charge (ESU x 10^10)
                -0.0000
    Dipole Moment (Debye)
         X       4.1265      Y       1.7584      Z       2.4862
       Tot       5.1285
    Quadrupole Moments (Debye-Ang)
        XX    -171.7510     XY       7.2019     YY    -179.7493
        XZ       5.2022     YZ      -2.5396     ZZ    -196.5068

 Total job time:  350.40s(wall), 9761.48s(cpu)
        *  Thank you very much for using Q-Chem.  Have a nice day.  *
