 Q-Chem 5.4, Q-Chem, Inc., Pleasanton, CA (2021)
 Q-Chem 5.4.0 for Intel X86 EM64T Linux

User input:
--------------------------------------------------------------
$molecule
0 1
C	-0.313191	-8.517702	0.070009
C	0.694746	-7.641575	-0.305494
S	-1.762350	-7.638634	0.614924
C	0.340973	-6.264785	-0.176768
H	1.677747	-7.966081	-0.669571
C	-1.000069	-6.072714	0.309600
C	-1.520060	-4.787049	0.525372
C	1.196466	-5.162801	-0.463825
C	0.677639	-3.874817	-0.243888
C	-0.665815	-3.683952	0.240312
O	2.426678	-5.499772	-0.941626
O	-2.755460	-4.459055	1.006468
C	-3.853913	-5.329063	0.761666
H	-4.765607	-4.755694	1.016135
H	-3.822182	-6.238095	1.401368
H	-3.901833	-5.637262	-0.305161
C	3.502489	-4.572261	-0.868342
H	4.416005	-5.139743	-1.128551
H	3.613841	-4.153131	0.154712
H	3.386756	-3.739531	-1.595605
C	-1.015430	-2.306654	0.369957
S	1.445922	-2.306501	-0.537898
C	-0.000000	-1.435185	-0.000000
H	-1.998088	-1.978138	0.731088
H	-0.314143	-9.614033	0.074151
C	0.000000	0.000000	0.000000
S	0.452792	0.783312	1.507541
C	1.238397	2.145556	0.718873
C	0.452875	0.782898	-1.067872
C	1.145945	1.987956	-0.686410
S	0.333556	0.570531	-2.805516
C	1.204604	2.090290	-3.054530
C	1.556633	2.704929	-1.862551
F	2.220797	3.864903	-1.819088
C	1.430252	2.477345	-4.456084
O	1.052242	1.806648	-5.406510
O	2.099050	3.650663	-4.569225
C	2.351116	4.076808	-5.916207
H	2.895579	5.033821	-5.833064
H	1.401015	4.217390	-6.470168
H	2.962391	3.327969	-6.459293
H	1.699302	2.946693	1.306486
$end

$rem
JOBTYPE		SP
EXCHANGE	HF
CORRELATION	pRIMP2
BASIS		cc-pvtz
METHOD		rimp2
AUX_BASIS	rimp2-cc-pvtz
SOLVENT_METHOD	PCM
PURECART	11111
SYMMETRY	false
MEM_TOTAL	110000
SCF_CONVERGENCE = 6
THRESH=10
GUI = 2
$end

$solvent
dielectric 4.90
$end
--------------------------------------------------------------

             Standard Nuclear Orientation (Angstroms)
    I     Atom           X                Y                Z
 ----------------------------------------------------------------
    1      C      -0.3131910000    -8.5177020000     0.0700090000
    2      C       0.6947460000    -7.6415750000    -0.3054940000
    3      S      -1.7623500000    -7.6386340000     0.6149240000
    4      C       0.3409730000    -6.2647850000    -0.1767680000
    5      H       1.6777470000    -7.9660810000    -0.6695710000
    6      C      -1.0000690000    -6.0727140000     0.3096000000
    7      C      -1.5200600000    -4.7870490000     0.5253720000
    8      C       1.1964660000    -5.1628010000    -0.4638250000
    9      C       0.6776390000    -3.8748170000    -0.2438880000
   10      C      -0.6658150000    -3.6839520000     0.2403120000
   11      O       2.4266780000    -5.4997720000    -0.9416260000
   12      O      -2.7554600000    -4.4590550000     1.0064680000
   13      C      -3.8539130000    -5.3290630000     0.7616660000
   14      H      -4.7656070000    -4.7556940000     1.0161350000
   15      H      -3.8221820000    -6.2380950000     1.4013680000
   16      H      -3.9018330000    -5.6372620000    -0.3051610000
   17      C       3.5024890000    -4.5722610000    -0.8683420000
   18      H       4.4160050000    -5.1397430000    -1.1285510000
   19      H       3.6138410000    -4.1531310000     0.1547120000
   20      H       3.3867560000    -3.7395310000    -1.5956050000
   21      C      -1.0154300000    -2.3066540000     0.3699570000
   22      S       1.4459220000    -2.3065010000    -0.5378980000
   23      C       0.0000000000    -1.4351850000     0.0000000000
   24      H      -1.9980880000    -1.9781380000     0.7310880000
   25      H      -0.3141430000    -9.6140330000     0.0741510000
   26      C       0.0000000000     0.0000000000     0.0000000000
   27      S       0.4527920000     0.7833120000     1.5075410000
   28      C       1.2383970000     2.1455560000     0.7188730000
   29      C       0.4528750000     0.7828980000    -1.0678720000
   30      C       1.1459450000     1.9879560000    -0.6864100000
   31      S       0.3335560000     0.5705310000    -2.8055160000
   32      C       1.2046040000     2.0902900000    -3.0545300000
   33      C       1.5566330000     2.7049290000    -1.8625510000
   34      F       2.2207970000     3.8649030000    -1.8190880000
   35      C       1.4302520000     2.4773450000    -4.4560840000
   36      O       1.0522420000     1.8066480000    -5.4065100000
   37      O       2.0990500000     3.6506630000    -4.5692250000
   38      C       2.3511160000     4.0768080000    -5.9162070000
   39      H       2.8955790000     5.0338210000    -5.8330640000
   40      H       1.4010150000     4.2173900000    -6.4701680000
   41      H       2.9623910000     3.3279690000    -6.4592930000
   42      H       1.6993020000     2.9466930000     1.3064860000
 ----------------------------------------------------------------

   10   -2754.2998390076      7.85e-07  Convergence criterion met
 Total energy in the final basis set =    -2754.2998390076
        RIMP2         total energy =     -2759.3534390400 a.u.

                    Orbital Energies (a.u.)
 --------------------------------------------------------------

 Alpha MOs
 -- Occupied --
-92.0141 -91.9994 -91.9872 -91.9859 -26.3433 -20.6145 -20.5918 -20.5910
-20.5609 -11.4091 -11.3826 -11.3184 -11.3171 -11.3148 -11.3039 -11.2969
-11.2905 -11.2893 -11.2887 -11.2866 -11.2858 -11.2848 -11.2847 -11.2833
-11.2794 -11.2590 -11.2583 -11.2536 -11.2496  -9.0127  -8.9993  -8.9877
 -8.9858  -6.6934  -6.6927  -6.6922  -6.6803  -6.6796  -6.6785  -6.6686
 -6.6679  -6.6670  -6.6668  -6.6662  -6.6653  -1.6604  -1.4670  -1.4159
 -1.4137  -1.3697  -1.2227  -1.1932  -1.1645  -1.1361  -1.0839  -1.0511
 -1.0416  -1.0228  -1.0007  -0.9870  -0.9628  -0.9591  -0.9499  -0.9388
 -0.8951  -0.8677  -0.8491  -0.8117  -0.7921  -0.7872  -0.7855  -0.7646
 -0.7551  -0.7330  -0.7253  -0.7097  -0.6996  -0.6850  -0.6825  -0.6807
 -0.6737  -0.6587  -0.6576  -0.6522  -0.6296  -0.6195  -0.6168  -0.6057
 -0.5978  -0.5853  -0.5769  -0.5684  -0.5651  -0.5613  -0.5552  -0.5458
 -0.5326  -0.5306  -0.5229  -0.5155  -0.5146  -0.5088  -0.5046  -0.4954
 -0.4889  -0.4805  -0.4747  -0.4733  -0.4686  -0.4657  -0.4602  -0.4054
 -0.3991  -0.3848  -0.3552  -0.3502  -0.3180  -0.2952  -0.2575

          Ground-State Mulliken Net Atomic Charges

     Atom                 Charge (a.u.)
  ----------------------------------------
      1 C                    -0.188978
      2 C                    -0.254602
      3 S                    -0.023322
      4 C                    -0.014597
      5 H                     0.196188
      6 C                    -0.027238
      7 C                     0.239224
      8 C                     0.240300
      9 C                    -0.042905
     10 C                    -0.015032
     11 O                    -0.333428
     12 O                    -0.339877
     13 C                    -0.085769
     14 H                     0.122369
     15 H                     0.090936
     16 H                     0.094163
     17 C                    -0.086948
     18 H                     0.124967
     19 H                     0.094061
     20 H                     0.090399
     21 C                    -0.236457
     22 S                    -0.002281
     23 C                    -0.054449
     24 H                     0.196578
     25 H                     0.206230
     26 C                    -0.000537
     27 S                     0.115094
     28 C                    -0.179311
     29 C                    -0.069481
     30 C                    -0.072228
     31 S                     0.029871
     32 C                    -0.152382
     33 C                     0.391014
     34 F                    -0.206453
     35 C                     0.446504
     36 O                    -0.461273
     37 O                    -0.300988
     38 C                    -0.058370
     39 H                     0.121295
     40 H                     0.095135
     41 H                     0.095023
     42 H                     0.217555
  ----------------------------------------
  Sum of atomic charges =     0.000000

                    Cartesian Multipole Moments
 -----------------------------------------------------------------
    Charge (ESU x 10^10)
                 0.0000
    Dipole Moment (Debye)
         X       1.5996      Y       1.1050      Z       2.6545
       Tot       3.2903
    Quadrupole Moments (Debye-Ang)
        XX    -173.2969     XY       7.7775     YY    -164.6907
        XZ      -6.4903     YZ      -5.0272     ZZ    -205.8121

 Total job time:  289.48s(wall), 9076.16s(cpu)
        *  Thank you very much for using Q-Chem.  Have a nice day.  *
