 Q-Chem 5.4, Q-Chem, Inc., Pleasanton, CA (2021)
 Q-Chem 5.4.0 for Intel X86 EM64T Linux

User input:
--------------------------------------------------------------
$molecule
0 1
C	-0.014560	-8.517702	-0.320589
C	0.180211	-7.641575	0.737240
S	-0.299553	-7.638634	-1.842356
C	0.114873	-6.264785	0.366488
H	0.368061	-7.966081	1.768528
C	-0.131236	-6.072714	-1.038637
C	-0.253435	-4.787049	-1.588197
C	0.249014	-5.162801	1.258831
C	0.122513	-3.874817	0.709695
C	-0.121043	-3.683952	-0.697430
O	0.505933	-5.499772	2.553323
O	-0.512697	-4.459055	-2.888369
C	-0.080869	-5.329063	-3.927625
H	-0.173159	-4.755694	-4.869656
H	-0.716363	-6.238095	-4.007459
H	0.978072	-5.637262	-3.789565
C	0.246949	-4.572261	3.600064
H	0.344574	-5.139743	4.544887
H	-0.779898	-4.153131	3.532074
H	0.983261	-3.739531	3.612378
C	-0.188009	-2.306654	-1.064246
S	0.278644	-2.306501	1.517360
C	0.000000	-1.435185	0.000000
H	-0.373017	-1.978138	-2.094685
H	-0.018474	-9.614033	-0.322246
C	0.000000	0.000000	0.000000
S	0.234628	0.873813	1.507541
C	0.640889	2.392969	0.718873
C	0.234815	0.873434	-1.067872
C	0.592377	2.216811	-0.686410
S	0.174526	0.637422	-2.805516
C	0.622551	2.330840	-3.054530
C	0.803505	3.015647	-1.862551
F	1.144815	4.307994	-1.819088
C	0.740334	2.763108	-4.456084
O	0.548793	2.017428	-5.406510
O	1.082665	4.069544	-4.569225
C	1.215848	4.546407	-5.916207
H	1.494066	5.611729	-5.833064
H	0.261736	4.436296	-6.470168
H	2.000108	3.981294	-6.459293
H	0.878739	3.286099	1.306486
$end

$rem
JOBTYPE		SP
EXCHANGE	HF
CORRELATION	pRIMP2
BASIS		cc-pvtz
METHOD		rimp2
AUX_BASIS	rimp2-cc-pvtz
SOLVENT_METHOD	PCM
PURECART	11111
SYMMETRY	false
MEM_TOTAL	110000
SCF_CONVERGENCE = 6
THRESH=10
GUI = 2
$end

$solvent
dielectric 4.90
$end
--------------------------------------------------------------

             Standard Nuclear Orientation (Angstroms)
    I     Atom           X                Y                Z
 ----------------------------------------------------------------
    1      C      -0.0145600000    -8.5177020000    -0.3205890000
    2      C       0.1802110000    -7.6415750000     0.7372400000
    3      S      -0.2995530000    -7.6386340000    -1.8423560000
    4      C       0.1148730000    -6.2647850000     0.3664880000
    5      H       0.3680610000    -7.9660810000     1.7685280000
    6      C      -0.1312360000    -6.0727140000    -1.0386370000
    7      C      -0.2534350000    -4.7870490000    -1.5881970000
    8      C       0.2490140000    -5.1628010000     1.2588310000
    9      C       0.1225130000    -3.8748170000     0.7096950000
   10      C      -0.1210430000    -3.6839520000    -0.6974300000
   11      O       0.5059330000    -5.4997720000     2.5533230000
   12      O      -0.5126970000    -4.4590550000    -2.8883690000
   13      C      -0.0808690000    -5.3290630000    -3.9276250000
   14      H      -0.1731590000    -4.7556940000    -4.8696560000
   15      H      -0.7163630000    -6.2380950000    -4.0074590000
   16      H       0.9780720000    -5.6372620000    -3.7895650000
   17      C       0.2469490000    -4.5722610000     3.6000640000
   18      H       0.3445740000    -5.1397430000     4.5448870000
   19      H      -0.7798980000    -4.1531310000     3.5320740000
   20      H       0.9832610000    -3.7395310000     3.6123780000
   21      C      -0.1880090000    -2.3066540000    -1.0642460000
   22      S       0.2786440000    -2.3065010000     1.5173600000
   23      C       0.0000000000    -1.4351850000     0.0000000000
   24      H      -0.3730170000    -1.9781380000    -2.0946850000
   25      H      -0.0184740000    -9.6140330000    -0.3222460000
   26      C       0.0000000000     0.0000000000     0.0000000000
   27      S       0.2346280000     0.8738130000     1.5075410000
   28      C       0.6408890000     2.3929690000     0.7188730000
   29      C       0.2348150000     0.8734340000    -1.0678720000
   30      C       0.5923770000     2.2168110000    -0.6864100000
   31      S       0.1745260000     0.6374220000    -2.8055160000
   32      C       0.6225510000     2.3308400000    -3.0545300000
   33      C       0.8035050000     3.0156470000    -1.8625510000
   34      F       1.1448150000     4.3079940000    -1.8190880000
   35      C       0.7403340000     2.7631080000    -4.4560840000
   36      O       0.5487930000     2.0174280000    -5.4065100000
   37      O       1.0826650000     4.0695440000    -4.5692250000
   38      C       1.2158480000     4.5464070000    -5.9162070000
   39      H       1.4940660000     5.6117290000    -5.8330640000
   40      H       0.2617360000     4.4362960000    -6.4701680000
   41      H       2.0001080000     3.9812940000    -6.4592930000
   42      H       0.8787390000     3.2860990000     1.3064860000
 ----------------------------------------------------------------

   10   -2754.3124139952      7.43e-07  Convergence criterion met
 Total energy in the final basis set =    -2754.3124139952
        RIMP2         total energy =     -2759.3661777089 a.u.

                    Orbital Energies (a.u.)
 --------------------------------------------------------------

 Alpha MOs
 -- Occupied --
-92.0164 -92.0005 -91.9912 -91.9861 -26.3439 -20.6150 -20.5929 -20.5906
-20.5615 -11.4097 -11.3834 -11.3200 -11.3168 -11.3120 -11.3016 -11.3003
-11.2981 -11.2976 -11.2889 -11.2877 -11.2864 -11.2864 -11.2852 -11.2841
-11.2791 -11.2621 -11.2582 -11.2546 -11.2498  -9.0152  -9.0005  -8.9918
 -8.9860  -6.6959  -6.6954  -6.6948  -6.6815  -6.6807  -6.6796  -6.6728
 -6.6721  -6.6712  -6.6670  -6.6664  -6.6655  -1.6609  -1.4675  -1.4169
 -1.4134  -1.3702  -1.2231  -1.1949  -1.1663  -1.1374  -1.0858  -1.0521
 -1.0425  -1.0243  -1.0018  -0.9887  -0.9644  -0.9599  -0.9505  -0.9396
 -0.8966  -0.8687  -0.8521  -0.8089  -0.7991  -0.7884  -0.7860  -0.7642
 -0.7556  -0.7343  -0.7258  -0.7105  -0.7020  -0.6860  -0.6835  -0.6812
 -0.6740  -0.6593  -0.6590  -0.6522  -0.6308  -0.6197  -0.6169  -0.6021
 -0.5989  -0.5856  -0.5794  -0.5712  -0.5650  -0.5605  -0.5563  -0.5492
 -0.5359  -0.5306  -0.5230  -0.5197  -0.5172  -0.5117  -0.5053  -0.4955
 -0.4873  -0.4814  -0.4775  -0.4744  -0.4698  -0.4651  -0.4604  -0.4272
 -0.3965  -0.3841  -0.3613  -0.3486  -0.3279  -0.2895  -0.2499

          Ground-State Mulliken Net Atomic Charges

     Atom                 Charge (a.u.)
  ----------------------------------------
      1 C                    -0.190267
      2 C                    -0.254384
      3 S                    -0.022024
      4 C                    -0.016759
      5 H                     0.196067
      6 C                    -0.026871
      7 C                     0.244871
      8 C                     0.241942
      9 C                    -0.040216
     10 C                    -0.025706
     11 O                    -0.332872
     12 O                    -0.341086
     13 C                    -0.086409
     14 H                     0.123584
     15 H                     0.091506
     16 H                     0.093809
     17 C                    -0.088754
     18 H                     0.126004
     19 H                     0.095035
     20 H                     0.089568
     21 C                    -0.228855
     22 S                    -0.040023
     23 C                    -0.027224
     24 H                     0.189811
     25 H                     0.206217
     26 C                     0.018685
     27 S                     0.079738
     28 C                    -0.183180
     29 C                     0.027407
     30 C                    -0.121085
     31 S                     0.007116
     32 C                    -0.161613
     33 C                     0.404541
     34 F                    -0.205910
     35 C                     0.445047
     36 O                    -0.461016
     37 O                    -0.300906
     38 C                    -0.058485
     39 H                     0.121494
     40 H                     0.095201
     41 H                     0.095171
     42 H                     0.220831
  ----------------------------------------
  Sum of atomic charges =     0.000000

                    Cartesian Multipole Moments
 -----------------------------------------------------------------
    Charge (ESU x 10^10)
                 0.0000
    Dipole Moment (Debye)
         X       1.0407      Y       1.2936      Z       3.0697
       Tot       3.4899
    Quadrupole Moments (Debye-Ang)
        XX    -201.0751     XY       2.7488     YY    -161.0553
        XZ      -3.4325     YZ      -7.0805     ZZ    -180.9343

 Total job time:  322.86s(wall), 9353.10s(cpu)
        *  Thank you very much for using Q-Chem.  Have a nice day.  *
