 Q-Chem 5.4, Q-Chem, Inc., Pleasanton, CA (2021)
 Q-Chem 5.4.0 for Intel X86 EM64T Linux

User input:
--------------------------------------------------------------
$molecule
0 1
C	-0.172904	-8.517702	-0.270358
C	0.524688	-7.641575	0.548363
S	-1.180599	-7.638634	-1.445750
C	0.282727	-6.264785	0.259951
H	1.203014	-7.966081	1.347559
C	-0.632972	-6.072714	-0.833868
C	-1.013580	-4.787049	-1.248701
C	0.845068	-5.162801	0.965673
C	0.460946	-3.874817	0.553357
C	-0.453541	-3.683952	-0.543470
O	1.714812	-5.499772	1.958276
O	-1.888193	-4.459055	-2.245053
C	-2.033848	-5.329063	-3.360989
H	-2.584788	-4.755694	-4.130667
H	-2.624118	-6.238095	-3.112380
H	-1.047748	-5.637262	-3.770895
C	2.013896	-4.572261	2.994272
H	2.570853	-5.139743	3.763700
H	1.090625	-4.153131	3.448815
H	2.657717	-3.739531	2.636780
C	-0.694943	-2.306654	-0.827659
S	0.999993	-2.306501	1.174750
C	-0.000000	-1.435185	-0.000000
H	-1.370385	-1.978138	-1.627541
H	-0.177122	-9.614033	-0.269836
C	0.000000	0.000000	0.000000
S	0.452792	0.783312	1.507541
C	1.238397	2.145556	0.718873
C	0.452875	0.782898	-1.067872
C	1.145945	1.987956	-0.686410
S	0.333556	0.570531	-2.805516
C	1.204604	2.090290	-3.054530
C	1.556633	2.704929	-1.862551
F	2.220797	3.864903	-1.819088
C	1.430252	2.477345	-4.456084
O	1.052242	1.806648	-5.406510
O	2.099050	3.650663	-4.569225
C	2.351116	4.076808	-5.916207
H	2.895579	5.033821	-5.833064
H	1.401015	4.217390	-6.470168
H	2.962391	3.327969	-6.459293
H	1.699302	2.946693	1.306486
$end

$rem
JOBTYPE		SP
EXCHANGE	HF
CORRELATION	pRIMP2
BASIS		cc-pvtz
METHOD		rimp2
AUX_BASIS	rimp2-cc-pvtz
SOLVENT_METHOD	PCM
PURECART	11111
SYMMETRY	false
MEM_TOTAL	110000
SCF_CONVERGENCE = 6
THRESH=10
GUI = 2
$end

$solvent
dielectric 4.90
$end
--------------------------------------------------------------

             Standard Nuclear Orientation (Angstroms)
    I     Atom           X                Y                Z
 ----------------------------------------------------------------
    1      C      -0.1729040000    -8.5177020000    -0.2703580000
    2      C       0.5246880000    -7.6415750000     0.5483630000
    3      S      -1.1805990000    -7.6386340000    -1.4457500000
    4      C       0.2827270000    -6.2647850000     0.2599510000
    5      H       1.2030140000    -7.9660810000     1.3475590000
    6      C      -0.6329720000    -6.0727140000    -0.8338680000
    7      C      -1.0135800000    -4.7870490000    -1.2487010000
    8      C       0.8450680000    -5.1628010000     0.9656730000
    9      C       0.4609460000    -3.8748170000     0.5533570000
   10      C      -0.4535410000    -3.6839520000    -0.5434700000
   11      O       1.7148120000    -5.4997720000     1.9582760000
   12      O      -1.8881930000    -4.4590550000    -2.2450530000
   13      C      -2.0338480000    -5.3290630000    -3.3609890000
   14      H      -2.5847880000    -4.7556940000    -4.1306670000
   15      H      -2.6241180000    -6.2380950000    -3.1123800000
   16      H      -1.0477480000    -5.6372620000    -3.7708950000
   17      C       2.0138960000    -4.5722610000     2.9942720000
   18      H       2.5708530000    -5.1397430000     3.7637000000
   19      H       1.0906250000    -4.1531310000     3.4488150000
   20      H       2.6577170000    -3.7395310000     2.6367800000
   21      C      -0.6949430000    -2.3066540000    -0.8276590000
   22      S       0.9999930000    -2.3065010000     1.1747500000
   23      C       0.0000000000    -1.4351850000     0.0000000000
   24      H      -1.3703850000    -1.9781380000    -1.6275410000
   25      H      -0.1771220000    -9.6140330000    -0.2698360000
   26      C       0.0000000000     0.0000000000     0.0000000000
   27      S       0.4527920000     0.7833120000     1.5075410000
   28      C       1.2383970000     2.1455560000     0.7188730000
   29      C       0.4528750000     0.7828980000    -1.0678720000
   30      C       1.1459450000     1.9879560000    -0.6864100000
   31      S       0.3335560000     0.5705310000    -2.8055160000
   32      C       1.2046040000     2.0902900000    -3.0545300000
   33      C       1.5566330000     2.7049290000    -1.8625510000
   34      F       2.2207970000     3.8649030000    -1.8190880000
   35      C       1.4302520000     2.4773450000    -4.4560840000
   36      O       1.0522420000     1.8066480000    -5.4065100000
   37      O       2.0990500000     3.6506630000    -4.5692250000
   38      C       2.3511160000     4.0768080000    -5.9162070000
   39      H       2.8955790000     5.0338210000    -5.8330640000
   40      H       1.4010150000     4.2173900000    -6.4701680000
   41      H       2.9623910000     3.3279690000    -6.4592930000
   42      H       1.6993020000     2.9466930000     1.3064860000
 ----------------------------------------------------------------

   10   -2754.3001618542      7.06e-07  Convergence criterion met
 Total energy in the final basis set =    -2754.3001618542
        RIMP2         total energy =     -2759.3553012690 a.u.

                    Orbital Energies (a.u.)
 --------------------------------------------------------------

 Alpha MOs
 -- Occupied --
-92.0153 -92.0012 -91.9903 -91.9851 -26.3441 -20.6150 -20.5923 -20.5894
-20.5614 -11.4097 -11.3836 -11.3189 -11.3163 -11.3147 -11.3064 -11.2978
-11.2954 -11.2936 -11.2889 -11.2873 -11.2864 -11.2847 -11.2834 -11.2830
-11.2779 -11.2599 -11.2564 -11.2494 -11.2491  -9.0142  -9.0011  -8.9907
 -8.9850  -6.6949  -6.6943  -6.6938  -6.6820  -6.6813  -6.6802  -6.6717
 -6.6710  -6.6700  -6.6660  -6.6654  -6.6645  -1.6611  -1.4675  -1.4162
 -1.4123  -1.3702  -1.2245  -1.1931  -1.1652  -1.1375  -1.0844  -1.0506
 -1.0427  -1.0243  -1.0004  -0.9875  -0.9637  -0.9596  -0.9497  -0.9389
 -0.8953  -0.8689  -0.8498  -0.8094  -0.7971  -0.7869  -0.7856  -0.7635
 -0.7555  -0.7326  -0.7259  -0.7107  -0.7010  -0.6855  -0.6820  -0.6809
 -0.6740  -0.6586  -0.6582  -0.6515  -0.6296  -0.6189  -0.6164  -0.6038
 -0.5993  -0.5881  -0.5772  -0.5702  -0.5650  -0.5611  -0.5550  -0.5437
 -0.5347  -0.5309  -0.5213  -0.5168  -0.5155  -0.5113  -0.5043  -0.4942
 -0.4875  -0.4821  -0.4749  -0.4745  -0.4688  -0.4660  -0.4609  -0.4192
 -0.3958  -0.3836  -0.3578  -0.3500  -0.3227  -0.2928  -0.2517

          Ground-State Mulliken Net Atomic Charges

     Atom                 Charge (a.u.)
  ----------------------------------------
      1 C                    -0.192388
      2 C                    -0.254185
      3 S                    -0.023795
      4 C                    -0.018230
      5 H                     0.195770
      6 C                    -0.025306
      7 C                     0.234615
      8 C                     0.241383
      9 C                    -0.049210
     10 C                    -0.017269
     11 O                    -0.332977
     12 O                    -0.340756
     13 C                    -0.085856
     14 H                     0.122577
     15 H                     0.090728
     16 H                     0.093610
     17 C                    -0.087596
     18 H                     0.125317
     19 H                     0.094371
     20 H                     0.089434
     21 C                    -0.260832
     22 S                    -0.014599
     23 C                    -0.023690
     24 H                     0.198228
     25 H                     0.205698
     26 C                    -0.023481
     27 S                     0.085315
     28 C                    -0.164084
     29 C                     0.029813
     30 C                    -0.104606
     31 S                     0.020001
     32 C                    -0.152262
     33 C                     0.392651
     34 F                    -0.205683
     35 C                     0.446452
     36 O                    -0.460875
     37 O                    -0.301019
     38 C                    -0.058376
     39 H                     0.121425
     40 H                     0.095129
     41 H                     0.095199
     42 H                     0.219359
  ----------------------------------------
  Sum of atomic charges =     0.000000

                    Cartesian Multipole Moments
 -----------------------------------------------------------------
    Charge (ESU x 10^10)
                 0.0000
    Dipole Moment (Debye)
         X       1.9790      Y       1.6173      Z       2.9131
       Tot       3.8753
    Quadrupole Moments (Debye-Ang)
        XX    -193.0720     XY       5.9172     YY    -166.8958
        XZ       6.3112     YZ      -5.8431     ZZ    -185.8111

 Total job time:  281.10s(wall), 8881.04s(cpu)
        *  Thank you very much for using Q-Chem.  Have a nice day.  *
