 Q-Chem 5.4, Q-Chem, Inc., Pleasanton, CA (2021)
 Q-Chem 5.4.0 for Intel X86 EM64T Linux

User input:
--------------------------------------------------------------
$molecule
0 1
C	-0.123330	-8.517702	-0.296276
C	0.421494	-7.641575	0.631143
S	-0.911611	-7.638634	-1.628795
C	0.233291	-6.264785	0.305097
H	0.950737	-7.966081	1.535988
C	-0.478557	-6.072714	-0.931114
C	-0.781346	-4.787049	-1.405737
C	0.664542	-5.162801	1.097747
C	0.357854	-3.874817	0.624993
C	-0.352278	-3.683952	-0.613970
O	1.348709	-5.499772	2.226300
O	-1.469658	-4.459055	-2.538827
C	-1.419319	-5.329063	-3.663102
H	-1.828237	-4.755694	-4.516756
H	-2.043793	-6.238095	-3.520769
H	-0.377021	-5.637262	-3.895546
C	1.463351	-4.572261	3.298492
H	1.878237	-5.139743	4.152945
H	0.475176	-4.153131	3.585804
H	2.159469	-3.739531	3.058230
C	-0.540664	-2.306654	-0.935761
S	0.780808	-2.306501	1.330550
C	0.000000	-1.435185	0.000000
H	-1.066946	-1.978138	-1.840780
H	-0.127575	-9.614033	-0.296494
C	0.000000	0.000000	0.000000
S	0.234628	0.873813	1.507541
C	0.640889	2.392969	0.718873
C	0.234815	0.873434	-1.067872
C	0.592377	2.216811	-0.686410
S	0.174526	0.637422	-2.805516
C	0.622551	2.330840	-3.054530
C	0.803505	3.015647	-1.862551
F	1.144815	4.307994	-1.819088
C	0.740334	2.763108	-4.456084
O	0.548793	2.017428	-5.406510
O	1.082665	4.069544	-4.569225
C	1.215848	4.546407	-5.916207
H	1.494066	5.611729	-5.833064
H	0.261736	4.436296	-6.470168
H	2.000108	3.981294	-6.459293
H	0.878739	3.286099	1.306486
$end

$rem
JOBTYPE		SP
EXCHANGE	HF
CORRELATION	pRIMP2
BASIS		cc-pvtz
METHOD		rimp2
AUX_BASIS	rimp2-cc-pvtz
SOLVENT_METHOD	PCM
PURECART	11111
SYMMETRY	false
MEM_TOTAL	110000
SCF_CONVERGENCE = 6
THRESH=10
GUI = 2
$end

$solvent
dielectric 4.90
$end
--------------------------------------------------------------

             Standard Nuclear Orientation (Angstroms)
    I     Atom           X                Y                Z
 ----------------------------------------------------------------
    1      C      -0.1233300000    -8.5177020000    -0.2962760000
    2      C       0.4214940000    -7.6415750000     0.6311430000
    3      S      -0.9116110000    -7.6386340000    -1.6287950000
    4      C       0.2332910000    -6.2647850000     0.3050970000
    5      H       0.9507370000    -7.9660810000     1.5359880000
    6      C      -0.4785570000    -6.0727140000    -0.9311140000
    7      C      -0.7813460000    -4.7870490000    -1.4057370000
    8      C       0.6645420000    -5.1628010000     1.0977470000
    9      C       0.3578540000    -3.8748170000     0.6249930000
   10      C      -0.3522780000    -3.6839520000    -0.6139700000
   11      O       1.3487090000    -5.4997720000     2.2263000000
   12      O      -1.4696580000    -4.4590550000    -2.5388270000
   13      C      -1.4193190000    -5.3290630000    -3.6631020000
   14      H      -1.8282370000    -4.7556940000    -4.5167560000
   15      H      -2.0437930000    -6.2380950000    -3.5207690000
   16      H      -0.3770210000    -5.6372620000    -3.8955460000
   17      C       1.4633510000    -4.5722610000     3.2984920000
   18      H       1.8782370000    -5.1397430000     4.1529450000
   19      H       0.4751760000    -4.1531310000     3.5858040000
   20      H       2.1594690000    -3.7395310000     3.0582300000
   21      C      -0.5406640000    -2.3066540000    -0.9357610000
   22      S       0.7808080000    -2.3065010000     1.3305500000
   23      C       0.0000000000    -1.4351850000     0.0000000000
   24      H      -1.0669460000    -1.9781380000    -1.8407800000
   25      H      -0.1275750000    -9.6140330000    -0.2964940000
   26      C       0.0000000000     0.0000000000     0.0000000000
   27      S       0.2346280000     0.8738130000     1.5075410000
   28      C       0.6408890000     2.3929690000     0.7188730000
   29      C       0.2348150000     0.8734340000    -1.0678720000
   30      C       0.5923770000     2.2168110000    -0.6864100000
   31      S       0.1745260000     0.6374220000    -2.8055160000
   32      C       0.6225510000     2.3308400000    -3.0545300000
   33      C       0.8035050000     3.0156470000    -1.8625510000
   34      F       1.1448150000     4.3079940000    -1.8190880000
   35      C       0.7403340000     2.7631080000    -4.4560840000
   36      O       0.5487930000     2.0174280000    -5.4065100000
   37      O       1.0826650000     4.0695440000    -4.5692250000
   38      C       1.2158480000     4.5464070000    -5.9162070000
   39      H       1.4940660000     5.6117290000    -5.8330640000
   40      H       0.2617360000     4.4362960000    -6.4701680000
   41      H       2.0001080000     3.9812940000    -6.4592930000
   42      H       0.8787390000     3.2860990000     1.3064860000
 ----------------------------------------------------------------

   10   -2754.3128896489      7.21e-07  Convergence criterion met
 Total energy in the final basis set =    -2754.3128896489
        RIMP2         total energy =     -2759.3655642721 a.u.

                    Orbital Energies (a.u.)
 --------------------------------------------------------------

 Alpha MOs
 -- Occupied --
-92.0159 -91.9993 -91.9915 -91.9861 -26.3435 -20.6148 -20.5929 -20.5906
-20.5613 -11.4095 -11.3827 -11.3199 -11.3168 -11.3111 -11.3016 -11.2997
-11.2977 -11.2966 -11.2888 -11.2877 -11.2860 -11.2858 -11.2853 -11.2840
-11.2792 -11.2616 -11.2583 -11.2545 -11.2498  -9.0146  -8.9992  -8.9920
 -8.9860  -6.6954  -6.6948  -6.6943  -6.6802  -6.6795  -6.6784  -6.6730
 -6.6723  -6.6713  -6.6670  -6.6664  -6.6655  -1.6605  -1.4673  -1.4169
 -1.4134  -1.3700  -1.2224  -1.1947  -1.1661  -1.1368  -1.0853  -1.0520
 -1.0420  -1.0237  -1.0018  -0.9883  -0.9638  -0.9599  -0.9504  -0.9392
 -0.8964  -0.8682  -0.8519  -0.8085  -0.7984  -0.7877  -0.7863  -0.7643
 -0.7554  -0.7340  -0.7254  -0.7100  -0.7018  -0.6854  -0.6832  -0.6808
 -0.6739  -0.6593  -0.6583  -0.6523  -0.6305  -0.6197  -0.6170  -0.6030
 -0.5984  -0.5866  -0.5783  -0.5706  -0.5655  -0.5602  -0.5557  -0.5481
 -0.5356  -0.5307  -0.5222  -0.5183  -0.5168  -0.5113  -0.5051  -0.4951
 -0.4877  -0.4809  -0.4763  -0.4742  -0.4691  -0.4671  -0.4613  -0.4225
 -0.3963  -0.3847  -0.3596  -0.3496  -0.3254  -0.2908  -0.2516

          Ground-State Mulliken Net Atomic Charges

     Atom                 Charge (a.u.)
  ----------------------------------------
      1 C                    -0.189915
      2 C                    -0.254278
      3 S                    -0.022076
      4 C                    -0.015994
      5 H                     0.196082
      6 C                    -0.026705
      7 C                     0.241498
      8 C                     0.240268
      9 C                    -0.044398
     10 C                    -0.022883
     11 O                    -0.332847
     12 O                    -0.340383
     13 C                    -0.085912
     14 H                     0.123260
     15 H                     0.090974
     16 H                     0.093960
     17 C                    -0.088030
     18 H                     0.125546
     19 H                     0.094728
     20 H                     0.089672
     21 C                    -0.243983
     22 S                    -0.023924
     23 C                    -0.030342
     24 H                     0.196291
     25 H                     0.206222
     26 C                     0.003339
     27 S                     0.081034
     28 C                    -0.177863
     29 C                     0.031927
     30 C                    -0.115351
     31 S                     0.008384
     32 C                    -0.154864
     33 C                     0.396023
     34 F                    -0.206275
     35 C                     0.445570
     36 O                    -0.460689
     37 O                    -0.300784
     38 C                    -0.058442
     39 H                     0.121393
     40 H                     0.095103
     41 H                     0.095131
     42 H                     0.219536
  ----------------------------------------
  Sum of atomic charges =     0.000000

                    Cartesian Multipole Moments
 -----------------------------------------------------------------
    Charge (ESU x 10^10)
                 0.0000
    Dipole Moment (Debye)
         X       1.0502      Y       1.2060      Z       2.9810
       Tot       3.3829
    Quadrupole Moments (Debye-Ang)
        XX    -199.1005     XY       2.8598     YY    -161.2340
        XZ       5.0150     YZ      -6.5535     ZZ    -183.0320

 Total job time:  315.25s(wall), 10589.64s(cpu)
        *  Thank you very much for using Q-Chem.  Have a nice day.  *
