 Q-Chem 5.4, Q-Chem, Inc., Pleasanton, CA (2021)
 Q-Chem 5.4.0 for Intel X86 EM64T Linux

User input:
--------------------------------------------------------------
$molecule
0 1
C	-0.270358	-8.517702	0.172904
C	0.548363	-7.641575	-0.524688
S	-1.445750	-7.638634	1.180599
C	0.259951	-6.264785	-0.282727
H	1.347559	-7.966081	-1.203014
C	-0.833868	-6.072714	0.632972
C	-1.248701	-4.787049	1.013580
C	0.965673	-5.162801	-0.845068
C	0.553357	-3.874817	-0.460946
C	-0.543470	-3.683952	0.453541
O	1.958276	-5.499772	-1.714812
O	-2.245053	-4.459055	1.888193
C	-3.360989	-5.329063	2.033848
H	-4.130667	-4.755694	2.584788
H	-3.112380	-6.238095	2.624118
H	-3.770895	-5.637262	1.047748
C	2.994272	-4.572261	-2.013896
H	3.763700	-5.139743	-2.570853
H	3.448815	-4.153131	-1.090625
H	2.636780	-3.739531	-2.657717
C	-0.827659	-2.306654	0.694943
S	1.174750	-2.306501	-0.999993
C	-0.000000	-1.435185	-0.000000
H	-1.627541	-1.978138	1.370385
H	-0.269836	-9.614033	0.177122
C	0.000000	0.000000	0.000000
S	0.157577	0.890937	1.507541
C	0.429889	2.439720	0.718873
C	0.157797	0.890576	-1.067872
C	0.396915	2.260004	-0.686410
S	0.118307	0.650207	-2.805516
C	0.417036	2.376229	-3.054530
C	0.537616	3.074202	-1.862551
F	0.764992	4.391378	-1.819088
C	0.496696	2.817118	-4.456084
O	0.370874	2.057582	-5.406510
O	0.723861	4.148418	-4.569225
C	0.814976	4.635075	-5.916207
H	0.999286	5.720591	-5.833064
H	-0.125909	4.442226	-6.470168
H	1.645504	4.140465	-6.459293
H	0.588993	3.350182	1.306486
$end

$rem
JOBTYPE		SP
EXCHANGE	HF
CORRELATION	pRIMP2
BASIS		cc-pvtz
METHOD		rimp2
AUX_BASIS	rimp2-cc-pvtz
SOLVENT_METHOD	PCM
PURECART	11111
SYMMETRY	false
MEM_TOTAL	110000
SCF_CONVERGENCE = 6
THRESH=10
GUI = 2
$end

$solvent
dielectric 4.90
$end
--------------------------------------------------------------

             Standard Nuclear Orientation (Angstroms)
    I     Atom           X                Y                Z
 ----------------------------------------------------------------
    1      C      -0.2703580000    -8.5177020000     0.1729040000
    2      C       0.5483630000    -7.6415750000    -0.5246880000
    3      S      -1.4457500000    -7.6386340000     1.1805990000
    4      C       0.2599510000    -6.2647850000    -0.2827270000
    5      H       1.3475590000    -7.9660810000    -1.2030140000
    6      C      -0.8338680000    -6.0727140000     0.6329720000
    7      C      -1.2487010000    -4.7870490000     1.0135800000
    8      C       0.9656730000    -5.1628010000    -0.8450680000
    9      C       0.5533570000    -3.8748170000    -0.4609460000
   10      C      -0.5434700000    -3.6839520000     0.4535410000
   11      O       1.9582760000    -5.4997720000    -1.7148120000
   12      O      -2.2450530000    -4.4590550000     1.8881930000
   13      C      -3.3609890000    -5.3290630000     2.0338480000
   14      H      -4.1306670000    -4.7556940000     2.5847880000
   15      H      -3.1123800000    -6.2380950000     2.6241180000
   16      H      -3.7708950000    -5.6372620000     1.0477480000
   17      C       2.9942720000    -4.5722610000    -2.0138960000
   18      H       3.7637000000    -5.1397430000    -2.5708530000
   19      H       3.4488150000    -4.1531310000    -1.0906250000
   20      H       2.6367800000    -3.7395310000    -2.6577170000
   21      C      -0.8276590000    -2.3066540000     0.6949430000
   22      S       1.1747500000    -2.3065010000    -0.9999930000
   23      C       0.0000000000    -1.4351850000     0.0000000000
   24      H      -1.6275410000    -1.9781380000     1.3703850000
   25      H      -0.2698360000    -9.6140330000     0.1771220000
   26      C       0.0000000000     0.0000000000     0.0000000000
   27      S       0.1575770000     0.8909370000     1.5075410000
   28      C       0.4298890000     2.4397200000     0.7188730000
   29      C       0.1577970000     0.8905760000    -1.0678720000
   30      C       0.3969150000     2.2600040000    -0.6864100000
   31      S       0.1183070000     0.6502070000    -2.8055160000
   32      C       0.4170360000     2.3762290000    -3.0545300000
   33      C       0.5376160000     3.0742020000    -1.8625510000
   34      F       0.7649920000     4.3913780000    -1.8190880000
   35      C       0.4966960000     2.8171180000    -4.4560840000
   36      O       0.3708740000     2.0575820000    -5.4065100000
   37      O       0.7238610000     4.1484180000    -4.5692250000
   38      C       0.8149760000     4.6350750000    -5.9162070000
   39      H       0.9992860000     5.7205910000    -5.8330640000
   40      H      -0.1259090000     4.4422260000    -6.4701680000
   41      H       1.6455040000     4.1404650000    -6.4592930000
   42      H       0.5889930000     3.3501820000     1.3064860000
 ----------------------------------------------------------------

   10   -2754.3144634022      7.25e-07  Convergence criterion met
 Total energy in the final basis set =    -2754.3144634022
        RIMP2         total energy =     -2759.3656609099 a.u.

                    Orbital Energies (a.u.)
 --------------------------------------------------------------

 Alpha MOs
 -- Occupied --
-92.0152 -91.9972 -91.9900 -91.9865 -26.3427 -20.6144 -20.5923 -20.5917
-20.5608 -11.4089 -11.3815 -11.3195 -11.3181 -11.3088 -11.2999 -11.2983
-11.2967 -11.2941 -11.2886 -11.2868 -11.2863 -11.2863 -11.2843 -11.2842
-11.2799 -11.2611 -11.2591 -11.2568 -11.2500  -9.0136  -8.9972  -8.9904
 -8.9864  -6.6943  -6.6937  -6.6932  -6.6782  -6.6775  -6.6764  -6.6713
 -6.6706  -6.6697  -6.6674  -6.6668  -6.6659  -1.6598  -1.4668  -1.4164
 -1.4144  -1.3695  -1.2208  -1.1946  -1.1656  -1.1354  -1.0850  -1.0521
 -1.0408  -1.0226  -1.0020  -0.9879  -0.9632  -0.9590  -0.9502  -0.9394
 -0.8959  -0.8671  -0.8515  -0.8125  -0.7916  -0.7875  -0.7869  -0.7652
 -0.7550  -0.7340  -0.7247  -0.7094  -0.6994  -0.6849  -0.6834  -0.6807
 -0.6735  -0.6592  -0.6575  -0.6527  -0.6305  -0.6201  -0.6170  -0.6044
 -0.5970  -0.5845  -0.5779  -0.5695  -0.5665  -0.5593  -0.5567  -0.5524
 -0.5320  -0.5300  -0.5244  -0.5166  -0.5154  -0.5077  -0.5071  -0.4963
 -0.4888  -0.4791  -0.4758  -0.4732  -0.4698  -0.4654  -0.4600  -0.4151
 -0.3977  -0.3853  -0.3574  -0.3496  -0.3229  -0.2907  -0.2555

          Ground-State Mulliken Net Atomic Charges

     Atom                 Charge (a.u.)
  ----------------------------------------
      1 C                    -0.188343
      2 C                    -0.253982
      3 S                    -0.022337
      4 C                    -0.014955
      5 H                     0.196536
      6 C                    -0.026297
      7 C                     0.242293
      8 C                     0.239993
      9 C                    -0.041228
     10 C                    -0.017343
     11 O                    -0.333103
     12 O                    -0.340096
     13 C                    -0.085808
     14 H                     0.122484
     15 H                     0.091196
     16 H                     0.094283
     17 C                    -0.087450
     18 H                     0.125246
     19 H                     0.094509
     20 H                     0.090842
     21 C                    -0.253132
     22 S                    -0.010369
     23 C                    -0.020189
     24 H                     0.196831
     25 H                     0.206454
     26 C                     0.019316
     27 S                     0.108612
     28 C                    -0.191993
     29 C                    -0.044084
     30 C                    -0.097743
     31 S                     0.013793
     32 C                    -0.154895
     33 C                     0.395234
     34 F                    -0.207279
     35 C                     0.444497
     36 O                    -0.460996
     37 O                    -0.300660
     38 C                    -0.058598
     39 H                     0.121269
     40 H                     0.095136
     41 H                     0.094962
     42 H                     0.217394
  ----------------------------------------
  Sum of atomic charges =     0.000000

                    Cartesian Multipole Moments
 -----------------------------------------------------------------
    Charge (ESU x 10^10)
                -0.0000
    Dipole Moment (Debye)
         X       0.4286      Y       0.8898      Z       2.7528
       Tot       2.9246
    Quadrupole Moments (Debye-Ang)
        XX    -181.4528     XY       3.7463     YY    -159.9635
        XZ     -11.4374     YZ      -6.2518     ZZ    -201.4754

 Total job time:  306.07s(wall), 9186.62s(cpu)
        *  Thank you very much for using Q-Chem.  Have a nice day.  *
