 Q-Chem 5.4, Q-Chem, Inc., Pleasanton, CA (2021)
 Q-Chem 5.4.0 for Intel X86 EM64T Linux

User input:
--------------------------------------------------------------
$molecule
0 1
C	-0.296276	-8.517702	0.123330
C	0.631143	-7.641575	-0.421494
S	-1.628795	-7.638634	0.911611
C	0.305097	-6.264785	-0.233291
H	1.535988	-7.966081	-0.950737
C	-0.931114	-6.072714	0.478557
C	-1.405737	-4.787049	0.781346
C	1.097747	-5.162801	-0.664542
C	0.624993	-3.874817	-0.357854
C	-0.613970	-3.683952	0.352278
O	2.226300	-5.499772	-1.348709
O	-2.538827	-4.459055	1.469658
C	-3.663102	-5.329063	1.419319
H	-4.516756	-4.755694	1.828237
H	-3.520769	-6.238095	2.043793
H	-3.895546	-5.637262	0.377021
C	3.298492	-4.572261	-1.463351
H	4.152945	-5.139743	-1.878237
H	3.585804	-4.153131	-0.475176
H	3.058230	-3.739531	-2.159469
C	-0.935761	-2.306654	0.540664
S	1.330550	-2.306501	-0.780808
C	-0.000000	-1.435185	-0.000000
H	-1.840780	-1.978138	1.066946
H	-0.296494	-9.614033	0.127575
C	0.000000	0.000000	0.000000
S	0.452792	0.783312	1.507541
C	1.238397	2.145556	0.718873
C	0.452875	0.782898	-1.067872
C	1.145945	1.987956	-0.686410
S	0.333556	0.570531	-2.805516
C	1.204604	2.090290	-3.054530
C	1.556633	2.704929	-1.862551
F	2.220797	3.864903	-1.819088
C	1.430252	2.477345	-4.456084
O	1.052242	1.806648	-5.406510
O	2.099050	3.650663	-4.569225
C	2.351116	4.076808	-5.916207
H	2.895579	5.033821	-5.833064
H	1.401015	4.217390	-6.470168
H	2.962391	3.327969	-6.459293
H	1.699302	2.946693	1.306486
$end

$rem
JOBTYPE		SP
EXCHANGE	HF
CORRELATION	pRIMP2
BASIS		cc-pvtz
METHOD		rimp2
AUX_BASIS	rimp2-cc-pvtz
SOLVENT_METHOD	PCM
PURECART	11111
SYMMETRY	false
MEM_TOTAL	110000
SCF_CONVERGENCE = 6
THRESH=10
GUI = 2
$end

$solvent
dielectric 4.90
$end
--------------------------------------------------------------

             Standard Nuclear Orientation (Angstroms)
    I     Atom           X                Y                Z
 ----------------------------------------------------------------
    1      C      -0.2962760000    -8.5177020000     0.1233300000
    2      C       0.6311430000    -7.6415750000    -0.4214940000
    3      S      -1.6287950000    -7.6386340000     0.9116110000
    4      C       0.3050970000    -6.2647850000    -0.2332910000
    5      H       1.5359880000    -7.9660810000    -0.9507370000
    6      C      -0.9311140000    -6.0727140000     0.4785570000
    7      C      -1.4057370000    -4.7870490000     0.7813460000
    8      C       1.0977470000    -5.1628010000    -0.6645420000
    9      C       0.6249930000    -3.8748170000    -0.3578540000
   10      C      -0.6139700000    -3.6839520000     0.3522780000
   11      O       2.2263000000    -5.4997720000    -1.3487090000
   12      O      -2.5388270000    -4.4590550000     1.4696580000
   13      C      -3.6631020000    -5.3290630000     1.4193190000
   14      H      -4.5167560000    -4.7556940000     1.8282370000
   15      H      -3.5207690000    -6.2380950000     2.0437930000
   16      H      -3.8955460000    -5.6372620000     0.3770210000
   17      C       3.2984920000    -4.5722610000    -1.4633510000
   18      H       4.1529450000    -5.1397430000    -1.8782370000
   19      H       3.5858040000    -4.1531310000    -0.4751760000
   20      H       3.0582300000    -3.7395310000    -2.1594690000
   21      C      -0.9357610000    -2.3066540000     0.5406640000
   22      S       1.3305500000    -2.3065010000    -0.7808080000
   23      C       0.0000000000    -1.4351850000     0.0000000000
   24      H      -1.8407800000    -1.9781380000     1.0669460000
   25      H      -0.2964940000    -9.6140330000     0.1275750000
   26      C       0.0000000000     0.0000000000     0.0000000000
   27      S       0.4527920000     0.7833120000     1.5075410000
   28      C       1.2383970000     2.1455560000     0.7188730000
   29      C       0.4528750000     0.7828980000    -1.0678720000
   30      C       1.1459450000     1.9879560000    -0.6864100000
   31      S       0.3335560000     0.5705310000    -2.8055160000
   32      C       1.2046040000     2.0902900000    -3.0545300000
   33      C       1.5566330000     2.7049290000    -1.8625510000
   34      F       2.2207970000     3.8649030000    -1.8190880000
   35      C       1.4302520000     2.4773450000    -4.4560840000
   36      O       1.0522420000     1.8066480000    -5.4065100000
   37      O       2.0990500000     3.6506630000    -4.5692250000
   38      C       2.3511160000     4.0768080000    -5.9162070000
   39      H       2.8955790000     5.0338210000    -5.8330640000
   40      H       1.4010150000     4.2173900000    -6.4701680000
   41      H       2.9623910000     3.3279690000    -6.4592930000
   42      H       1.6993020000     2.9466930000     1.3064860000
 ----------------------------------------------------------------

   10   -2754.2998742300      7.72e-07  Convergence criterion met
 Total energy in the final basis set =    -2754.2998742300
        RIMP2         total energy =     -2759.3542273130 a.u.

                    Orbital Energies (a.u.)
 --------------------------------------------------------------

 Alpha MOs
 -- Occupied --
-92.0145 -91.9995 -91.9875 -91.9857 -26.3434 -20.6146 -20.5917 -20.5908
-20.5610 -11.4092 -11.3826 -11.3184 -11.3166 -11.3148 -11.3037 -11.2971
-11.2915 -11.2903 -11.2888 -11.2865 -11.2858 -11.2850 -11.2845 -11.2832
-11.2790 -11.2592 -11.2579 -11.2527 -11.2495  -9.0130  -8.9994  -8.9879
 -8.9857  -6.6937  -6.6931  -6.6926  -6.6804  -6.6797  -6.6786  -6.6689
 -6.6682  -6.6672  -6.6667  -6.6660  -6.6652  -1.6605  -1.4671  -1.4158
 -1.4136  -1.3698  -1.2231  -1.1931  -1.1645  -1.1363  -1.0842  -1.0510
 -1.0416  -1.0232  -1.0006  -0.9870  -0.9632  -0.9587  -0.9497  -0.9391
 -0.8950  -0.8679  -0.8491  -0.8125  -0.7921  -0.7867  -0.7854  -0.7645
 -0.7551  -0.7329  -0.7253  -0.7098  -0.6992  -0.6851  -0.6824  -0.6809
 -0.6738  -0.6586  -0.6577  -0.6521  -0.6296  -0.6194  -0.6167  -0.6056
 -0.5979  -0.5846  -0.5772  -0.5683  -0.5651  -0.5610  -0.5552  -0.5472
 -0.5323  -0.5305  -0.5230  -0.5156  -0.5147  -0.5083  -0.5057  -0.4959
 -0.4885  -0.4805  -0.4750  -0.4734  -0.4690  -0.4649  -0.4597  -0.4088
 -0.3990  -0.3841  -0.3550  -0.3504  -0.3211  -0.2923  -0.2560

          Ground-State Mulliken Net Atomic Charges

     Atom                 Charge (a.u.)
  ----------------------------------------
      1 C                    -0.189717
      2 C                    -0.254296
      3 S                    -0.023776
      4 C                    -0.015748
      5 H                     0.196164
      6 C                    -0.025696
      7 C                     0.235996
      8 C                     0.240370
      9 C                    -0.043347
     10 C                    -0.009608
     11 O                    -0.333354
     12 O                    -0.340138
     13 C                    -0.085659
     14 H                     0.122258
     15 H                     0.090824
     16 H                     0.094087
     17 C                    -0.087568
     18 H                     0.125097
     19 H                     0.094102
     20 H                     0.090609
     21 C                    -0.251185
     22 S                    -0.005116
     23 C                    -0.034493
     24 H                     0.196136
     25 H                     0.206139
     26 C                     0.002313
     27 S                     0.117505
     28 C                    -0.181395
     29 C                    -0.079813
     30 C                    -0.072543
     31 S                     0.033397
     32 C                    -0.152457
     33 C                     0.393289
     34 F                    -0.206648
     35 C                     0.445877
     36 O                    -0.461210
     37 O                    -0.300948
     38 C                    -0.058376
     39 H                     0.121338
     40 H                     0.095174
     41 H                     0.095010
     42 H                     0.217406
  ----------------------------------------
  Sum of atomic charges =     0.000000

                    Cartesian Multipole Moments
 -----------------------------------------------------------------
    Charge (ESU x 10^10)
                 0.0000
    Dipole Moment (Debye)
         X       1.5962      Y       1.1857      Z       2.6186
       Tot       3.2879
    Quadrupole Moments (Debye-Ang)
        XX    -175.0395     XY       7.8214     YY    -165.2424
        XZ     -10.5169     YZ      -5.0511     ZZ    -204.0064

 Total job time:  281.78s(wall), 8814.67s(cpu)
        *  Thank you very much for using Q-Chem.  Have a nice day.  *
