 Q-Chem 5.4, Q-Chem, Inc., Pleasanton, CA (2021)
 Q-Chem 5.4.0 for Intel X86 EM64T Linux

User input:
--------------------------------------------------------------
$molecule
0 1
C	1.438381	-8.395476	0.318247
C	1.278244	-7.534070	-0.757333
S	1.301894	-7.526914	1.866383
C	1.039133	-6.178202	-0.380867
H	1.328769	-7.854673	-1.805573
C	1.004177	-5.989332	1.045647
C	0.805458	-4.718873	1.608077
C	0.870278	-5.088992	-1.282948
C	0.675402	-3.815501	-0.720187
C	0.637837	-3.628315	0.707853
O	0.900992	-5.425746	-2.602386
O	0.777604	-4.390731	2.933517
C	0.332149	-5.352705	3.881999
H	0.160995	-4.800670	4.825744
H	1.092680	-6.141658	4.070972
H	-0.617733	-5.833149	3.562152
C	1.170109	-4.436474	-3.588253
H	1.335544	-4.983539	-4.535674
H	2.081585	-3.850160	-3.342986
H	0.313504	-3.741940	-3.728239
C	0.400889	-2.271550	1.080725
S	0.389762	-2.273357	-1.542694
C	0.249217	-1.413382	0.000000
H	0.347057	-1.947458	2.127635
H	1.632269	-9.474532	0.320559
C	0.000000	0.000000	0.000000
S	0.581934	0.692785	1.507541
C	1.592155	1.897915	0.718873
C	0.581944	0.692363	-1.067872
C	1.473741	1.758764	-0.686410
S	0.427560	0.503942	-2.805516
C	1.549278	1.849357	-3.054530
C	2.002690	2.393529	-1.862551
F	2.858191	3.420549	-1.819088
C	1.838710	2.191348	-4.456084
O	1.349977	1.596481	-5.406510
O	2.701091	3.230705	-4.569225
C	3.023327	3.606605	-5.916207
H	3.725703	4.454534	-5.833064
H	2.112072	3.910035	-6.470168
H	3.495281	2.762996	-6.459293
H	2.185174	2.606846	1.306486
$end

$rem
JOBTYPE		SP
EXCHANGE	HF
CORRELATION	pRIMP2
BASIS		cc-pvtz
METHOD		rimp2
AUX_BASIS	rimp2-cc-pvtz
SOLVENT_METHOD	PCM
PURECART	11111
SYMMETRY	false
MEM_TOTAL	110000
SCF_CONVERGENCE = 6
THRESH=10
GUI = 2
$end

$solvent
dielectric 4.90
$end
--------------------------------------------------------------

             Standard Nuclear Orientation (Angstroms)
    I     Atom           X                Y                Z
 ----------------------------------------------------------------
    1      C       1.4383810000    -8.3954760000     0.3182470000
    2      C       1.2782440000    -7.5340700000    -0.7573330000
    3      S       1.3018940000    -7.5269140000     1.8663830000
    4      C       1.0391330000    -6.1782020000    -0.3808670000
    5      H       1.3287690000    -7.8546730000    -1.8055730000
    6      C       1.0041770000    -5.9893320000     1.0456470000
    7      C       0.8054580000    -4.7188730000     1.6080770000
    8      C       0.8702780000    -5.0889920000    -1.2829480000
    9      C       0.6754020000    -3.8155010000    -0.7201870000
   10      C       0.6378370000    -3.6283150000     0.7078530000
   11      O       0.9009920000    -5.4257460000    -2.6023860000
   12      O       0.7776040000    -4.3907310000     2.9335170000
   13      C       0.3321490000    -5.3527050000     3.8819990000
   14      H       0.1609950000    -4.8006700000     4.8257440000
   15      H       1.0926800000    -6.1416580000     4.0709720000
   16      H      -0.6177330000    -5.8331490000     3.5621520000
   17      C       1.1701090000    -4.4364740000    -3.5882530000
   18      H       1.3355440000    -4.9835390000    -4.5356740000
   19      H       2.0815850000    -3.8501600000    -3.3429860000
   20      H       0.3135040000    -3.7419400000    -3.7282390000
   21      C       0.4008890000    -2.2715500000     1.0807250000
   22      S       0.3897620000    -2.2733570000    -1.5426940000
   23      C       0.2492170000    -1.4133820000     0.0000000000
   24      H       0.3470570000    -1.9474580000     2.1276350000
   25      H       1.6322690000    -9.4745320000     0.3205590000
   26      C       0.0000000000     0.0000000000     0.0000000000
   27      S       0.5819340000     0.6927850000     1.5075410000
   28      C       1.5921550000     1.8979150000     0.7188730000
   29      C       0.5819440000     0.6923630000    -1.0678720000
   30      C       1.4737410000     1.7587640000    -0.6864100000
   31      S       0.4275600000     0.5039420000    -2.8055160000
   32      C       1.5492780000     1.8493570000    -3.0545300000
   33      C       2.0026900000     2.3935290000    -1.8625510000
   34      F       2.8581910000     3.4205490000    -1.8190880000
   35      C       1.8387100000     2.1913480000    -4.4560840000
   36      O       1.3499770000     1.5964810000    -5.4065100000
   37      O       2.7010910000     3.2307050000    -4.5692250000
   38      C       3.0233270000     3.6066050000    -5.9162070000
   39      H       3.7257030000     4.4545340000    -5.8330640000
   40      H       2.1120720000     3.9100350000    -6.4701680000
   41      H       3.4952810000     2.7629960000    -6.4592930000
   42      H       2.1851740000     2.6068460000     1.3064860000
 ----------------------------------------------------------------

   10   -2754.2650132102      6.92e-07  Convergence criterion met
 Total energy in the final basis set =    -2754.2650132102
        RIMP2         total energy =     -2759.3287362038 a.u.

                    Orbital Energies (a.u.)
 --------------------------------------------------------------

 Alpha MOs
 -- Occupied --
-92.0146 -92.0084 -91.9839 -91.9825 -26.3467 -20.6162 -20.5903 -20.5865
-20.5628 -11.4114 -11.3874 -11.3329 -11.3192 -11.3167 -11.3083 -11.2995
-11.2987 -11.2899 -11.2898 -11.2853 -11.2837 -11.2831 -11.2805 -11.2775
-11.2736 -11.2573 -11.2508 -11.2470 -11.2364  -9.0140  -9.0084  -8.9851
 -8.9825  -6.6947  -6.6939  -6.6935  -6.6893  -6.6885  -6.6875  -6.6660
 -6.6653  -6.6643  -6.6634  -6.6628  -6.6620  -1.6636  -1.4688  -1.4142
 -1.4094  -1.3716  -1.2332  -1.1896  -1.1640  -1.1402  -1.0862  -1.0480
 -1.0441  -1.0287  -0.9977  -0.9870  -0.9667  -0.9555  -0.9475  -0.9420
 -0.8921  -0.8726  -0.8452  -0.8194  -0.7948  -0.7848  -0.7810  -0.7631
 -0.7559  -0.7298  -0.7284  -0.7132  -0.6975  -0.6872  -0.6839  -0.6795
 -0.6753  -0.6607  -0.6564  -0.6496  -0.6300  -0.6166  -0.6147  -0.6054
 -0.6015  -0.5829  -0.5807  -0.5697  -0.5650  -0.5600  -0.5537  -0.5493
 -0.5334  -0.5288  -0.5239  -0.5175  -0.5144  -0.5104  -0.5042  -0.4934
 -0.4848  -0.4824  -0.4777  -0.4742  -0.4686  -0.4598  -0.4556  -0.4259
 -0.3879  -0.3812  -0.3586  -0.3550  -0.3234  -0.2913  -0.2435

          Ground-State Mulliken Net Atomic Charges

     Atom                 Charge (a.u.)
  ----------------------------------------
      1 C                    -0.201485
      2 C                    -0.252140
      3 S                    -0.029929
      4 C                    -0.026760
      5 H                     0.194984
      6 C                    -0.022591
      7 C                     0.223585
      8 C                     0.246208
      9 C                    -0.044039
     10 C                    -0.004348
     11 O                    -0.333297
     12 O                    -0.342981
     13 C                    -0.085425
     14 H                     0.120586
     15 H                     0.089974
     16 H                     0.092527
     17 C                    -0.088100
     18 H                     0.125129
     19 H                     0.094087
     20 H                     0.090066
     21 C                    -0.298955
     22 S                    -0.041863
     23 C                     0.020056
     24 H                     0.180732
     25 H                     0.204152
     26 C                    -0.091119
     27 S                     0.108366
     28 C                    -0.126900
     29 C                     0.060359
     30 C                    -0.116272
     31 S                     0.054532
     32 C                    -0.161204
     33 C                     0.402809
     34 F                    -0.204080
     35 C                     0.448998
     36 O                    -0.461564
     37 O                    -0.301034
     38 C                    -0.058226
     39 H                     0.121725
     40 H                     0.095400
     41 H                     0.095274
     42 H                     0.222763
  ----------------------------------------
  Sum of atomic charges =     0.000000

                    Cartesian Multipole Moments
 -----------------------------------------------------------------
    Charge (ESU x 10^10)
                 0.0000
    Dipole Moment (Debye)
         X       2.4784      Y       3.4100      Z       1.8641
       Tot       4.6093
    Quadrupole Moments (Debye-Ang)
        XX    -193.2086     XY       8.1590     YY    -177.9809
        XZ     -10.6358     YZ      -4.6515     ZZ    -181.3407

 Total job time:  313.78s(wall), 10056.63s(cpu)
        *  Thank you very much for using Q-Chem.  Have a nice day.  *
