 Q-Chem 5.4, Q-Chem, Inc., Pleasanton, CA (2021)
 Q-Chem 5.4.0 for Intel X86 EM64T Linux

User input:
--------------------------------------------------------------
$molecule
0 1
C	0.270358	-8.517702	-0.172904
C	-0.548363	-7.641575	0.524688
S	1.445750	-7.638634	-1.180599
C	-0.259951	-6.264785	0.282727
H	-1.347559	-7.966081	1.203014
C	0.833868	-6.072714	-0.632972
C	1.248701	-4.787049	-1.013580
C	-0.965673	-5.162801	0.845068
C	-0.553357	-3.874817	0.460946
C	0.543470	-3.683952	-0.453541
O	-1.958276	-5.499772	1.714812
O	2.245053	-4.459055	-1.888193
C	3.360989	-5.329063	-2.033848
H	4.130667	-4.755694	-2.584788
H	3.112380	-6.238095	-2.624118
H	3.770895	-5.637262	-1.047748
C	-2.994272	-4.572261	2.013896
H	-3.763700	-5.139743	2.570853
H	-3.448815	-4.153131	1.090625
H	-2.636780	-3.739531	2.657717
C	0.827659	-2.306654	-0.694943
S	-1.174750	-2.306501	0.999993
C	-0.000000	-1.435185	-0.000000
H	1.627541	-1.978138	-1.370385
H	0.269836	-9.614033	-0.177122
C	0.000000	0.000000	0.000000
S	0.157577	0.890937	1.507541
C	0.429889	2.439720	0.718873
C	0.157797	0.890576	-1.067872
C	0.396915	2.260004	-0.686410
S	0.118307	0.650207	-2.805516
C	0.417036	2.376229	-3.054530
C	0.537616	3.074202	-1.862551
F	0.764992	4.391378	-1.819088
C	0.496696	2.817118	-4.456084
O	0.370874	2.057582	-5.406510
O	0.723861	4.148418	-4.569225
C	0.814976	4.635075	-5.916207
H	0.999286	5.720591	-5.833064
H	-0.125909	4.442226	-6.470168
H	1.645504	4.140465	-6.459293
H	0.588993	3.350182	1.306486
$end

$rem
JOBTYPE		SP
EXCHANGE	HF
CORRELATION	pRIMP2
BASIS		cc-pvtz
METHOD		rimp2
AUX_BASIS	rimp2-cc-pvtz
SOLVENT_METHOD	PCM
PURECART	11111
SYMMETRY	false
MEM_TOTAL	110000
SCF_CONVERGENCE = 6
THRESH=10
GUI = 2
$end

$solvent
dielectric 4.90
$end
--------------------------------------------------------------

             Standard Nuclear Orientation (Angstroms)
    I     Atom           X                Y                Z
 ----------------------------------------------------------------
    1      C       0.2703580000    -8.5177020000    -0.1729040000
    2      C      -0.5483630000    -7.6415750000     0.5246880000
    3      S       1.4457500000    -7.6386340000    -1.1805990000
    4      C      -0.2599510000    -6.2647850000     0.2827270000
    5      H      -1.3475590000    -7.9660810000     1.2030140000
    6      C       0.8338680000    -6.0727140000    -0.6329720000
    7      C       1.2487010000    -4.7870490000    -1.0135800000
    8      C      -0.9656730000    -5.1628010000     0.8450680000
    9      C      -0.5533570000    -3.8748170000     0.4609460000
   10      C       0.5434700000    -3.6839520000    -0.4535410000
   11      O      -1.9582760000    -5.4997720000     1.7148120000
   12      O       2.2450530000    -4.4590550000    -1.8881930000
   13      C       3.3609890000    -5.3290630000    -2.0338480000
   14      H       4.1306670000    -4.7556940000    -2.5847880000
   15      H       3.1123800000    -6.2380950000    -2.6241180000
   16      H       3.7708950000    -5.6372620000    -1.0477480000
   17      C      -2.9942720000    -4.5722610000     2.0138960000
   18      H      -3.7637000000    -5.1397430000     2.5708530000
   19      H      -3.4488150000    -4.1531310000     1.0906250000
   20      H      -2.6367800000    -3.7395310000     2.6577170000
   21      C       0.8276590000    -2.3066540000    -0.6949430000
   22      S      -1.1747500000    -2.3065010000     0.9999930000
   23      C       0.0000000000    -1.4351850000     0.0000000000
   24      H       1.6275410000    -1.9781380000    -1.3703850000
   25      H       0.2698360000    -9.6140330000    -0.1771220000
   26      C       0.0000000000     0.0000000000     0.0000000000
   27      S       0.1575770000     0.8909370000     1.5075410000
   28      C       0.4298890000     2.4397200000     0.7188730000
   29      C       0.1577970000     0.8905760000    -1.0678720000
   30      C       0.3969150000     2.2600040000    -0.6864100000
   31      S       0.1183070000     0.6502070000    -2.8055160000
   32      C       0.4170360000     2.3762290000    -3.0545300000
   33      C       0.5376160000     3.0742020000    -1.8625510000
   34      F       0.7649920000     4.3913780000    -1.8190880000
   35      C       0.4966960000     2.8171180000    -4.4560840000
   36      O       0.3708740000     2.0575820000    -5.4065100000
   37      O       0.7238610000     4.1484180000    -4.5692250000
   38      C       0.8149760000     4.6350750000    -5.9162070000
   39      H       0.9992860000     5.7205910000    -5.8330640000
   40      H      -0.1259090000     4.4422260000    -6.4701680000
   41      H       1.6455040000     4.1404650000    -6.4592930000
   42      H       0.5889930000     3.3501820000     1.3064860000
 ----------------------------------------------------------------

   10   -2754.3146683253      7.15e-07  Convergence criterion met
 Total energy in the final basis set =    -2754.3146683253
        RIMP2         total energy =     -2759.3653041465 a.u.

                    Orbital Energies (a.u.)
 --------------------------------------------------------------

 Alpha MOs
 -- Occupied --
-92.0150 -91.9971 -91.9900 -91.9865 -26.3427 -20.6144 -20.5927 -20.5914
-20.5608 -11.4089 -11.3815 -11.3196 -11.3181 -11.3094 -11.3003 -11.2983
-11.2968 -11.2944 -11.2885 -11.2874 -11.2865 -11.2859 -11.2844 -11.2842
-11.2799 -11.2613 -11.2592 -11.2572 -11.2501  -9.0135  -8.9971  -8.9904
 -8.9864  -6.6942  -6.6937  -6.6931  -6.6781  -6.6774  -6.6762  -6.6714
 -6.6707  -6.6698  -6.6674  -6.6667  -6.6659  -1.6598  -1.4668  -1.4168
 -1.4141  -1.3695  -1.2207  -1.1947  -1.1657  -1.1356  -1.0849  -1.0522
 -1.0411  -1.0223  -1.0018  -0.9880  -0.9626  -0.9600  -0.9504  -0.9389
 -0.8961  -0.8671  -0.8516  -0.8078  -0.7974  -0.7874  -0.7869  -0.7646
 -0.7550  -0.7341  -0.7247  -0.7092  -0.7017  -0.6847  -0.6832  -0.6802
 -0.6735  -0.6594  -0.6575  -0.6526  -0.6305  -0.6201  -0.6173  -0.6041
 -0.5973  -0.5837  -0.5781  -0.5707  -0.5660  -0.5617  -0.5535  -0.5501
 -0.5335  -0.5304  -0.5245  -0.5163  -0.5158  -0.5077  -0.5059  -0.4958
 -0.4886  -0.4799  -0.4755  -0.4732  -0.4686  -0.4676  -0.4607  -0.4157
 -0.3957  -0.3862  -0.3582  -0.3499  -0.3221  -0.2920  -0.2551

          Ground-State Mulliken Net Atomic Charges

     Atom                 Charge (a.u.)
  ----------------------------------------
      1 C                    -0.188379
      2 C                    -0.253913
      3 S                    -0.021274
      4 C                    -0.015375
      5 H                     0.196349
      6 C                    -0.028278
      7 C                     0.241901
      8 C                     0.241394
      9 C                    -0.047949
     10 C                    -0.024656
     11 O                    -0.333285
     12 O                    -0.339245
     13 C                    -0.085947
     14 H                     0.122975
     15 H                     0.091305
     16 H                     0.093690
     17 C                    -0.086923
     18 H                     0.125183
     19 H                     0.095207
     20 H                     0.089340
     21 C                    -0.225818
     22 S                    -0.012499
     23 C                    -0.013700
     24 H                     0.202459
     25 H                     0.206447
     26 C                    -0.027648
     27 S                     0.103965
     28 C                    -0.190300
     29 C                    -0.012876
     30 C                    -0.102189
     31 S                     0.012646
     32 C                    -0.153637
     33 C                     0.394478
     34 F                    -0.207353
     35 C                     0.444513
     36 O                    -0.460915
     37 O                    -0.300619
     38 C                    -0.058603
     39 H                     0.121257
     40 H                     0.095152
     41 H                     0.094991
     42 H                     0.218131
  ----------------------------------------
  Sum of atomic charges =     0.000000

                    Cartesian Multipole Moments
 -----------------------------------------------------------------
    Charge (ESU x 10^10)
                 0.0000
    Dipole Moment (Debye)
         X       0.6089      Y       0.8851      Z       3.2199
       Tot       3.3944
    Quadrupole Moments (Debye-Ang)
        XX    -181.4332     XY       1.4952     YY    -159.7035
        XZ     -11.3808     YZ      -8.0443     ZZ    -201.5998

 Total job time:  290.91s(wall), 9271.08s(cpu)
        *  Thank you very much for using Q-Chem.  Have a nice day.  *
