 Q-Chem 5.4, Q-Chem, Inc., Pleasanton, CA (2021)
 Q-Chem 5.4.0 for Intel X86 EM64T Linux

User input:
--------------------------------------------------------------
$molecule
0 1
C	0.041330	-8.517702	-0.318247
C	0.049453	-7.641575	0.757333
S	0.024919	-7.638634	-1.866383
C	0.049488	-6.264785	0.380867
H	0.055368	-7.966081	1.805573
C	0.051115	-6.072714	-1.045647
C	0.026203	-4.787049	-1.608077
C	0.026637	-5.162801	1.282948
C	-0.002586	-3.874817	0.720187
C	0.001903	-3.683952	-0.707853
O	0.054867	-5.499772	2.602386
O	-0.003348	-4.459055	-2.933517
C	0.602384	-5.329063	-3.881999
H	0.675079	-4.755694	-4.825744
H	-0.009592	-6.238095	-4.070972
H	1.621263	-5.637262	-3.562152
C	-0.381947	-4.572261	3.588253
H	-0.449872	-5.139743	4.535674
H	-1.381388	-4.153131	3.342986
H	0.341040	-3.739531	3.728239
C	-0.000348	-2.306654	-1.080725
S	0.010924	-2.306501	1.542694
C	0.000000	-1.435185	0.000000
H	-0.003612	-1.978138	-2.127635
H	0.037764	-9.614033	-0.320559
C	0.000000	0.000000	0.000000
S	0.693394	0.581209	1.507541
C	1.897536	1.592607	0.718873
C	0.693330	0.580791	-1.067872
C	1.756758	1.476132	-0.686410
S	0.508573	0.422041	-2.805516
C	1.846879	1.552232	-3.054530
C	2.387897	2.009402	-1.862551
F	3.408741	2.872264	-1.819088
C	2.191300	1.838768	-4.456084
O	1.606694	1.337806	-5.406510
O	3.221062	2.712584	-4.569225
C	3.603677	3.026817	-5.916207
H	4.442623	3.739898	-5.833064
H	2.758956	3.483875	-6.470168
H	3.921969	2.114070	-6.459293
H	2.604650	2.187790	1.306486
$end

$rem
JOBTYPE		SP
EXCHANGE	HF
CORRELATION	pRIMP2
BASIS		cc-pvtz
METHOD		rimp2
AUX_BASIS	rimp2-cc-pvtz
SOLVENT_METHOD	PCM
PURECART	11111
SYMMETRY	false
MEM_TOTAL	110000
SCF_CONVERGENCE = 6
THRESH=10
GUI = 2
$end

$solvent
dielectric 4.90
$end
--------------------------------------------------------------

             Standard Nuclear Orientation (Angstroms)
    I     Atom           X                Y                Z
 ----------------------------------------------------------------
    1      C       0.0413300000    -8.5177020000    -0.3182470000
    2      C       0.0494530000    -7.6415750000     0.7573330000
    3      S       0.0249190000    -7.6386340000    -1.8663830000
    4      C       0.0494880000    -6.2647850000     0.3808670000
    5      H       0.0553680000    -7.9660810000     1.8055730000
    6      C       0.0511150000    -6.0727140000    -1.0456470000
    7      C       0.0262030000    -4.7870490000    -1.6080770000
    8      C       0.0266370000    -5.1628010000     1.2829480000
    9      C      -0.0025860000    -3.8748170000     0.7201870000
   10      C       0.0019030000    -3.6839520000    -0.7078530000
   11      O       0.0548670000    -5.4997720000     2.6023860000
   12      O      -0.0033480000    -4.4590550000    -2.9335170000
   13      C       0.6023840000    -5.3290630000    -3.8819990000
   14      H       0.6750790000    -4.7556940000    -4.8257440000
   15      H      -0.0095920000    -6.2380950000    -4.0709720000
   16      H       1.6212630000    -5.6372620000    -3.5621520000
   17      C      -0.3819470000    -4.5722610000     3.5882530000
   18      H      -0.4498720000    -5.1397430000     4.5356740000
   19      H      -1.3813880000    -4.1531310000     3.3429860000
   20      H       0.3410400000    -3.7395310000     3.7282390000
   21      C      -0.0003480000    -2.3066540000    -1.0807250000
   22      S       0.0109240000    -2.3065010000     1.5426940000
   23      C       0.0000000000    -1.4351850000     0.0000000000
   24      H      -0.0036120000    -1.9781380000    -2.1276350000
   25      H       0.0377640000    -9.6140330000    -0.3205590000
   26      C       0.0000000000     0.0000000000     0.0000000000
   27      S       0.6933940000     0.5812090000     1.5075410000
   28      C       1.8975360000     1.5926070000     0.7188730000
   29      C       0.6933300000     0.5807910000    -1.0678720000
   30      C       1.7567580000     1.4761320000    -0.6864100000
   31      S       0.5085730000     0.4220410000    -2.8055160000
   32      C       1.8468790000     1.5522320000    -3.0545300000
   33      C       2.3878970000     2.0094020000    -1.8625510000
   34      F       3.4087410000     2.8722640000    -1.8190880000
   35      C       2.1913000000     1.8387680000    -4.4560840000
   36      O       1.6066940000     1.3378060000    -5.4065100000
   37      O       3.2210620000     2.7125840000    -4.5692250000
   38      C       3.6036770000     3.0268170000    -5.9162070000
   39      H       4.4426230000     3.7398980000    -5.8330640000
   40      H       2.7589560000     3.4838750000    -6.4701680000
   41      H       3.9219690000     2.1140700000    -6.4592930000
   42      H       2.6046500000     2.1877900000     1.3064860000
 ----------------------------------------------------------------

   10   -2754.2660593797      8.18e-07  Convergence criterion met
 Total energy in the final basis set =    -2754.2660593797
        RIMP2         total energy =     -2759.3297223325 a.u.

                    Orbital Energies (a.u.)
 --------------------------------------------------------------

 Alpha MOs
 -- Occupied --
-92.0160 -92.0093 -91.9856 -91.9829 -26.3467 -20.6160 -20.5910 -20.5864
-20.5626 -11.4112 -11.3874 -11.3314 -11.3176 -11.3170 -11.3093 -11.2995
-11.2976 -11.2900 -11.2897 -11.2865 -11.2831 -11.2831 -11.2808 -11.2788
-11.2743 -11.2576 -11.2518 -11.2473 -11.2370  -9.0156  -9.0091  -8.9866
 -8.9828  -6.6963  -6.6955  -6.6951  -6.6900  -6.6892  -6.6882  -6.6676
 -6.6669  -6.6659  -6.6638  -6.6632  -6.6624  -1.6636  -1.4686  -1.4149
 -1.4093  -1.3713  -1.2325  -1.1903  -1.1649  -1.1402  -1.0853  -1.0483
 -1.0453  -1.0279  -0.9973  -0.9878  -0.9663  -0.9580  -0.9484  -0.9392
 -0.8936  -0.8722  -0.8464  -0.8119  -0.7987  -0.7872  -0.7825  -0.7615
 -0.7564  -0.7306  -0.7283  -0.7141  -0.6997  -0.6871  -0.6831  -0.6802
 -0.6751  -0.6604  -0.6571  -0.6496  -0.6293  -0.6170  -0.6153  -0.6041
 -0.6023  -0.5827  -0.5801  -0.5704  -0.5637  -0.5610  -0.5565  -0.5432
 -0.5348  -0.5308  -0.5223  -0.5160  -0.5152  -0.5101  -0.5035  -0.4950
 -0.4875  -0.4815  -0.4769  -0.4746  -0.4688  -0.4595  -0.4566  -0.4270
 -0.3931  -0.3802  -0.3626  -0.3450  -0.3289  -0.2897  -0.2452

          Ground-State Mulliken Net Atomic Charges

     Atom                 Charge (a.u.)
  ----------------------------------------
      1 C                    -0.199759
      2 C                    -0.253496
      3 S                    -0.028123
      4 C                    -0.025670
      5 H                     0.194979
      6 C                    -0.023636
      7 C                     0.231246
      8 C                     0.247139
      9 C                    -0.051143
     10 C                    -0.009506
     11 O                    -0.333203
     12 O                    -0.342817
     13 C                    -0.086254
     14 H                     0.122269
     15 H                     0.090497
     16 H                     0.092091
     17 C                    -0.088289
     18 H                     0.125472
     19 H                     0.094524
     20 H                     0.088858
     21 C                    -0.267116
     22 S                    -0.043968
     23 C                    -0.005995
     24 H                     0.185874
     25 H                     0.204414
     26 C                    -0.080459
     27 S                     0.106155
     28 C                    -0.138041
     29 C                     0.049649
     30 C                    -0.113975
     31 S                     0.056503
     32 C                    -0.160225
     33 C                     0.401554
     34 F                    -0.203834
     35 C                     0.449455
     36 O                    -0.461340
     37 O                    -0.301152
     38 C                    -0.058182
     39 H                     0.121666
     40 H                     0.095371
     41 H                     0.095374
     42 H                     0.223093
  ----------------------------------------
  Sum of atomic charges =     0.000000

                    Cartesian Multipole Moments
 -----------------------------------------------------------------
    Charge (ESU x 10^10)
                 0.0000
    Dipole Moment (Debye)
         X       3.4207      Y       2.7033      Z       3.0732
       Tot       5.3342
    Quadrupole Moments (Debye-Ang)
        XX    -190.0277     XY       7.6616     YY    -179.6004
        XZ     -11.1985     YZ      -6.1452     ZZ    -181.4201

 Total job time:  15489.71s(wall), 10886.08s(cpu)
        *  Thank you very much for using Q-Chem.  Have a nice day.  *
