 Q-Chem 5.4, Q-Chem, Inc., Pleasanton, CA (2021)
 Q-Chem 5.4.0 for Intel X86 EM64T Linux

User input:
--------------------------------------------------------------
$molecule
0 1
C	0.194917	-8.517702	-0.254945
C	-0.335839	-7.641575	0.680596
S	0.954772	-7.638634	-1.603876
C	-0.147576	-6.264785	0.354585
H	-0.854836	-7.966081	1.591356
C	0.567090	-6.072714	-0.879999
C	0.826731	-4.787049	-1.379534
C	-0.618405	-5.162801	1.124384
C	-0.362333	-3.874817	0.622407
C	0.355575	-3.683952	-0.612067
O	-1.253677	-5.499772	2.281166
O	1.463859	-4.459055	-2.542174
C	2.462679	-5.329063	-3.060718
H	2.997507	-4.755694	-3.841678
H	2.027179	-6.238095	-3.530361
H	3.185132	-5.637262	-2.274283
C	-2.124902	-4.572261	2.916545
H	-2.657438	-5.139743	3.703073
H	-2.867810	-4.153131	2.204417
H	-1.568770	-3.739531	3.399269
C	0.540061	-2.306654	-0.936109
S	-0.761887	-2.306501	1.341474
C	0.000000	-1.435185	0.000000
H	1.060690	-1.978138	-1.844392
H	0.192984	-9.614033	-0.258730
C	0.000000	0.000000	0.000000
S	0.000474	0.904764	1.507541
C	-0.000295	2.477305	0.718873
C	0.000752	0.904447	-1.067872
C	-0.001560	2.294593	-0.686410
S	0.003602	0.660872	-2.805516
C	-0.001928	2.412546	-3.054530
C	-0.004381	3.120854	-1.862551
F	-0.009185	4.457503	-1.819088
C	-0.000038	2.860570	-4.456084
O	0.007944	2.090724	-5.406510
O	-0.007501	4.211092	-4.569225
C	-0.002278	4.706177	-5.916207
H	-0.009265	5.807207	-5.833064
H	-0.895381	4.352875	-6.470168
H	0.901521	4.363301	-6.459293
H	-0.001708	3.401562	1.306486
$end

$rem
JOBTYPE		SP
EXCHANGE	HF
CORRELATION	pRIMP2
BASIS		cc-pvtz
METHOD		rimp2
AUX_BASIS	rimp2-cc-pvtz
SOLVENT_METHOD	PCM
PURECART	11111
SYMMETRY	false
MEM_TOTAL	110000
SCF_CONVERGENCE = 6
THRESH=10
GUI = 2
$end

$solvent
dielectric 4.90
$end
--------------------------------------------------------------

             Standard Nuclear Orientation (Angstroms)
    I     Atom           X                Y                Z
 ----------------------------------------------------------------
    1      C       0.1949170000    -8.5177020000    -0.2549450000
    2      C      -0.3358390000    -7.6415750000     0.6805960000
    3      S       0.9547720000    -7.6386340000    -1.6038760000
    4      C      -0.1475760000    -6.2647850000     0.3545850000
    5      H      -0.8548360000    -7.9660810000     1.5913560000
    6      C       0.5670900000    -6.0727140000    -0.8799990000
    7      C       0.8267310000    -4.7870490000    -1.3795340000
    8      C      -0.6184050000    -5.1628010000     1.1243840000
    9      C      -0.3623330000    -3.8748170000     0.6224070000
   10      C       0.3555750000    -3.6839520000    -0.6120670000
   11      O      -1.2536770000    -5.4997720000     2.2811660000
   12      O       1.4638590000    -4.4590550000    -2.5421740000
   13      C       2.4626790000    -5.3290630000    -3.0607180000
   14      H       2.9975070000    -4.7556940000    -3.8416780000
   15      H       2.0271790000    -6.2380950000    -3.5303610000
   16      H       3.1851320000    -5.6372620000    -2.2742830000
   17      C      -2.1249020000    -4.5722610000     2.9165450000
   18      H      -2.6574380000    -5.1397430000     3.7030730000
   19      H      -2.8678100000    -4.1531310000     2.2044170000
   20      H      -1.5687700000    -3.7395310000     3.3992690000
   21      C       0.5400610000    -2.3066540000    -0.9361090000
   22      S      -0.7618870000    -2.3065010000     1.3414740000
   23      C       0.0000000000    -1.4351850000     0.0000000000
   24      H       1.0606900000    -1.9781380000    -1.8443920000
   25      H       0.1929840000    -9.6140330000    -0.2587300000
   26      C       0.0000000000     0.0000000000     0.0000000000
   27      S       0.0004740000     0.9047640000     1.5075410000
   28      C      -0.0002950000     2.4773050000     0.7188730000
   29      C       0.0007520000     0.9044470000    -1.0678720000
   30      C      -0.0015600000     2.2945930000    -0.6864100000
   31      S       0.0036020000     0.6608720000    -2.8055160000
   32      C      -0.0019280000     2.4125460000    -3.0545300000
   33      C      -0.0043810000     3.1208540000    -1.8625510000
   34      F      -0.0091850000     4.4575030000    -1.8190880000
   35      C      -0.0000380000     2.8605700000    -4.4560840000
   36      O       0.0079440000     2.0907240000    -5.4065100000
   37      O      -0.0075010000     4.2110920000    -4.5692250000
   38      C      -0.0022780000     4.7061770000    -5.9162070000
   39      H      -0.0092650000     5.8072070000    -5.8330640000
   40      H      -0.8953810000     4.3528750000    -6.4701680000
   41      H       0.9015210000     4.3633010000    -6.4592930000
   42      H      -0.0017080000     3.4015620000     1.3064860000
 ----------------------------------------------------------------

   10   -2754.3170642892      7.38e-07  Convergence criterion met
 Total energy in the final basis set =    -2754.3170642892
        RIMP2         total energy =     -2759.3686173309 a.u.

                    Orbital Energies (a.u.)
 --------------------------------------------------------------

 Alpha MOs
 -- Occupied --
-92.0159 -91.9982 -91.9915 -91.9865 -26.3431 -20.6146 -20.5930 -20.5912
-20.5611 -11.4092 -11.3821 -11.3201 -11.3179 -11.3092 -11.3015 -11.2994
-11.2974 -11.2967 -11.2887 -11.2877 -11.2870 -11.2856 -11.2853 -11.2844
-11.2798 -11.2621 -11.2590 -11.2567 -11.2501  -9.0145  -8.9982  -8.9920
 -8.9864  -6.6953  -6.6947  -6.6942  -6.6792  -6.6785  -6.6774  -6.6729
 -6.6723  -6.6713  -6.6674  -6.6668  -6.6659  -1.6601  -1.4671  -1.4171
 -1.4140  -1.3698  -1.2215  -1.1952  -1.1663  -1.1363  -1.0856  -1.0525
 -1.0416  -1.0232  -1.0022  -0.9885  -0.9637  -0.9600  -0.9506  -0.9392
 -0.8967  -0.8677  -0.8525  -0.8080  -0.7988  -0.7878  -0.7867  -0.7646
 -0.7552  -0.7345  -0.7250  -0.7096  -0.7021  -0.6853  -0.6836  -0.6806
 -0.6737  -0.6596  -0.6582  -0.6526  -0.6308  -0.6201  -0.6173  -0.6030
 -0.5978  -0.5847  -0.5791  -0.5707  -0.5653  -0.5622  -0.5538  -0.5500
 -0.5355  -0.5304  -0.5247  -0.5179  -0.5164  -0.5088  -0.5067  -0.4961
 -0.4882  -0.4813  -0.4762  -0.4737  -0.4688  -0.4670  -0.4604  -0.4234
 -0.3964  -0.3851  -0.3599  -0.3495  -0.3258  -0.2900  -0.2522

          Ground-State Mulliken Net Atomic Charges

     Atom                 Charge (a.u.)
  ----------------------------------------
      1 C                    -0.188876
      2 C                    -0.253890
      3 S                    -0.021024
      4 C                    -0.015907
      5 H                     0.196251
      6 C                    -0.028489
      7 C                     0.245326
      8 C                     0.239891
      9 C                    -0.042601
     10 C                    -0.029508
     11 O                    -0.333044
     12 O                    -0.339389
     13 C                    -0.086049
     14 H                     0.123199
     15 H                     0.091318
     16 H                     0.093776
     17 C                    -0.087951
     18 H                     0.125711
     19 H                     0.095371
     20 H                     0.089415
     21 C                    -0.227241
     22 S                    -0.027934
     23 C                    -0.015638
     24 H                     0.196448
     25 H                     0.206420
     26 C                    -0.003631
     27 S                     0.087054
     28 C                    -0.189954
     29 C                     0.020151
     30 C                    -0.117134
     31 S                     0.006641
     32 C                    -0.156022
     33 C                     0.399131
     34 F                    -0.207028
     35 C                     0.444093
     36 O                    -0.460682
     37 O                    -0.300550
     38 C                    -0.058673
     39 H                     0.121389
     40 H                     0.095225
     41 H                     0.095046
     42 H                     0.219360
  ----------------------------------------
  Sum of atomic charges =     0.000000

                    Cartesian Multipole Moments
 -----------------------------------------------------------------
    Charge (ESU x 10^10)
                 0.0000
    Dipole Moment (Debye)
         X       0.1521      Y       0.9784      Z       3.1990
       Tot       3.3487
    Quadrupole Moments (Debye-Ang)
        XX    -190.2545     XY      -1.3439     YY    -159.0168
        XZ     -12.6189     YZ      -7.9809     ZZ    -193.0691

 Total job time:  287.44s(wall), 9044.47s(cpu)
        *  Thank you very much for using Q-Chem.  Have a nice day.  *
