 Q-Chem 5.4, Q-Chem, Inc., Pleasanton, CA (2021)
 Q-Chem 5.4.0 for Intel X86 EM64T Linux

User input:
--------------------------------------------------------------
$molecule
0 1
C	0.172904	-8.517702	0.270358
C	-0.524688	-7.641575	-0.548363
S	1.180599	-7.638634	1.445750
C	-0.282727	-6.264785	-0.259951
H	-1.203014	-7.966081	-1.347559
C	0.632972	-6.072714	0.833868
C	1.013580	-4.787049	1.248701
C	-0.845068	-5.162801	-0.965673
C	-0.460946	-3.874817	-0.553357
C	0.453541	-3.683952	0.543470
O	-1.714812	-5.499772	-1.958276
O	1.888193	-4.459055	2.245053
C	2.033848	-5.329063	3.360989
H	2.584788	-4.755694	4.130667
H	2.624118	-6.238095	3.112380
H	1.047748	-5.637262	3.770895
C	-2.013896	-4.572261	-2.994272
H	-2.570853	-5.139743	-3.763700
H	-1.090625	-4.153131	-3.448815
H	-2.657717	-3.739531	-2.636780
C	0.694943	-2.306654	0.827659
S	-0.999993	-2.306501	-1.174750
C	-0.000000	-1.435185	-0.000000
H	1.370385	-1.978138	1.627541
H	0.177122	-9.614033	0.269836
C	0.000000	0.000000	0.000000
S	0.157577	0.890937	1.507541
C	0.429889	2.439720	0.718873
C	0.157797	0.890576	-1.067872
C	0.396915	2.260004	-0.686410
S	0.118307	0.650207	-2.805516
C	0.417036	2.376229	-3.054530
C	0.537616	3.074202	-1.862551
F	0.764992	4.391378	-1.819088
C	0.496696	2.817118	-4.456084
O	0.370874	2.057582	-5.406510
O	0.723861	4.148418	-4.569225
C	0.814976	4.635075	-5.916207
H	0.999286	5.720591	-5.833064
H	-0.125909	4.442226	-6.470168
H	1.645504	4.140465	-6.459293
H	0.588993	3.350182	1.306486
$end

$rem
JOBTYPE		SP
EXCHANGE	HF
CORRELATION	pRIMP2
BASIS		cc-pvtz
METHOD		rimp2
AUX_BASIS	rimp2-cc-pvtz
SOLVENT_METHOD	PCM
PURECART	11111
SYMMETRY	false
MEM_TOTAL	110000
SCF_CONVERGENCE = 6
THRESH=10
GUI = 2
$end

$solvent
dielectric 4.90
$end
--------------------------------------------------------------

             Standard Nuclear Orientation (Angstroms)
    I     Atom           X                Y                Z
 ----------------------------------------------------------------
    1      C       0.1729040000    -8.5177020000     0.2703580000
    2      C      -0.5246880000    -7.6415750000    -0.5483630000
    3      S       1.1805990000    -7.6386340000     1.4457500000
    4      C      -0.2827270000    -6.2647850000    -0.2599510000
    5      H      -1.2030140000    -7.9660810000    -1.3475590000
    6      C       0.6329720000    -6.0727140000     0.8338680000
    7      C       1.0135800000    -4.7870490000     1.2487010000
    8      C      -0.8450680000    -5.1628010000    -0.9656730000
    9      C      -0.4609460000    -3.8748170000    -0.5533570000
   10      C       0.4535410000    -3.6839520000     0.5434700000
   11      O      -1.7148120000    -5.4997720000    -1.9582760000
   12      O       1.8881930000    -4.4590550000     2.2450530000
   13      C       2.0338480000    -5.3290630000     3.3609890000
   14      H       2.5847880000    -4.7556940000     4.1306670000
   15      H       2.6241180000    -6.2380950000     3.1123800000
   16      H       1.0477480000    -5.6372620000     3.7708950000
   17      C      -2.0138960000    -4.5722610000    -2.9942720000
   18      H      -2.5708530000    -5.1397430000    -3.7637000000
   19      H      -1.0906250000    -4.1531310000    -3.4488150000
   20      H      -2.6577170000    -3.7395310000    -2.6367800000
   21      C       0.6949430000    -2.3066540000     0.8276590000
   22      S      -0.9999930000    -2.3065010000    -1.1747500000
   23      C       0.0000000000    -1.4351850000     0.0000000000
   24      H       1.3703850000    -1.9781380000     1.6275410000
   25      H       0.1771220000    -9.6140330000     0.2698360000
   26      C       0.0000000000     0.0000000000     0.0000000000
   27      S       0.1575770000     0.8909370000     1.5075410000
   28      C       0.4298890000     2.4397200000     0.7188730000
   29      C       0.1577970000     0.8905760000    -1.0678720000
   30      C       0.3969150000     2.2600040000    -0.6864100000
   31      S       0.1183070000     0.6502070000    -2.8055160000
   32      C       0.4170360000     2.3762290000    -3.0545300000
   33      C       0.5376160000     3.0742020000    -1.8625510000
   34      F       0.7649920000     4.3913780000    -1.8190880000
   35      C       0.4966960000     2.8171180000    -4.4560840000
   36      O       0.3708740000     2.0575820000    -5.4065100000
   37      O       0.7238610000     4.1484180000    -4.5692250000
   38      C       0.8149760000     4.6350750000    -5.9162070000
   39      H       0.9992860000     5.7205910000    -5.8330640000
   40      H      -0.1259090000     4.4422260000    -6.4701680000
   41      H       1.6455040000     4.1404650000    -6.4592930000
   42      H       0.5889930000     3.3501820000     1.3064860000
 ----------------------------------------------------------------

   10   -2754.3151953608      7.13e-07  Convergence criterion met
 Total energy in the final basis set =    -2754.3151953608
        RIMP2         total energy =     -2759.3669431423 a.u.

                    Orbital Energies (a.u.)
 --------------------------------------------------------------

 Alpha MOs
 -- Occupied --
-92.0155 -91.9978 -91.9906 -91.9864 -26.3430 -20.6145 -20.5924 -20.5915
-20.5609 -11.4091 -11.3819 -11.3197 -11.3176 -11.3093 -11.3009 -11.2994
-11.2969 -11.2963 -11.2886 -11.2867 -11.2864 -11.2863 -11.2849 -11.2843
-11.2796 -11.2617 -11.2587 -11.2563 -11.2500  -9.0139  -8.9978  -8.9910
 -8.9863  -6.6947  -6.6941  -6.6936  -6.6788  -6.6781  -6.6769  -6.6720
 -6.6713  -6.6704  -6.6673  -6.6667  -6.6658  -1.6600  -1.4670  -1.4165
 -1.4143  -1.3697  -1.2214  -1.1948  -1.1659  -1.1358  -1.0854  -1.0522
 -1.0412  -1.0231  -1.0020  -0.9881  -0.9637  -0.9589  -0.9501  -0.9400
 -0.8959  -0.8674  -0.8517  -0.8135  -0.7917  -0.7874  -0.7872  -0.7652
 -0.7552  -0.7340  -0.7249  -0.7099  -0.6992  -0.6852  -0.6835  -0.6811
 -0.6736  -0.6593  -0.6577  -0.6527  -0.6307  -0.6200  -0.6168  -0.6037
 -0.5975  -0.5864  -0.5770  -0.5694  -0.5675  -0.5625  -0.5555  -0.5531
 -0.5315  -0.5294  -0.5226  -0.5175  -0.5168  -0.5101  -0.5057  -0.4946
 -0.4886  -0.4785  -0.4770  -0.4735  -0.4704  -0.4656  -0.4605  -0.4190
 -0.3956  -0.3860  -0.3594  -0.3496  -0.3233  -0.2915  -0.2533

          Ground-State Mulliken Net Atomic Charges

     Atom                 Charge (a.u.)
  ----------------------------------------
      1 C                    -0.189353
      2 C                    -0.253372
      3 S                    -0.022220
      4 C                    -0.015749
      5 H                     0.196496
      6 C                    -0.027826
      7 C                     0.239952
      8 C                     0.243033
      9 C                    -0.044346
     10 C                    -0.026225
     11 O                    -0.333199
     12 O                    -0.340400
     13 C                    -0.085789
     14 H                     0.122386
     15 H                     0.091320
     16 H                     0.093844
     17 C                    -0.088013
     18 H                     0.125155
     19 H                     0.095906
     20 H                     0.089995
     21 C                    -0.247138
     22 S                    -0.012572
     23 C                    -0.006726
     24 H                     0.196730
     25 H                     0.206331
     26 C                    -0.012277
     27 S                     0.094952
     28 C                    -0.182576
     29 C                     0.013428
     30 C                    -0.117476
     31 S                     0.007312
     32 C                    -0.155598
     33 C                     0.396584
     34 F                    -0.206823
     35 C                     0.444973
     36 O                    -0.460953
     37 O                    -0.300665
     38 C                    -0.058638
     39 H                     0.121303
     40 H                     0.095030
     41 H                     0.095073
     42 H                     0.218126
  ----------------------------------------
  Sum of atomic charges =     0.000000

                    Cartesian Multipole Moments
 -----------------------------------------------------------------
    Charge (ESU x 10^10)
                 0.0000
    Dipole Moment (Debye)
         X       0.1858      Y       1.0053      Z       3.0340
       Tot       3.2016
    Quadrupole Moments (Debye-Ang)
        XX    -196.6637     XY       3.8213     YY    -160.2854
        XZ       8.9436     YZ      -8.1520     ZZ    -186.2810

 Total job time:  307.36s(wall), 9822.39s(cpu)
        *  Thank you very much for using Q-Chem.  Have a nice day.  *
