 Q-Chem 5.4, Q-Chem, Inc., Pleasanton, CA (2021)
 Q-Chem 5.4.0 for Intel X86 EM64T Linux

User input:
--------------------------------------------------------------
$molecule
0 1
C	-0.284919	-8.517702	-0.147685
C	0.728574	-7.641575	0.212552
S	-1.745304	-7.638634	-0.661757
C	0.374824	-6.264785	0.083761
H	1.715621	-7.966081	0.565513
C	-0.965104	-6.072714	-0.405665
C	-1.502136	-4.787049	-0.574617
C	1.214687	-5.162801	0.413763
C	0.675870	-3.874817	0.248748
C	-0.664513	-3.683952	-0.243888
O	2.464209	-5.499772	0.838511
O	-2.757750	-4.459055	-1.000176
C	-3.441858	-5.329063	-1.893778
H	-4.303826	-4.755694	-2.284868
H	-3.828743	-6.238095	-1.383341
H	-2.792824	-5.637262	-2.741817
C	3.241222	-4.572261	1.586168
H	4.108274	-5.139743	1.974033
H	2.668916	-4.153131	2.441448
H	3.620041	-3.739531	0.954660
C	-1.015668	-2.306654	-0.369302
S	1.453394	-2.306501	0.517367
C	-0.000000	-1.435185	-0.000000
H	-2.000559	-1.978138	-0.724300
H	-0.288311	-9.614033	-0.145124
C	0.000000	0.000000	0.000000
S	0.079327	0.901280	1.507541
C	0.215617	2.467903	0.718873
C	0.079577	0.900940	-1.067872
C	0.198433	2.285998	-0.686410
S	0.061187	0.658044	-2.805516
C	0.208347	2.403534	-3.054530
C	0.267636	3.109360	-1.862551
F	0.379347	4.441341	-1.819088
C	0.249278	2.849688	-4.456084
O	0.190132	2.082076	-5.406510
O	0.359548	4.195721	-4.569225
C	0.407901	4.688467	-5.916207
H	0.496901	5.785916	-5.833064
H	-0.512596	4.414348	-6.470168
H	1.278377	4.268124	-6.459293
H	0.294764	3.388767	1.306486
$end

$rem
JOBTYPE		SP
EXCHANGE	HF
CORRELATION	pRIMP2
BASIS		cc-pvtz
METHOD		rimp2
AUX_BASIS	rimp2-cc-pvtz
SOLVENT_METHOD	PCM
PURECART	11111
SYMMETRY	false
MEM_TOTAL	110000
SCF_CONVERGENCE = 6
THRESH=10
GUI = 2
$end

$solvent
dielectric 4.90
$end
--------------------------------------------------------------

             Standard Nuclear Orientation (Angstroms)
    I     Atom           X                Y                Z
 ----------------------------------------------------------------
    1      C      -0.2849190000    -8.5177020000    -0.1476850000
    2      C       0.7285740000    -7.6415750000     0.2125520000
    3      S      -1.7453040000    -7.6386340000    -0.6617570000
    4      C       0.3748240000    -6.2647850000     0.0837610000
    5      H       1.7156210000    -7.9660810000     0.5655130000
    6      C      -0.9651040000    -6.0727140000    -0.4056650000
    7      C      -1.5021360000    -4.7870490000    -0.5746170000
    8      C       1.2146870000    -5.1628010000     0.4137630000
    9      C       0.6758700000    -3.8748170000     0.2487480000
   10      C      -0.6645130000    -3.6839520000    -0.2438880000
   11      O       2.4642090000    -5.4997720000     0.8385110000
   12      O      -2.7577500000    -4.4590550000    -1.0001760000
   13      C      -3.4418580000    -5.3290630000    -1.8937780000
   14      H      -4.3038260000    -4.7556940000    -2.2848680000
   15      H      -3.8287430000    -6.2380950000    -1.3833410000
   16      H      -2.7928240000    -5.6372620000    -2.7418170000
   17      C       3.2412220000    -4.5722610000     1.5861680000
   18      H       4.1082740000    -5.1397430000     1.9740330000
   19      H       2.6689160000    -4.1531310000     2.4414480000
   20      H       3.6200410000    -3.7395310000     0.9546600000
   21      C      -1.0156680000    -2.3066540000    -0.3693020000
   22      S       1.4533940000    -2.3065010000     0.5173670000
   23      C       0.0000000000    -1.4351850000     0.0000000000
   24      H      -2.0005590000    -1.9781380000    -0.7243000000
   25      H      -0.2883110000    -9.6140330000    -0.1451240000
   26      C       0.0000000000     0.0000000000     0.0000000000
   27      S       0.0793270000     0.9012800000     1.5075410000
   28      C       0.2156170000     2.4679030000     0.7188730000
   29      C       0.0795770000     0.9009400000    -1.0678720000
   30      C       0.1984330000     2.2859980000    -0.6864100000
   31      S       0.0611870000     0.6580440000    -2.8055160000
   32      C       0.2083470000     2.4035340000    -3.0545300000
   33      C       0.2676360000     3.1093600000    -1.8625510000
   34      F       0.3793470000     4.4413410000    -1.8190880000
   35      C       0.2492780000     2.8496880000    -4.4560840000
   36      O       0.1901320000     2.0820760000    -5.4065100000
   37      O       0.3595480000     4.1957210000    -4.5692250000
   38      C       0.4079010000     4.6884670000    -5.9162070000
   39      H       0.4969010000     5.7859160000    -5.8330640000
   40      H      -0.5125960000     4.4143480000    -6.4701680000
   41      H       1.2783770000     4.2681240000    -6.4592930000
   42      H       0.2947640000     3.3887670000     1.3064860000
 ----------------------------------------------------------------

   10   -2754.3143528046      6.93e-07  Convergence criterion met
 Total energy in the final basis set =    -2754.3143528046
        RIMP2         total energy =     -2759.3637418375 a.u.

                    Orbital Energies (a.u.)
 --------------------------------------------------------------

 Alpha MOs
 -- Occupied --
-92.0144 -91.9964 -91.9896 -91.9866 -26.3425 -20.6142 -20.5926 -20.5917
-20.5605 -11.4086 -11.3813 -11.3194 -11.3186 -11.3087 -11.3001 -11.2972
-11.2963 -11.2922 -11.2885 -11.2873 -11.2865 -11.2860 -11.2841 -11.2835
-11.2803 -11.2607 -11.2596 -11.2581 -11.2502  -9.0129  -8.9964  -8.9900
 -8.9865  -6.6936  -6.6930  -6.6925  -6.6775  -6.6767  -6.6756  -6.6709
 -6.6702  -6.6693  -6.6675  -6.6669  -6.6660  -1.6596  -1.4666  -1.4167
 -1.4145  -1.3693  -1.2199  -1.1946  -1.1655  -1.1350  -1.0845  -1.0522
 -1.0405  -1.0217  -1.0018  -0.9878  -0.9615  -0.9606  -0.9505  -0.9385
 -0.8960  -0.8666  -0.8516  -0.8083  -0.7951  -0.7881  -0.7866  -0.7649
 -0.7548  -0.7341  -0.7245  -0.7088  -0.7013  -0.6845  -0.6833  -0.6799
 -0.6733  -0.6593  -0.6571  -0.6527  -0.6306  -0.6202  -0.6174  -0.6047
 -0.5969  -0.5855  -0.5774  -0.5694  -0.5666  -0.5596  -0.5552  -0.5495
 -0.5336  -0.5304  -0.5234  -0.5161  -0.5156  -0.5092  -0.5039  -0.4943
 -0.4894  -0.4789  -0.4750  -0.4730  -0.4698  -0.4672  -0.4616  -0.4081
 -0.3964  -0.3873  -0.3573  -0.3493  -0.3165  -0.2965  -0.2583

          Ground-State Mulliken Net Atomic Charges

     Atom                 Charge (a.u.)
  ----------------------------------------
      1 C                    -0.187388
      2 C                    -0.254519
      3 S                    -0.021501
      4 C                    -0.013431
      5 H                     0.196400
      6 C                    -0.027407
      7 C                     0.245278
      8 C                     0.238894
      9 C                    -0.045751
     10 C                    -0.029908
     11 O                    -0.333179
     12 O                    -0.339897
     13 C                    -0.085895
     14 H                     0.122943
     15 H                     0.090902
     16 H                     0.094529
     17 C                    -0.086634
     18 H                     0.124835
     19 H                     0.094243
     20 H                     0.090224
     21 C                    -0.218112
     22 S                    -0.001556
     23 C                    -0.057900
     24 H                     0.198858
     25 H                     0.206573
     26 C                    -0.021116
     27 S                     0.105579
     28 C                    -0.186037
     29 C                     0.018444
     30 C                    -0.107678
     31 S                     0.005955
     32 C                    -0.152995
     33 C                     0.391361
     34 F                    -0.207192
     35 C                     0.444852
     36 O                    -0.461224
     37 O                    -0.300619
     38 C                    -0.058651
     39 H                     0.121207
     40 H                     0.094995
     41 H                     0.094995
     42 H                     0.217524
  ----------------------------------------
  Sum of atomic charges =     0.000000

                    Cartesian Multipole Moments
 -----------------------------------------------------------------
    Charge (ESU x 10^10)
                 0.0000
    Dipole Moment (Debye)
         X       0.3395      Y       0.7963      Z       2.8298
       Tot       2.9593
    Quadrupole Moments (Debye-Ang)
        XX    -184.3620     XY       1.3840     YY    -159.0782
        XZ      11.0831     YZ      -5.7430     ZZ    -199.1767

 Total job time:  298.05s(wall), 9844.81s(cpu)
        *  Thank you very much for using Q-Chem.  Have a nice day.  *
