 Q-Chem 5.4, Q-Chem, Inc., Pleasanton, CA (2021)
 Q-Chem 5.4.0 for Intel X86 EM64T Linux

User input:
--------------------------------------------------------------
$molecule
0 1
C	0.296276	-8.517702	-0.123330
C	-0.631143	-7.641575	0.421494
S	1.628795	-7.638634	-0.911611
C	-0.305097	-6.264785	0.233291
H	-1.535988	-7.966081	0.950737
C	0.931114	-6.072714	-0.478557
C	1.405737	-4.787049	-0.781346
C	-1.097747	-5.162801	0.664542
C	-0.624993	-3.874817	0.357854
C	0.613970	-3.683952	-0.352278
O	-2.226300	-5.499772	1.348709
O	2.538827	-4.459055	-1.469658
C	3.663102	-5.329063	-1.419319
H	4.516756	-4.755694	-1.828237
H	3.520769	-6.238095	-2.043793
H	3.895546	-5.637262	-0.377021
C	-3.298492	-4.572261	1.463351
H	-4.152945	-5.139743	1.878237
H	-3.585804	-4.153131	0.475176
H	-3.058230	-3.739531	2.159469
C	0.935761	-2.306654	-0.540664
S	-1.330550	-2.306501	0.780808
C	-0.000000	-1.435185	-0.000000
H	1.840780	-1.978138	-1.066946
H	0.296494	-9.614033	-0.127575
C	0.000000	0.000000	0.000000
S	0.309893	0.850039	1.507541
C	0.847011	2.328006	0.718873
C	0.310046	0.849645	-1.067872
C	0.783331	2.156746	-0.686410
S	0.229416	0.619785	-2.805516
C	0.823328	2.267711	-3.054530
C	1.063278	2.934142	-1.862551
F	1.515925	4.191824	-1.819088
C	0.978337	2.688069	-4.456084
O	0.722535	1.961921	-5.406510
O	1.433229	3.959697	-4.569225
C	1.607467	4.423139	-5.916207
H	1.977475	5.460158	-5.833064
H	0.647388	4.396602	-6.470168
H	2.339490	3.791823	-6.459293
H	1.161798	3.197007	1.306486
$end

$rem
JOBTYPE		SP
EXCHANGE	HF
CORRELATION	pRIMP2
BASIS		cc-pvtz
METHOD		rimp2
AUX_BASIS	rimp2-cc-pvtz
SOLVENT_METHOD	PCM
PURECART	11111
SYMMETRY	false
MEM_TOTAL	110000
SCF_CONVERGENCE = 6
THRESH=10
GUI = 2
$end

$solvent
dielectric 4.90
$end
--------------------------------------------------------------

             Standard Nuclear Orientation (Angstroms)
    I     Atom           X                Y                Z
 ----------------------------------------------------------------
    1      C       0.2962760000    -8.5177020000    -0.1233300000
    2      C      -0.6311430000    -7.6415750000     0.4214940000
    3      S       1.6287950000    -7.6386340000    -0.9116110000
    4      C      -0.3050970000    -6.2647850000     0.2332910000
    5      H      -1.5359880000    -7.9660810000     0.9507370000
    6      C       0.9311140000    -6.0727140000    -0.4785570000
    7      C       1.4057370000    -4.7870490000    -0.7813460000
    8      C      -1.0977470000    -5.1628010000     0.6645420000
    9      C      -0.6249930000    -3.8748170000     0.3578540000
   10      C       0.6139700000    -3.6839520000    -0.3522780000
   11      O      -2.2263000000    -5.4997720000     1.3487090000
   12      O       2.5388270000    -4.4590550000    -1.4696580000
   13      C       3.6631020000    -5.3290630000    -1.4193190000
   14      H       4.5167560000    -4.7556940000    -1.8282370000
   15      H       3.5207690000    -6.2380950000    -2.0437930000
   16      H       3.8955460000    -5.6372620000    -0.3770210000
   17      C      -3.2984920000    -4.5722610000     1.4633510000
   18      H      -4.1529450000    -5.1397430000     1.8782370000
   19      H      -3.5858040000    -4.1531310000     0.4751760000
   20      H      -3.0582300000    -3.7395310000     2.1594690000
   21      C       0.9357610000    -2.3066540000    -0.5406640000
   22      S      -1.3305500000    -2.3065010000     0.7808080000
   23      C       0.0000000000    -1.4351850000     0.0000000000
   24      H       1.8407800000    -1.9781380000    -1.0669460000
   25      H       0.2964940000    -9.6140330000    -0.1275750000
   26      C       0.0000000000     0.0000000000     0.0000000000
   27      S       0.3098930000     0.8500390000     1.5075410000
   28      C       0.8470110000     2.3280060000     0.7188730000
   29      C       0.3100460000     0.8496450000    -1.0678720000
   30      C       0.7833310000     2.1567460000    -0.6864100000
   31      S       0.2294160000     0.6197850000    -2.8055160000
   32      C       0.8233280000     2.2677110000    -3.0545300000
   33      C       1.0632780000     2.9341420000    -1.8625510000
   34      F       1.5159250000     4.1918240000    -1.8190880000
   35      C       0.9783370000     2.6880690000    -4.4560840000
   36      O       0.7225350000     1.9619210000    -5.4065100000
   37      O       1.4332290000     3.9596970000    -4.5692250000
   38      C       1.6074670000     4.4231390000    -5.9162070000
   39      H       1.9774750000     5.4601580000    -5.8330640000
   40      H       0.6473880000     4.3966020000    -6.4701680000
   41      H       2.3394900000     3.7918230000    -6.4592930000
   42      H       1.1617980000     3.1970070000     1.3064860000
 ----------------------------------------------------------------

   10   -2754.3087512495      7.33e-07  Convergence criterion met
 Total energy in the final basis set =    -2754.3087512495
        RIMP2         total energy =     -2759.3602438891 a.u.

                    Orbital Energies (a.u.)
 --------------------------------------------------------------

 Alpha MOs
 -- Occupied --
-92.0143 -91.9976 -91.9882 -91.9862 -26.3429 -20.6144 -20.5923 -20.5912
-20.5607 -11.4088 -11.3818 -11.3190 -11.3177 -11.3117 -11.3020 -11.2967
-11.2947 -11.2929 -11.2886 -11.2870 -11.2859 -11.2856 -11.2843 -11.2838
-11.2797 -11.2606 -11.2587 -11.2565 -11.2499  -9.0129  -8.9976  -8.9887
 -8.9861  -6.6936  -6.6930  -6.6925  -6.6786  -6.6779  -6.6768  -6.6696
 -6.6689  -6.6680  -6.6671  -6.6665  -6.6656  -1.6600  -1.4668  -1.4164
 -1.4140  -1.3695  -1.2212  -1.1941  -1.1652  -1.1356  -1.0844  -1.0517
 -1.0413  -1.0223  -1.0011  -0.9876  -0.9620  -0.9601  -0.9502  -0.9389
 -0.8955  -0.8672  -0.8504  -0.8082  -0.7965  -0.7877  -0.7863  -0.7643
 -0.7549  -0.7336  -0.7249  -0.7093  -0.7014  -0.6847  -0.6828  -0.6802
 -0.6735  -0.6591  -0.6574  -0.6524  -0.6301  -0.6199  -0.6170  -0.6048
 -0.5975  -0.5837  -0.5768  -0.5707  -0.5661  -0.5615  -0.5535  -0.5508
 -0.5313  -0.5302  -0.5240  -0.5160  -0.5149  -0.5080  -0.5049  -0.4953
 -0.4885  -0.4798  -0.4751  -0.4732  -0.4688  -0.4667  -0.4605  -0.4112
 -0.3954  -0.3865  -0.3576  -0.3495  -0.3200  -0.2940  -0.2560

          Ground-State Mulliken Net Atomic Charges

     Atom                 Charge (a.u.)
  ----------------------------------------
      1 C                    -0.188743
      2 C                    -0.253962
      3 S                    -0.022056
      4 C                    -0.016022
      5 H                     0.196249
      6 C                    -0.028827
      7 C                     0.240881
      8 C                     0.243611
      9 C                    -0.050546
     10 C                    -0.020251
     11 O                    -0.333525
     12 O                    -0.339525
     13 C                    -0.085701
     14 H                     0.122755
     15 H                     0.091111
     16 H                     0.093665
     17 C                    -0.086657
     18 H                     0.124911
     19 H                     0.094997
     20 H                     0.089281
     21 C                    -0.215580
     22 S                    -0.008401
     23 C                    -0.016630
     24 H                     0.201762
     25 H                     0.206361
     26 C                    -0.044770
     27 S                     0.109387
     28 C                    -0.184884
     29 C                    -0.035732
     30 C                    -0.088358
     31 S                     0.019109
     32 C                    -0.153887
     33 C                     0.392632
     34 F                    -0.207077
     35 C                     0.445502
     36 O                    -0.461094
     37 O                    -0.300839
     38 C                    -0.058413
     39 H                     0.121211
     40 H                     0.095122
     41 H                     0.094996
     42 H                     0.217933
  ----------------------------------------
  Sum of atomic charges =     0.000000

                    Cartesian Multipole Moments
 -----------------------------------------------------------------
    Charge (ESU x 10^10)
                 0.0000
    Dipole Moment (Debye)
         X       1.1010      Y       0.9926      Z       3.2089
       Tot       3.5347
    Quadrupole Moments (Debye-Ang)
        XX    -177.0997     XY       4.0796     YY    -161.8236
        XZ      -9.3271     YZ      -7.8521     ZZ    -204.5385

 Total job time:  307.76s(wall), 9019.49s(cpu)
        *  Thank you very much for using Q-Chem.  Have a nice day.  *
