 Q-Chem 5.4, Q-Chem, Inc., Pleasanton, CA (2021)
 Q-Chem 5.4.0 for Intel X86 EM64T Linux

User input:
--------------------------------------------------------------
$molecule
0 1
C	0.217225	-8.517702	0.236226
C	-0.611939	-7.641575	-0.448921
S	1.413715	-7.638634	1.218777
C	-0.323572	-6.264785	-0.206907
H	-1.418739	-7.966081	-1.118185
C	0.768156	-6.072714	0.711285
C	1.215016	-4.787049	1.053725
C	-0.999917	-5.162801	-0.804258
C	-0.550033	-3.874817	-0.464908
C	0.541024	-3.683952	0.456457
O	-2.028811	-5.499772	-1.630752
O	2.249357	-4.459055	1.883064
C	2.586579	-5.329063	2.956754
H	3.262802	-4.755694	3.619069
H	3.124711	-6.238095	2.609423
H	1.686639	-5.637262	3.531667
C	-2.503251	-4.572261	-2.599073
H	-3.185356	-5.139743	-3.260097
H	-1.672937	-4.153131	-3.207034
H	-3.075213	-3.739531	-2.135214
C	0.828107	-2.306654	0.694410
S	-1.188794	-2.306501	-0.983256
C	-0.000000	-1.435185	-0.000000
H	1.632185	-1.978138	1.364851
H	0.221288	-9.614033	0.234980
C	0.000000	0.000000	0.000000
S	0.157577	0.890937	1.507541
C	0.429889	2.439720	0.718873
C	0.157797	0.890576	-1.067872
C	0.396915	2.260004	-0.686410
S	0.118307	0.650207	-2.805516
C	0.417036	2.376229	-3.054530
C	0.537616	3.074202	-1.862551
F	0.764992	4.391378	-1.819088
C	0.496696	2.817118	-4.456084
O	0.370874	2.057582	-5.406510
O	0.723861	4.148418	-4.569225
C	0.814976	4.635075	-5.916207
H	0.999286	5.720591	-5.833064
H	-0.125909	4.442226	-6.470168
H	1.645504	4.140465	-6.459293
H	0.588993	3.350182	1.306486
$end

$rem
JOBTYPE		SP
EXCHANGE	HF
CORRELATION	pRIMP2
BASIS		cc-pvtz
METHOD		rimp2
AUX_BASIS	rimp2-cc-pvtz
SOLVENT_METHOD	PCM
PURECART	11111
SYMMETRY	false
MEM_TOTAL	110000
SCF_CONVERGENCE = 6
THRESH=10
GUI = 2
$end

$solvent
dielectric 4.90
$end
--------------------------------------------------------------

             Standard Nuclear Orientation (Angstroms)
    I     Atom           X                Y                Z
 ----------------------------------------------------------------
    1      C       0.2172250000    -8.5177020000     0.2362260000
    2      C      -0.6119390000    -7.6415750000    -0.4489210000
    3      S       1.4137150000    -7.6386340000     1.2187770000
    4      C      -0.3235720000    -6.2647850000    -0.2069070000
    5      H      -1.4187390000    -7.9660810000    -1.1181850000
    6      C       0.7681560000    -6.0727140000     0.7112850000
    7      C       1.2150160000    -4.7870490000     1.0537250000
    8      C      -0.9999170000    -5.1628010000    -0.8042580000
    9      C      -0.5500330000    -3.8748170000    -0.4649080000
   10      C       0.5410240000    -3.6839520000     0.4564570000
   11      O      -2.0288110000    -5.4997720000    -1.6307520000
   12      O       2.2493570000    -4.4590550000     1.8830640000
   13      C       2.5865790000    -5.3290630000     2.9567540000
   14      H       3.2628020000    -4.7556940000     3.6190690000
   15      H       3.1247110000    -6.2380950000     2.6094230000
   16      H       1.6866390000    -5.6372620000     3.5316670000
   17      C      -2.5032510000    -4.5722610000    -2.5990730000
   18      H      -3.1853560000    -5.1397430000    -3.2600970000
   19      H      -1.6729370000    -4.1531310000    -3.2070340000
   20      H      -3.0752130000    -3.7395310000    -2.1352140000
   21      C       0.8281070000    -2.3066540000     0.6944100000
   22      S      -1.1887940000    -2.3065010000    -0.9832560000
   23      C       0.0000000000    -1.4351850000     0.0000000000
   24      H       1.6321850000    -1.9781380000     1.3648510000
   25      H       0.2212880000    -9.6140330000     0.2349800000
   26      C       0.0000000000     0.0000000000     0.0000000000
   27      S       0.1575770000     0.8909370000     1.5075410000
   28      C       0.4298890000     2.4397200000     0.7188730000
   29      C       0.1577970000     0.8905760000    -1.0678720000
   30      C       0.3969150000     2.2600040000    -0.6864100000
   31      S       0.1183070000     0.6502070000    -2.8055160000
   32      C       0.4170360000     2.3762290000    -3.0545300000
   33      C       0.5376160000     3.0742020000    -1.8625510000
   34      F       0.7649920000     4.3913780000    -1.8190880000
   35      C       0.4966960000     2.8171180000    -4.4560840000
   36      O       0.3708740000     2.0575820000    -5.4065100000
   37      O       0.7238610000     4.1484180000    -4.5692250000
   38      C       0.8149760000     4.6350750000    -5.9162070000
   39      H       0.9992860000     5.7205910000    -5.8330640000
   40      H      -0.1259090000     4.4422260000    -6.4701680000
   41      H       1.6455040000     4.1404650000    -6.4592930000
   42      H       0.5889930000     3.3501820000     1.3064860000
 ----------------------------------------------------------------

   10   -2754.3146381403      7.01e-07  Convergence criterion met
 Total energy in the final basis set =    -2754.3146381403
        RIMP2         total energy =     -2759.3657218742 a.u.

                    Orbital Energies (a.u.)
 --------------------------------------------------------------

 Alpha MOs
 -- Occupied --
-92.0156 -91.9974 -91.9901 -91.9865 -26.3428 -20.6144 -20.5924 -20.5917
-20.5608 -11.4089 -11.3817 -11.3196 -11.3180 -11.3089 -11.3006 -11.2986
-11.2967 -11.2951 -11.2886 -11.2867 -11.2864 -11.2863 -11.2844 -11.2842
-11.2798 -11.2614 -11.2589 -11.2570 -11.2500  -9.0139  -8.9974  -8.9905
 -8.9864  -6.6946  -6.6940  -6.6935  -6.6784  -6.6777  -6.6766  -6.6715
 -6.6708  -6.6698  -6.6674  -6.6668  -6.6659  -1.6599  -1.4669  -1.4165
 -1.4144  -1.3695  -1.2209  -1.1947  -1.1657  -1.1355  -1.0851  -1.0521
 -1.0410  -1.0227  -1.0019  -0.9880  -0.9632  -0.9591  -0.9501  -0.9396
 -0.8958  -0.8671  -0.8515  -0.8126  -0.7916  -0.7880  -0.7870  -0.7651
 -0.7551  -0.7340  -0.7248  -0.7096  -0.6995  -0.6850  -0.6834  -0.6808
 -0.6735  -0.6593  -0.6574  -0.6527  -0.6306  -0.6201  -0.6169  -0.6040
 -0.5973  -0.5862  -0.5768  -0.5695  -0.5673  -0.5624  -0.5553  -0.5528
 -0.5312  -0.5294  -0.5228  -0.5170  -0.5160  -0.5097  -0.5053  -0.4945
 -0.4891  -0.4784  -0.4767  -0.4732  -0.4706  -0.4656  -0.4608  -0.4150
 -0.3965  -0.3861  -0.3590  -0.3487  -0.3218  -0.2925  -0.2552

          Ground-State Mulliken Net Atomic Charges

     Atom                 Charge (a.u.)
  ----------------------------------------
      1 C                    -0.188800
      2 C                    -0.253527
      3 S                    -0.022293
      4 C                    -0.015494
      5 H                     0.196520
      6 C                    -0.027902
      7 C                     0.240678
      8 C                     0.242808
      9 C                    -0.045737
     10 C                    -0.027754
     11 O                    -0.333344
     12 O                    -0.340221
     13 C                    -0.085779
     14 H                     0.122510
     15 H                     0.091218
     16 H                     0.093899
     17 C                    -0.087518
     18 H                     0.124926
     19 H                     0.095854
     20 H                     0.089881
     21 C                    -0.237114
     22 S                    -0.005744
     23 C                    -0.021160
     24 H                     0.199150
     25 H                     0.206415
     26 C                    -0.020381
     27 S                     0.100472
     28 C                    -0.185322
     29 C                     0.011039
     30 C                    -0.112924
     31 S                     0.007987
     32 C                    -0.152668
     33 C                     0.393719
     34 F                    -0.206891
     35 C                     0.444841
     36 O                    -0.461025
     37 O                    -0.300662
     38 C                    -0.058622
     39 H                     0.121258
     40 H                     0.095004
     41 H                     0.095059
     42 H                     0.217646
  ----------------------------------------
  Sum of atomic charges =     0.000000

                    Cartesian Multipole Moments
 -----------------------------------------------------------------
    Charge (ESU x 10^10)
                 0.0000
    Dipole Moment (Debye)
         X       0.2108      Y       0.9428      Z       3.1203
       Tot       3.2665
    Quadrupole Moments (Debye-Ang)
        XX    -192.7261     XY       3.5496     YY    -160.1440
        XZ      10.9297     YZ      -8.3841     ZZ    -190.2893

 Total job time:  334.20s(wall), 11454.90s(cpu)
        *  Thank you very much for using Q-Chem.  Have a nice day.  *
