 Q-Chem 5.4, Q-Chem, Inc., Pleasanton, CA (2021)
 Q-Chem 5.4.0 for Intel X86 EM64T Linux

User input:
--------------------------------------------------------------
$molecule
0 1
C	-0.172904	-8.517702	-0.270358
C	0.524688	-7.641575	0.548363
S	-1.180599	-7.638634	-1.445750
C	0.282727	-6.264785	0.259951
H	1.203014	-7.966081	1.347559
C	-0.632972	-6.072714	-0.833868
C	-1.013580	-4.787049	-1.248701
C	0.845068	-5.162801	0.965673
C	0.460946	-3.874817	0.553357
C	-0.453541	-3.683952	-0.543470
O	1.714812	-5.499772	1.958276
O	-1.888193	-4.459055	-2.245053
C	-2.033848	-5.329063	-3.360989
H	-2.584788	-4.755694	-4.130667
H	-2.624118	-6.238095	-3.112380
H	-1.047748	-5.637262	-3.770895
C	2.013896	-4.572261	2.994272
H	2.570853	-5.139743	3.763700
H	1.090625	-4.153131	3.448815
H	2.657717	-3.739531	2.636780
C	-0.694943	-2.306654	-0.827659
S	0.999993	-2.306501	1.174750
C	0.000000	-1.435185	0.000000
H	-1.370385	-1.978138	-1.627541
H	-0.177122	-9.614033	-0.269836
C	0.000000	0.000000	0.000000
S	0.693394	0.581209	1.507541
C	1.897536	1.592607	0.718873
C	0.693330	0.580791	-1.067872
C	1.756758	1.476132	-0.686410
S	0.508573	0.422041	-2.805516
C	1.846879	1.552232	-3.054530
C	2.387897	2.009402	-1.862551
F	3.408741	2.872264	-1.819088
C	2.191300	1.838768	-4.456084
O	1.606694	1.337806	-5.406510
O	3.221062	2.712584	-4.569225
C	3.603677	3.026817	-5.916207
H	4.442623	3.739898	-5.833064
H	2.758956	3.483875	-6.470168
H	3.921969	2.114070	-6.459293
H	2.604650	2.187790	1.306486
$end

$rem
JOBTYPE		SP
EXCHANGE	HF
CORRELATION	pRIMP2
BASIS		cc-pvtz
METHOD		rimp2
AUX_BASIS	rimp2-cc-pvtz
SOLVENT_METHOD	PCM
PURECART	11111
SYMMETRY	false
MEM_TOTAL	110000
SCF_CONVERGENCE = 6
THRESH=10
GUI = 2
$end

$solvent
dielectric 4.90
$end
--------------------------------------------------------------

             Standard Nuclear Orientation (Angstroms)
    I     Atom           X                Y                Z
 ----------------------------------------------------------------
    1      C      -0.1729040000    -8.5177020000    -0.2703580000
    2      C       0.5246880000    -7.6415750000     0.5483630000
    3      S      -1.1805990000    -7.6386340000    -1.4457500000
    4      C       0.2827270000    -6.2647850000     0.2599510000
    5      H       1.2030140000    -7.9660810000     1.3475590000
    6      C      -0.6329720000    -6.0727140000    -0.8338680000
    7      C      -1.0135800000    -4.7870490000    -1.2487010000
    8      C       0.8450680000    -5.1628010000     0.9656730000
    9      C       0.4609460000    -3.8748170000     0.5533570000
   10      C      -0.4535410000    -3.6839520000    -0.5434700000
   11      O       1.7148120000    -5.4997720000     1.9582760000
   12      O      -1.8881930000    -4.4590550000    -2.2450530000
   13      C      -2.0338480000    -5.3290630000    -3.3609890000
   14      H      -2.5847880000    -4.7556940000    -4.1306670000
   15      H      -2.6241180000    -6.2380950000    -3.1123800000
   16      H      -1.0477480000    -5.6372620000    -3.7708950000
   17      C       2.0138960000    -4.5722610000     2.9942720000
   18      H       2.5708530000    -5.1397430000     3.7637000000
   19      H       1.0906250000    -4.1531310000     3.4488150000
   20      H       2.6577170000    -3.7395310000     2.6367800000
   21      C      -0.6949430000    -2.3066540000    -0.8276590000
   22      S       0.9999930000    -2.3065010000     1.1747500000
   23      C       0.0000000000    -1.4351850000     0.0000000000
   24      H      -1.3703850000    -1.9781380000    -1.6275410000
   25      H      -0.1771220000    -9.6140330000    -0.2698360000
   26      C       0.0000000000     0.0000000000     0.0000000000
   27      S       0.6933940000     0.5812090000     1.5075410000
   28      C       1.8975360000     1.5926070000     0.7188730000
   29      C       0.6933300000     0.5807910000    -1.0678720000
   30      C       1.7567580000     1.4761320000    -0.6864100000
   31      S       0.5085730000     0.4220410000    -2.8055160000
   32      C       1.8468790000     1.5522320000    -3.0545300000
   33      C       2.3878970000     2.0094020000    -1.8625510000
   34      F       3.4087410000     2.8722640000    -1.8190880000
   35      C       2.1913000000     1.8387680000    -4.4560840000
   36      O       1.6066940000     1.3378060000    -5.4065100000
   37      O       3.2210620000     2.7125840000    -4.5692250000
   38      C       3.6036770000     3.0268170000    -5.9162070000
   39      H       4.4426230000     3.7398980000    -5.8330640000
   40      H       2.7589560000     3.4838750000    -6.4701680000
   41      H       3.9219690000     2.1140700000    -6.4592930000
   42      H       2.6046500000     2.1877900000     1.3064860000
 ----------------------------------------------------------------

   10   -2754.2685758414      7.75e-07  Convergence criterion met
 Total energy in the final basis set =    -2754.2685758414
        RIMP2         total energy =     -2759.3304465021 a.u.

                    Orbital Energies (a.u.)
 --------------------------------------------------------------

 Alpha MOs
 -- Occupied --
-92.0148 -92.0076 -91.9876 -91.9829 -26.3461 -20.6157 -20.5911 -20.5866
-20.5622 -11.4108 -11.3866 -11.3296 -11.3183 -11.3169 -11.3096 -11.2990
-11.2950 -11.2894 -11.2891 -11.2867 -11.2832 -11.2815 -11.2808 -11.2775
-11.2748 -11.2570 -11.2522 -11.2474 -11.2381  -9.0144  -9.0072  -8.9882
 -8.9829  -6.6951  -6.6942  -6.6939  -6.6881  -6.6874  -6.6864  -6.6690
 -6.6683  -6.6673  -6.6639  -6.6632  -6.6624  -1.6631  -1.4682  -1.4150
 -1.4095  -1.3710  -1.2316  -1.1902  -1.1647  -1.1395  -1.0841  -1.0478
 -1.0450  -1.0271  -0.9977  -0.9869  -0.9656  -0.9582  -0.9484  -0.9385
 -0.8935  -0.8715  -0.8461  -0.8118  -0.7973  -0.7855  -0.7834  -0.7619
 -0.7561  -0.7302  -0.7278  -0.7132  -0.6994  -0.6864  -0.6829  -0.6788
 -0.6748  -0.6596  -0.6572  -0.6497  -0.6287  -0.6171  -0.6150  -0.6055
 -0.6006  -0.5904  -0.5773  -0.5704  -0.5634  -0.5623  -0.5532  -0.5380
 -0.5333  -0.5310  -0.5203  -0.5173  -0.5131  -0.5115  -0.5027  -0.4931
 -0.4875  -0.4836  -0.4761  -0.4741  -0.4693  -0.4601  -0.4584  -0.4192
 -0.3948  -0.3805  -0.3574  -0.3482  -0.3227  -0.2946  -0.2483

          Ground-State Mulliken Net Atomic Charges

     Atom                 Charge (a.u.)
  ----------------------------------------
      1 C                    -0.198679
      2 C                    -0.253343
      3 S                    -0.027687
      4 C                    -0.024546
      5 H                     0.194937
      6 C                    -0.024117
      7 C                     0.227235
      8 C                     0.242138
      9 C                    -0.054692
     10 C                    -0.008057
     11 O                    -0.333185
     12 O                    -0.341734
     13 C                    -0.085669
     14 H                     0.121585
     15 H                     0.090083
     16 H                     0.092596
     17 C                    -0.087386
     18 H                     0.125149
     19 H                     0.094069
     20 H                     0.088677
     21 C                    -0.296580
     22 S                    -0.022451
     23 C                     0.011965
     24 H                     0.193808
     25 H                     0.204511
     26 C                    -0.091511
     27 S                     0.094563
     28 C                    -0.135268
     29 C                     0.070061
     30 C                    -0.110586
     31 S                     0.045293
     32 C                    -0.152917
     33 C                     0.394813
     34 F                    -0.204163
     35 C                     0.448212
     36 O                    -0.461360
     37 O                    -0.301219
     38 C                    -0.058214
     39 H                     0.121528
     40 H                     0.095267
     41 H                     0.095429
     42 H                     0.221445
  ----------------------------------------
  Sum of atomic charges =     0.000000

                    Cartesian Multipole Moments
 -----------------------------------------------------------------
    Charge (ESU x 10^10)
                 0.0000
    Dipole Moment (Debye)
         X       3.6105      Y       2.5005      Z       2.8646
       Tot       5.2435
    Quadrupole Moments (Debye-Ang)
        XX    -186.9219     XY       7.0013     YY    -178.9511
        XZ       4.0589     YZ      -4.9488     ZZ    -184.8442

 Total job time:  1537.61s(wall), 8813.93s(cpu)
        *  Thank you very much for using Q-Chem.  Have a nice day.  *
