 Q-Chem 5.4, Q-Chem, Inc., Pleasanton, CA (2021)
 Q-Chem 5.4.0 for Intel X86 EM64T Linux

User input:
--------------------------------------------------------------
$molecule
0 1
C	-0.313191	-8.517702	0.070009
C	0.694746	-7.641575	-0.305494
S	-1.762350	-7.638634	0.614924
C	0.340973	-6.264785	-0.176768
H	1.677747	-7.966081	-0.669571
C	-1.000069	-6.072714	0.309600
C	-1.520060	-4.787049	0.525372
C	1.196466	-5.162801	-0.463825
C	0.677639	-3.874817	-0.243888
C	-0.665815	-3.683952	0.240312
O	2.426678	-5.499772	-0.941626
O	-2.755460	-4.459055	1.006468
C	-3.853913	-5.329063	0.761666
H	-4.765607	-4.755694	1.016135
H	-3.822182	-6.238095	1.401368
H	-3.901833	-5.637262	-0.305161
C	3.502489	-4.572261	-0.868342
H	4.416005	-5.139743	-1.128551
H	3.613841	-4.153131	0.154712
H	3.386756	-3.739531	-1.595605
C	-1.015430	-2.306654	0.369957
S	1.445922	-2.306501	-0.537898
C	-0.000000	-1.435185	-0.000000
H	-1.998088	-1.978138	0.731088
H	-0.314143	-9.614033	0.074151
C	0.000000	0.000000	0.000000
S	0.783786	0.451972	1.507541
C	2.145261	1.238908	0.718873
C	0.783650	0.451572	-1.067872
C	1.986396	1.148648	-0.686410
S	0.574133	0.327317	-2.805516
C	2.088363	1.207943	-3.054530
C	2.700548	1.564221	-1.862551
F	3.855718	2.236706	-1.819088
C	2.477307	1.430318	-4.456084
O	1.814592	1.038482	-5.406510
O	3.643162	2.112042	-4.569225
C	4.074530	2.355061	-5.916207
H	5.024556	2.911627	-5.833064
H	3.322010	2.951860	-6.470168
H	4.229490	1.400910	-6.459293
H	2.944986	1.702260	1.306486
$end

$rem
JOBTYPE		SP
EXCHANGE	HF
CORRELATION	pRIMP2
BASIS		cc-pvtz
METHOD		rimp2
AUX_BASIS	rimp2-cc-pvtz
SOLVENT_METHOD	PCM
PURECART	11111
SYMMETRY	false
MEM_TOTAL	110000
SCF_CONVERGENCE = 6
THRESH=10
GUI = 2
$end

$solvent
dielectric 4.90
$end
--------------------------------------------------------------

             Standard Nuclear Orientation (Angstroms)
    I     Atom           X                Y                Z
 ----------------------------------------------------------------
    1      C      -0.3131910000    -8.5177020000     0.0700090000
    2      C       0.6947460000    -7.6415750000    -0.3054940000
    3      S      -1.7623500000    -7.6386340000     0.6149240000
    4      C       0.3409730000    -6.2647850000    -0.1767680000
    5      H       1.6777470000    -7.9660810000    -0.6695710000
    6      C      -1.0000690000    -6.0727140000     0.3096000000
    7      C      -1.5200600000    -4.7870490000     0.5253720000
    8      C       1.1964660000    -5.1628010000    -0.4638250000
    9      C       0.6776390000    -3.8748170000    -0.2438880000
   10      C      -0.6658150000    -3.6839520000     0.2403120000
   11      O       2.4266780000    -5.4997720000    -0.9416260000
   12      O      -2.7554600000    -4.4590550000     1.0064680000
   13      C      -3.8539130000    -5.3290630000     0.7616660000
   14      H      -4.7656070000    -4.7556940000     1.0161350000
   15      H      -3.8221820000    -6.2380950000     1.4013680000
   16      H      -3.9018330000    -5.6372620000    -0.3051610000
   17      C       3.5024890000    -4.5722610000    -0.8683420000
   18      H       4.4160050000    -5.1397430000    -1.1285510000
   19      H       3.6138410000    -4.1531310000     0.1547120000
   20      H       3.3867560000    -3.7395310000    -1.5956050000
   21      C      -1.0154300000    -2.3066540000     0.3699570000
   22      S       1.4459220000    -2.3065010000    -0.5378980000
   23      C       0.0000000000    -1.4351850000     0.0000000000
   24      H      -1.9980880000    -1.9781380000     0.7310880000
   25      H      -0.3141430000    -9.6140330000     0.0741510000
   26      C       0.0000000000     0.0000000000     0.0000000000
   27      S       0.7837860000     0.4519720000     1.5075410000
   28      C       2.1452610000     1.2389080000     0.7188730000
   29      C       0.7836500000     0.4515720000    -1.0678720000
   30      C       1.9863960000     1.1486480000    -0.6864100000
   31      S       0.5741330000     0.3273170000    -2.8055160000
   32      C       2.0883630000     1.2079430000    -3.0545300000
   33      C       2.7005480000     1.5642210000    -1.8625510000
   34      F       3.8557180000     2.2367060000    -1.8190880000
   35      C       2.4773070000     1.4303180000    -4.4560840000
   36      O       1.8145920000     1.0384820000    -5.4065100000
   37      O       3.6431620000     2.1120420000    -4.5692250000
   38      C       4.0745300000     2.3550610000    -5.9162070000
   39      H       5.0245560000     2.9116270000    -5.8330640000
   40      H       3.3220100000     2.9518600000    -6.4701680000
   41      H       4.2294900000     1.4009100000    -6.4592930000
   42      H       2.9449860000     1.7022600000     1.3064860000
 ----------------------------------------------------------------

   10   -2754.2497671695      8.31e-07  Convergence criterion met
 Total energy in the final basis set =    -2754.2497671695
        RIMP2         total energy =     -2759.3150896506 a.u.

                    Orbital Energies (a.u.)
 --------------------------------------------------------------

 Alpha MOs
 -- Occupied --
-92.0145 -92.0088 -91.9838 -91.9809 -26.3465 -20.6158 -20.5906 -20.5881
-20.5623 -11.4109 -11.3872 -11.3353 -11.3194 -11.3162 -11.3123 -11.2994
-11.2896 -11.2892 -11.2889 -11.2861 -11.2842 -11.2810 -11.2801 -11.2765
-11.2665 -11.2556 -11.2544 -11.2480 -11.2412  -9.0137  -9.0084  -8.9838
 -8.9821  -6.6943  -6.6934  -6.6932  -6.6893  -6.6885  -6.6876  -6.6648
 -6.6641  -6.6633  -6.6631  -6.6623  -6.6614  -1.6635  -1.4684  -1.4146
 -1.4110  -1.3711  -1.2348  -1.1899  -1.1643  -1.1400  -1.0846  -1.0485
 -1.0448  -1.0271  -0.9975  -0.9869  -0.9654  -0.9575  -0.9487  -0.9391
 -0.8928  -0.8719  -0.8433  -0.8156  -0.7950  -0.7850  -0.7815  -0.7636
 -0.7561  -0.7307  -0.7282  -0.7128  -0.6988  -0.6867  -0.6836  -0.6789
 -0.6750  -0.6614  -0.6571  -0.6505  -0.6288  -0.6176  -0.6160  -0.6100
 -0.5990  -0.5875  -0.5746  -0.5701  -0.5645  -0.5622  -0.5531  -0.5343
 -0.5319  -0.5297  -0.5203  -0.5179  -0.5130  -0.5091  -0.5047  -0.4949
 -0.4884  -0.4836  -0.4759  -0.4739  -0.4652  -0.4645  -0.4577  -0.4012
 -0.3983  -0.3811  -0.3548  -0.3503  -0.3195  -0.2970  -0.2535

          Ground-State Mulliken Net Atomic Charges

     Atom                 Charge (a.u.)
  ----------------------------------------
      1 C                    -0.195054
      2 C                    -0.253717
      3 S                    -0.026689
      4 C                    -0.021561
      5 H                     0.195351
      6 C                    -0.026596
      7 C                     0.235322
      8 C                     0.243010
      9 C                    -0.045473
     10 C                    -0.005653
     11 O                    -0.333631
     12 O                    -0.340342
     13 C                    -0.085714
     14 H                     0.121567
     15 H                     0.090316
     16 H                     0.093218
     17 C                    -0.087068
     18 H                     0.124925
     19 H                     0.093243
     20 H                     0.089385
     21 C                    -0.273950
     22 S                    -0.034716
     23 C                    -0.014457
     24 H                     0.192345
     25 H                     0.205117
     26 C                    -0.161672
     27 S                     0.135767
     28 C                    -0.113792
     29 C                     0.035995
     30 C                    -0.118647
     31 S                     0.076566
     32 C                    -0.148383
     33 C                     0.398461
     34 F                    -0.204427
     35 C                     0.448525
     36 O                    -0.461414
     37 O                    -0.301181
     38 C                    -0.058096
     39 H                     0.121529
     40 H                     0.095458
     41 H                     0.095343
     42 H                     0.220786
  ----------------------------------------
  Sum of atomic charges =     0.000000

                    Cartesian Multipole Moments
 -----------------------------------------------------------------
    Charge (ESU x 10^10)
                -0.0000
    Dipole Moment (Debye)
         X       3.9353      Y       1.6469      Z       2.2317
       Tot       4.8145
    Quadrupole Moments (Debye-Ang)
        XX    -164.4638     XY       8.2249     YY    -178.8463
        XZ      -8.8658     YZ      -2.1881     ZZ    -203.5409

 Total job time:  298.06s(wall), 9730.13s(cpu)
        *  Thank you very much for using Q-Chem.  Have a nice day.  *
