 Q-Chem 5.4, Q-Chem, Inc., Pleasanton, CA (2021)
 Q-Chem 5.4.0 for Intel X86 EM64T Linux

User input:
--------------------------------------------------------------
$molecule
0 1
C	0.270358	-8.517702	-0.172904
C	-0.548363	-7.641575	0.524688
S	1.445750	-7.638634	-1.180599
C	-0.259951	-6.264785	0.282727
H	-1.347559	-7.966081	1.203014
C	0.833868	-6.072714	-0.632972
C	1.248701	-4.787049	-1.013580
C	-0.965673	-5.162801	0.845068
C	-0.553357	-3.874817	0.460946
C	0.543470	-3.683952	-0.453541
O	-1.958276	-5.499772	1.714812
O	2.245053	-4.459055	-1.888193
C	3.360989	-5.329063	-2.033848
H	4.130667	-4.755694	-2.584788
H	3.112380	-6.238095	-2.624118
H	3.770895	-5.637262	-1.047748
C	-2.994272	-4.572261	2.013896
H	-3.763700	-5.139743	2.570853
H	-3.448815	-4.153131	1.090625
H	-2.636780	-3.739531	2.657717
C	0.827659	-2.306654	-0.694943
S	-1.174750	-2.306501	0.999993
C	-0.000000	-1.435185	-0.000000
H	1.627541	-1.978138	-1.370385
H	0.269836	-9.614033	-0.177122
C	0.000000	0.000000	0.000000
S	0.079327	0.901280	1.507541
C	0.215617	2.467903	0.718873
C	0.079577	0.900940	-1.067872
C	0.198433	2.285998	-0.686410
S	0.061187	0.658044	-2.805516
C	0.208347	2.403534	-3.054530
C	0.267636	3.109360	-1.862551
F	0.379347	4.441341	-1.819088
C	0.249278	2.849688	-4.456084
O	0.190132	2.082076	-5.406510
O	0.359548	4.195721	-4.569225
C	0.407901	4.688467	-5.916207
H	0.496901	5.785916	-5.833064
H	-0.512596	4.414348	-6.470168
H	1.278377	4.268124	-6.459293
H	0.294764	3.388767	1.306486
$end

$rem
JOBTYPE		SP
EXCHANGE	HF
CORRELATION	pRIMP2
BASIS		cc-pvtz
METHOD		rimp2
AUX_BASIS	rimp2-cc-pvtz
SOLVENT_METHOD	PCM
PURECART	11111
SYMMETRY	false
MEM_TOTAL	110000
SCF_CONVERGENCE = 6
THRESH=10
GUI = 2
$end

$solvent
dielectric 4.90
$end
--------------------------------------------------------------

             Standard Nuclear Orientation (Angstroms)
    I     Atom           X                Y                Z
 ----------------------------------------------------------------
    1      C       0.2703580000    -8.5177020000    -0.1729040000
    2      C      -0.5483630000    -7.6415750000     0.5246880000
    3      S       1.4457500000    -7.6386340000    -1.1805990000
    4      C      -0.2599510000    -6.2647850000     0.2827270000
    5      H      -1.3475590000    -7.9660810000     1.2030140000
    6      C       0.8338680000    -6.0727140000    -0.6329720000
    7      C       1.2487010000    -4.7870490000    -1.0135800000
    8      C      -0.9656730000    -5.1628010000     0.8450680000
    9      C      -0.5533570000    -3.8748170000     0.4609460000
   10      C       0.5434700000    -3.6839520000    -0.4535410000
   11      O      -1.9582760000    -5.4997720000     1.7148120000
   12      O       2.2450530000    -4.4590550000    -1.8881930000
   13      C       3.3609890000    -5.3290630000    -2.0338480000
   14      H       4.1306670000    -4.7556940000    -2.5847880000
   15      H       3.1123800000    -6.2380950000    -2.6241180000
   16      H       3.7708950000    -5.6372620000    -1.0477480000
   17      C      -2.9942720000    -4.5722610000     2.0138960000
   18      H      -3.7637000000    -5.1397430000     2.5708530000
   19      H      -3.4488150000    -4.1531310000     1.0906250000
   20      H      -2.6367800000    -3.7395310000     2.6577170000
   21      C       0.8276590000    -2.3066540000    -0.6949430000
   22      S      -1.1747500000    -2.3065010000     0.9999930000
   23      C       0.0000000000    -1.4351850000     0.0000000000
   24      H       1.6275410000    -1.9781380000    -1.3703850000
   25      H       0.2698360000    -9.6140330000    -0.1771220000
   26      C       0.0000000000     0.0000000000     0.0000000000
   27      S       0.0793270000     0.9012800000     1.5075410000
   28      C       0.2156170000     2.4679030000     0.7188730000
   29      C       0.0795770000     0.9009400000    -1.0678720000
   30      C       0.1984330000     2.2859980000    -0.6864100000
   31      S       0.0611870000     0.6580440000    -2.8055160000
   32      C       0.2083470000     2.4035340000    -3.0545300000
   33      C       0.2676360000     3.1093600000    -1.8625510000
   34      F       0.3793470000     4.4413410000    -1.8190880000
   35      C       0.2492780000     2.8496880000    -4.4560840000
   36      O       0.1901320000     2.0820760000    -5.4065100000
   37      O       0.3595480000     4.1957210000    -4.5692250000
   38      C       0.4079010000     4.6884670000    -5.9162070000
   39      H       0.4969010000     5.7859160000    -5.8330640000
   40      H      -0.5125960000     4.4143480000    -6.4701680000
   41      H       1.2783770000     4.2681240000    -6.4592930000
   42      H       0.2947640000     3.3887670000     1.3064860000
 ----------------------------------------------------------------

   10   -2754.3159220942      7.10e-07  Convergence criterion met
 Total energy in the final basis set =    -2754.3159220942
        RIMP2         total energy =     -2759.3662221579 a.u.

                    Orbital Energies (a.u.)
 --------------------------------------------------------------

 Alpha MOs
 -- Occupied --
-92.0150 -91.9969 -91.9904 -91.9865 -26.3426 -20.6144 -20.5928 -20.5914
-20.5607 -11.4088 -11.3814 -11.3197 -11.3182 -11.3088 -11.3001 -11.2988
-11.2968 -11.2945 -11.2885 -11.2874 -11.2867 -11.2859 -11.2843 -11.2843
-11.2800 -11.2614 -11.2593 -11.2574 -11.2501  -9.0135  -8.9969  -8.9908
 -8.9864  -6.6943  -6.6937  -6.6932  -6.6779  -6.6772  -6.6760  -6.6718
 -6.6711  -6.6702  -6.6674  -6.6668  -6.6659  -1.6597  -1.4668  -1.4168
 -1.4142  -1.3695  -1.2205  -1.1949  -1.1658  -1.1355  -1.0850  -1.0523
 -1.0410  -1.0223  -1.0019  -0.9881  -0.9626  -0.9601  -0.9505  -0.9388
 -0.8962  -0.8670  -0.8519  -0.8077  -0.7974  -0.7873  -0.7870  -0.7647
 -0.7549  -0.7342  -0.7246  -0.7091  -0.7018  -0.6847  -0.6833  -0.6801
 -0.6734  -0.6595  -0.6575  -0.6527  -0.6306  -0.6201  -0.6173  -0.6040
 -0.5972  -0.5841  -0.5782  -0.5705  -0.5660  -0.5618  -0.5535  -0.5497
 -0.5341  -0.5304  -0.5246  -0.5163  -0.5159  -0.5077  -0.5060  -0.4959
 -0.4887  -0.4799  -0.4755  -0.4732  -0.4686  -0.4678  -0.4608  -0.4160
 -0.3959  -0.3862  -0.3582  -0.3499  -0.3220  -0.2920  -0.2552

          Ground-State Mulliken Net Atomic Charges

     Atom                 Charge (a.u.)
  ----------------------------------------
      1 C                    -0.188195
      2 C                    -0.253937
      3 S                    -0.021170
      4 C                    -0.014875
      5 H                     0.196375
      6 C                    -0.027870
      7 C                     0.242853
      8 C                     0.239751
      9 C                    -0.046752
     10 C                    -0.026631
     11 O                    -0.333206
     12 O                    -0.339263
     13 C                    -0.085962
     14 H                     0.123011
     15 H                     0.091325
     16 H                     0.093717
     17 C                    -0.087001
     18 H                     0.125195
     19 H                     0.095264
     20 H                     0.089408
     21 C                    -0.229076
     22 S                    -0.012364
     23 C                    -0.021145
     24 H                     0.202158
     25 H                     0.206478
     26 C                    -0.020769
     27 S                     0.101080
     28 C                    -0.189650
     29 C                     0.001878
     30 C                    -0.107581
     31 S                     0.009716
     32 C                    -0.152938
     33 C                     0.393681
     34 F                    -0.207371
     35 C                     0.444351
     36 O                    -0.460857
     37 O                    -0.300569
     38 C                    -0.058662
     39 H                     0.121260
     40 H                     0.095164
     41 H                     0.094969
     42 H                     0.218211
  ----------------------------------------
  Sum of atomic charges =     0.000000

                    Cartesian Multipole Moments
 -----------------------------------------------------------------
    Charge (ESU x 10^10)
                 0.0000
    Dipole Moment (Debye)
         X       0.3590      Y       0.8537      Z       3.2327
       Tot       3.3627
    Quadrupole Moments (Debye-Ang)
        XX    -181.7755     XY       0.1577     YY    -159.1738
        XZ     -10.7521     YZ      -8.1405     ZZ    -201.6273

 Total job time:  286.72s(wall), 9321.42s(cpu)
        *  Thank you very much for using Q-Chem.  Have a nice day.  *
