 Q-Chem 5.4, Q-Chem, Inc., Pleasanton, CA (2021)
 Q-Chem 5.4.0 for Intel X86 EM64T Linux

User input:
--------------------------------------------------------------
$molecule
0 1
C	-0.306235	-8.517702	-0.095966
C	0.754415	-7.641575	0.082807
S	-1.833702	-7.638634	-0.348635
C	0.383675	-6.264785	0.017401
H	1.787757	-7.966081	0.259008
C	-1.020885	-6.072714	-0.231913
C	-1.579097	-4.787049	-0.305044
C	1.268082	-5.162801	0.196549
C	0.708796	-3.874817	0.127606
C	-0.696769	-3.683952	-0.124792
O	2.572378	-5.499772	0.397867
O	-2.889532	-4.459055	-0.506103
C	-3.718420	-5.329063	-1.267335
H	-4.635204	-4.755694	-1.502804
H	-4.010790	-6.238095	-0.697471
H	-3.226506	-5.637262	-2.215194
C	3.467415	-4.572261	0.999238
H	4.388648	-5.139743	1.230649
H	3.052323	-4.153131	1.940905
H	3.730819	-3.739531	0.311543
C	-1.064366	-2.306654	-0.187323
S	1.521154	-2.306501	0.257128
C	-0.000000	-1.435185	-0.000000
H	-2.095939	-1.978138	-0.365903
H	-0.309131	-9.614033	-0.092855
C	0.000000	0.000000	0.000000
S	0.079327	0.901280	1.507541
C	0.215617	2.467903	0.718873
C	0.079577	0.900940	-1.067872
C	0.198433	2.285998	-0.686410
S	0.061187	0.658044	-2.805516
C	0.208347	2.403534	-3.054530
C	0.267636	3.109360	-1.862551
F	0.379347	4.441341	-1.819088
C	0.249278	2.849688	-4.456084
O	0.190132	2.082076	-5.406510
O	0.359548	4.195721	-4.569225
C	0.407901	4.688467	-5.916207
H	0.496901	5.785916	-5.833064
H	-0.512596	4.414348	-6.470168
H	1.278377	4.268124	-6.459293
H	0.294764	3.388767	1.306486
$end

$rem
JOBTYPE		SP
EXCHANGE	HF
CORRELATION	pRIMP2
BASIS		cc-pvtz
METHOD		rimp2
AUX_BASIS	rimp2-cc-pvtz
SOLVENT_METHOD	PCM
PURECART	11111
SYMMETRY	false
MEM_TOTAL	110000
SCF_CONVERGENCE = 6
THRESH=10
GUI = 2
$end

$solvent
dielectric 4.90
$end
--------------------------------------------------------------

             Standard Nuclear Orientation (Angstroms)
    I     Atom           X                Y                Z
 ----------------------------------------------------------------
    1      C      -0.3062350000    -8.5177020000    -0.0959660000
    2      C       0.7544150000    -7.6415750000     0.0828070000
    3      S      -1.8337020000    -7.6386340000    -0.3486350000
    4      C       0.3836750000    -6.2647850000     0.0174010000
    5      H       1.7877570000    -7.9660810000     0.2590080000
    6      C      -1.0208850000    -6.0727140000    -0.2319130000
    7      C      -1.5790970000    -4.7870490000    -0.3050440000
    8      C       1.2680820000    -5.1628010000     0.1965490000
    9      C       0.7087960000    -3.8748170000     0.1276060000
   10      C      -0.6967690000    -3.6839520000    -0.1247920000
   11      O       2.5723780000    -5.4997720000     0.3978670000
   12      O      -2.8895320000    -4.4590550000    -0.5061030000
   13      C      -3.7184200000    -5.3290630000    -1.2673350000
   14      H      -4.6352040000    -4.7556940000    -1.5028040000
   15      H      -4.0107900000    -6.2380950000    -0.6974710000
   16      H      -3.2265060000    -5.6372620000    -2.2151940000
   17      C       3.4674150000    -4.5722610000     0.9992380000
   18      H       4.3886480000    -5.1397430000     1.2306490000
   19      H       3.0523230000    -4.1531310000     1.9409050000
   20      H       3.7308190000    -3.7395310000     0.3115430000
   21      C      -1.0643660000    -2.3066540000    -0.1873230000
   22      S       1.5211540000    -2.3065010000     0.2571280000
   23      C       0.0000000000    -1.4351850000     0.0000000000
   24      H      -2.0959390000    -1.9781380000    -0.3659030000
   25      H      -0.3091310000    -9.6140330000    -0.0928550000
   26      C       0.0000000000     0.0000000000     0.0000000000
   27      S       0.0793270000     0.9012800000     1.5075410000
   28      C       0.2156170000     2.4679030000     0.7188730000
   29      C       0.0795770000     0.9009400000    -1.0678720000
   30      C       0.1984330000     2.2859980000    -0.6864100000
   31      S       0.0611870000     0.6580440000    -2.8055160000
   32      C       0.2083470000     2.4035340000    -3.0545300000
   33      C       0.2676360000     3.1093600000    -1.8625510000
   34      F       0.3793470000     4.4413410000    -1.8190880000
   35      C       0.2492780000     2.8496880000    -4.4560840000
   36      O       0.1901320000     2.0820760000    -5.4065100000
   37      O       0.3595480000     4.1957210000    -4.5692250000
   38      C       0.4079010000     4.6884670000    -5.9162070000
   39      H       0.4969010000     5.7859160000    -5.8330640000
   40      H      -0.5125960000     4.4143480000    -6.4701680000
   41      H       1.2783770000     4.2681240000    -6.4592930000
   42      H       0.2947640000     3.3887670000     1.3064860000
 ----------------------------------------------------------------

   10   -2754.3138666086      6.94e-07  Convergence criterion met
 Total energy in the final basis set =    -2754.3138666086
        RIMP2         total energy =     -2759.3630515836 a.u.

                    Orbital Energies (a.u.)
 --------------------------------------------------------------

 Alpha MOs
 -- Occupied --
-92.0143 -91.9964 -91.9891 -91.9866 -26.3424 -20.6142 -20.5925 -20.5918
-20.5604 -11.4085 -11.3813 -11.3192 -11.3188 -11.3087 -11.3000 -11.2966
-11.2962 -11.2914 -11.2884 -11.2872 -11.2865 -11.2862 -11.2841 -11.2832
-11.2804 -11.2605 -11.2597 -11.2585 -11.2502  -9.0127  -8.9964  -8.9895
 -8.9865  -6.6934  -6.6929  -6.6923  -6.6774  -6.6767  -6.6755  -6.6704
 -6.6697  -6.6688  -6.6675  -6.6669  -6.6660  -1.6595  -1.4666  -1.4166
 -1.4146  -1.3692  -1.2196  -1.1945  -1.1653  -1.1348  -1.0843  -1.0521
 -1.0404  -1.0215  -1.0018  -0.9877  -0.9611  -0.9608  -0.9504  -0.9384
 -0.8959  -0.8665  -0.8514  -0.8087  -0.7941  -0.7884  -0.7865  -0.7649
 -0.7548  -0.7340  -0.7244  -0.7088  -0.7010  -0.6844  -0.6833  -0.6799
 -0.6733  -0.6593  -0.6570  -0.6528  -0.6305  -0.6202  -0.6174  -0.6048
 -0.5968  -0.5854  -0.5773  -0.5693  -0.5666  -0.5596  -0.5554  -0.5499
 -0.5330  -0.5304  -0.5236  -0.5160  -0.5153  -0.5090  -0.5037  -0.4943
 -0.4897  -0.4790  -0.4749  -0.4728  -0.4696  -0.4668  -0.4614  -0.4058
 -0.3969  -0.3874  -0.3572  -0.3488  -0.3145  -0.2982  -0.2593

          Ground-State Mulliken Net Atomic Charges

     Atom                 Charge (a.u.)
  ----------------------------------------
      1 C                    -0.187172
      2 C                    -0.254401
      3 S                    -0.021678
      4 C                    -0.012887
      5 H                     0.196482
      6 C                    -0.027903
      7 C                     0.246255
      8 C                     0.238298
      9 C                    -0.045389
     10 C                    -0.031780
     11 O                    -0.333223
     12 O                    -0.339823
     13 C                    -0.085826
     14 H                     0.122868
     15 H                     0.090973
     16 H                     0.094521
     17 C                    -0.086339
     18 H                     0.124747
     19 H                     0.094147
     20 H                     0.090273
     21 C                    -0.212824
     22 S                     0.000390
     23 C                    -0.061281
     24 H                     0.197856
     25 H                     0.206613
     26 C                    -0.023088
     27 S                     0.107987
     28 C                    -0.186487
     29 C                     0.015921
     30 C                    -0.106973
     31 S                     0.005975
     32 C                    -0.154146
     33 C                     0.392029
     34 F                    -0.207190
     35 C                     0.445195
     36 O                    -0.461316
     37 O                    -0.300634
     38 C                    -0.058649
     39 H                     0.121183
     40 H                     0.094998
     41 H                     0.094974
     42 H                     0.217326
  ----------------------------------------
  Sum of atomic charges =     0.000000

                    Cartesian Multipole Moments
 -----------------------------------------------------------------
    Charge (ESU x 10^10)
                 0.0000
    Dipole Moment (Debye)
         X       0.2912      Y       0.7767      Z       2.8191
       Tot       2.9386
    Quadrupole Moments (Debye-Ang)
        XX    -180.6750     XY       1.7009     YY    -159.0090
        XZ       8.6630     YZ      -5.7379     ZZ    -202.8882

 Total job time:  291.66s(wall), 9873.84s(cpu)
        *  Thank you very much for using Q-Chem.  Have a nice day.  *
