 Q-Chem 5.4, Q-Chem, Inc., Pleasanton, CA (2021)
 Q-Chem 5.4.0 for Intel X86 EM64T Linux

User input:
--------------------------------------------------------------
$molecule
0 1
C	0.284919	-8.517702	0.147685
C	-0.728574	-7.641575	-0.212552
S	1.745304	-7.638634	0.661757
C	-0.374824	-6.264785	-0.083761
H	-1.715621	-7.966081	-0.565513
C	0.965104	-6.072714	0.405665
C	1.502136	-4.787049	0.574617
C	-1.214687	-5.162801	-0.413763
C	-0.675870	-3.874817	-0.248748
C	0.664513	-3.683952	0.243888
O	-2.464209	-5.499772	-0.838511
O	2.757750	-4.459055	1.000176
C	3.441858	-5.329063	1.893778
H	4.303826	-4.755694	2.284868
H	3.828743	-6.238095	1.383341
H	2.792824	-5.637262	2.741817
C	-3.241222	-4.572261	-1.586168
H	-4.108274	-5.139743	-1.974033
H	-2.668916	-4.153131	-2.441448
H	-3.620041	-3.739531	-0.954660
C	1.015668	-2.306654	0.369302
S	-1.453394	-2.306501	-0.517367
C	-0.000000	-1.435185	-0.000000
H	2.000559	-1.978138	0.724300
H	0.288311	-9.614033	0.145124
C	0.000000	0.000000	0.000000
S	0.581934	0.692785	1.507541
C	1.592155	1.897915	0.718873
C	0.581944	0.692363	-1.067872
C	1.473741	1.758764	-0.686410
S	0.427560	0.503942	-2.805516
C	1.549278	1.849357	-3.054530
C	2.002690	2.393529	-1.862551
F	2.858191	3.420549	-1.819088
C	1.838710	2.191348	-4.456084
O	1.349977	1.596481	-5.406510
O	2.701091	3.230705	-4.569225
C	3.023327	3.606605	-5.916207
H	3.725703	4.454534	-5.833064
H	2.112072	3.910035	-6.470168
H	3.495281	2.762996	-6.459293
H	2.185174	2.606846	1.306486
$end

$rem
JOBTYPE		SP
EXCHANGE	HF
CORRELATION	pRIMP2
BASIS		cc-pvtz
METHOD		rimp2
AUX_BASIS	rimp2-cc-pvtz
SOLVENT_METHOD	PCM
PURECART	11111
SYMMETRY	false
MEM_TOTAL	110000
SCF_CONVERGENCE = 6
THRESH=10
GUI = 2
$end

$solvent
dielectric 4.90
$end
--------------------------------------------------------------

             Standard Nuclear Orientation (Angstroms)
    I     Atom           X                Y                Z
 ----------------------------------------------------------------
    1      C       0.2849190000    -8.5177020000     0.1476850000
    2      C      -0.7285740000    -7.6415750000    -0.2125520000
    3      S       1.7453040000    -7.6386340000     0.6617570000
    4      C      -0.3748240000    -6.2647850000    -0.0837610000
    5      H      -1.7156210000    -7.9660810000    -0.5655130000
    6      C       0.9651040000    -6.0727140000     0.4056650000
    7      C       1.5021360000    -4.7870490000     0.5746170000
    8      C      -1.2146870000    -5.1628010000    -0.4137630000
    9      C      -0.6758700000    -3.8748170000    -0.2487480000
   10      C       0.6645130000    -3.6839520000     0.2438880000
   11      O      -2.4642090000    -5.4997720000    -0.8385110000
   12      O       2.7577500000    -4.4590550000     1.0001760000
   13      C       3.4418580000    -5.3290630000     1.8937780000
   14      H       4.3038260000    -4.7556940000     2.2848680000
   15      H       3.8287430000    -6.2380950000     1.3833410000
   16      H       2.7928240000    -5.6372620000     2.7418170000
   17      C      -3.2412220000    -4.5722610000    -1.5861680000
   18      H      -4.1082740000    -5.1397430000    -1.9740330000
   19      H      -2.6689160000    -4.1531310000    -2.4414480000
   20      H      -3.6200410000    -3.7395310000    -0.9546600000
   21      C       1.0156680000    -2.3066540000     0.3693020000
   22      S      -1.4533940000    -2.3065010000    -0.5173670000
   23      C       0.0000000000    -1.4351850000     0.0000000000
   24      H       2.0005590000    -1.9781380000     0.7243000000
   25      H       0.2883110000    -9.6140330000     0.1451240000
   26      C       0.0000000000     0.0000000000     0.0000000000
   27      S       0.5819340000     0.6927850000     1.5075410000
   28      C       1.5921550000     1.8979150000     0.7188730000
   29      C       0.5819440000     0.6923630000    -1.0678720000
   30      C       1.4737410000     1.7587640000    -0.6864100000
   31      S       0.4275600000     0.5039420000    -2.8055160000
   32      C       1.5492780000     1.8493570000    -3.0545300000
   33      C       2.0026900000     2.3935290000    -1.8625510000
   34      F       2.8581910000     3.4205490000    -1.8190880000
   35      C       1.8387100000     2.1913480000    -4.4560840000
   36      O       1.3499770000     1.5964810000    -5.4065100000
   37      O       2.7010910000     3.2307050000    -4.5692250000
   38      C       3.0233270000     3.6066050000    -5.9162070000
   39      H       3.7257030000     4.4545340000    -5.8330640000
   40      H       2.1120720000     3.9100350000    -6.4701680000
   41      H       3.4952810000     2.7629960000    -6.4592930000
   42      H       2.1851740000     2.6068460000     1.3064860000
 ----------------------------------------------------------------

   10   -2754.2867011445      8.78e-07  Convergence criterion met
 Total energy in the final basis set =    -2754.2867011445
        RIMP2         total energy =     -2759.3432378939 a.u.

                    Orbital Energies (a.u.)
 --------------------------------------------------------------

 Alpha MOs
 -- Occupied --
-92.0144 -92.0023 -91.9850 -91.9849 -26.3442 -20.6146 -20.5912 -20.5900
-20.5609 -11.4092 -11.3838 -11.3202 -11.3176 -11.3150 -11.3101 -11.2968
-11.2927 -11.2888 -11.2859 -11.2855 -11.2852 -11.2835 -11.2825 -11.2824
-11.2779 -11.2589 -11.2562 -11.2508 -11.2489  -9.0131  -9.0021  -8.9854
 -8.9849  -6.6938  -6.6930  -6.6926  -6.6831  -6.6823  -6.6813  -6.6663
 -6.6659  -6.6656  -6.6653  -6.6647  -6.6644  -1.6613  -1.4671  -1.4152
 -1.4128  -1.3698  -1.2251  -1.1921  -1.1642  -1.1370  -1.0837  -1.0499
 -1.0429  -1.0237  -0.9991  -0.9868  -0.9629  -0.9586  -0.9490  -0.9396
 -0.8936  -0.8686  -0.8468  -0.8128  -0.7926  -0.7877  -0.7849  -0.7637
 -0.7552  -0.7320  -0.7260  -0.7106  -0.6994  -0.6852  -0.6821  -0.6806
 -0.6738  -0.6584  -0.6573  -0.6516  -0.6290  -0.6189  -0.6156  -0.6058
 -0.5991  -0.5883  -0.5742  -0.5688  -0.5659  -0.5638  -0.5535  -0.5510
 -0.5309  -0.5247  -0.5209  -0.5148  -0.5136  -0.5101  -0.5035  -0.4930
 -0.4887  -0.4814  -0.4743  -0.4733  -0.4691  -0.4630  -0.4592  -0.4071
 -0.3948  -0.3856  -0.3612  -0.3436  -0.3145  -0.3006  -0.2551

          Ground-State Mulliken Net Atomic Charges

     Atom                 Charge (a.u.)
  ----------------------------------------
      1 C                    -0.192174
      2 C                    -0.253976
      3 S                    -0.025161
      4 C                    -0.017924
      5 H                     0.195901
      6 C                    -0.028271
      7 C                     0.237333
      8 C                     0.243670
      9 C                    -0.046219
     10 C                    -0.015337
     11 O                    -0.333632
     12 O                    -0.341131
     13 C                    -0.085666
     14 H                     0.121733
     15 H                     0.090949
     16 H                     0.093399
     17 C                    -0.086346
     18 H                     0.124388
     19 H                     0.094838
     20 H                     0.089541
     21 C                    -0.238949
     22 S                    -0.010210
     23 C                    -0.028342
     24 H                     0.197777
     25 H                     0.205677
     26 C                    -0.085676
     27 S                     0.111077
     28 C                    -0.161772
     29 C                     0.026278
     30 C                    -0.096258
     31 S                     0.026979
     32 C                    -0.152610
     33 C                     0.390195
     34 F                    -0.205441
     35 C                     0.447259
     36 O                    -0.462097
     37 O                    -0.301240
     38 C                    -0.058351
     39 H                     0.121246
     40 H                     0.095088
     41 H                     0.095135
     42 H                     0.218318
  ----------------------------------------
  Sum of atomic charges =     0.000000

                    Cartesian Multipole Moments
 -----------------------------------------------------------------
    Charge (ESU x 10^10)
                 0.0000
    Dipole Moment (Debye)
         X       1.9791      Y       1.5128      Z       3.0148
       Tot       3.9107
    Quadrupole Moments (Debye-Ang)
        XX    -178.1091     XY       8.8893     YY    -170.3531
        XZ       6.8388     YZ      -6.7388     ZZ    -198.2354

 Total job time:  289.38s(wall), 9072.17s(cpu)
        *  Thank you very much for using Q-Chem.  Have a nice day.  *
