 Q-Chem 5.4, Q-Chem, Inc., Pleasanton, CA (2021)
 Q-Chem 5.4.0 for Intel X86 EM64T Linux

User input:
--------------------------------------------------------------
$molecule
0 1
C	-0.095966	-8.517702	0.306235
C	0.082807	-7.641575	-0.754415
S	-0.348635	-7.638634	1.833702
C	0.017401	-6.264785	-0.383675
H	0.259008	-7.966081	-1.787757
C	-0.231913	-6.072714	1.020885
C	-0.305044	-4.787049	1.579097
C	0.196549	-5.162801	-1.268082
C	0.127606	-3.874817	-0.708796
C	-0.124792	-3.683952	0.696769
O	0.397867	-5.499772	-2.572378
O	-0.506103	-4.459055	2.889532
C	-1.267335	-5.329063	3.718420
H	-1.502804	-4.755694	4.635204
H	-0.697471	-6.238095	4.010790
H	-2.215194	-5.637262	3.226506
C	0.999238	-4.572261	-3.467415
H	1.230649	-5.139743	-4.388648
H	1.940905	-4.153131	-3.052323
H	0.311543	-3.739531	-3.730819
C	-0.187323	-2.306654	1.064366
S	0.257128	-2.306501	-1.521154
C	-0.000000	-1.435185	-0.000000
H	-0.365903	-1.978138	2.095939
H	-0.092855	-9.614033	0.309131
C	0.000000	0.000000	0.000000
S	0.157577	0.890937	1.507541
C	0.429889	2.439720	0.718873
C	0.157797	0.890576	-1.067872
C	0.396915	2.260004	-0.686410
S	0.118307	0.650207	-2.805516
C	0.417036	2.376229	-3.054530
C	0.537616	3.074202	-1.862551
F	0.764992	4.391378	-1.819088
C	0.496696	2.817118	-4.456084
O	0.370874	2.057582	-5.406510
O	0.723861	4.148418	-4.569225
C	0.814976	4.635075	-5.916207
H	0.999286	5.720591	-5.833064
H	-0.125909	4.442226	-6.470168
H	1.645504	4.140465	-6.459293
H	0.588993	3.350182	1.306486
$end

$rem
JOBTYPE		SP
EXCHANGE	HF
CORRELATION	pRIMP2
BASIS		cc-pvtz
METHOD		rimp2
AUX_BASIS	rimp2-cc-pvtz
SOLVENT_METHOD	PCM
PURECART	11111
SYMMETRY	false
MEM_TOTAL	110000
SCF_CONVERGENCE = 6
THRESH=10
GUI = 2
$end

$solvent
dielectric 4.90
$end
--------------------------------------------------------------

             Standard Nuclear Orientation (Angstroms)
    I     Atom           X                Y                Z
 ----------------------------------------------------------------
    1      C      -0.0959660000    -8.5177020000     0.3062350000
    2      C       0.0828070000    -7.6415750000    -0.7544150000
    3      S      -0.3486350000    -7.6386340000     1.8337020000
    4      C       0.0174010000    -6.2647850000    -0.3836750000
    5      H       0.2590080000    -7.9660810000    -1.7877570000
    6      C      -0.2319130000    -6.0727140000     1.0208850000
    7      C      -0.3050440000    -4.7870490000     1.5790970000
    8      C       0.1965490000    -5.1628010000    -1.2680820000
    9      C       0.1276060000    -3.8748170000    -0.7087960000
   10      C      -0.1247920000    -3.6839520000     0.6967690000
   11      O       0.3978670000    -5.4997720000    -2.5723780000
   12      O      -0.5061030000    -4.4590550000     2.8895320000
   13      C      -1.2673350000    -5.3290630000     3.7184200000
   14      H      -1.5028040000    -4.7556940000     4.6352040000
   15      H      -0.6974710000    -6.2380950000     4.0107900000
   16      H      -2.2151940000    -5.6372620000     3.2265060000
   17      C       0.9992380000    -4.5722610000    -3.4674150000
   18      H       1.2306490000    -5.1397430000    -4.3886480000
   19      H       1.9409050000    -4.1531310000    -3.0523230000
   20      H       0.3115430000    -3.7395310000    -3.7308190000
   21      C      -0.1873230000    -2.3066540000     1.0643660000
   22      S       0.2571280000    -2.3065010000    -1.5211540000
   23      C       0.0000000000    -1.4351850000     0.0000000000
   24      H      -0.3659030000    -1.9781380000     2.0959390000
   25      H      -0.0928550000    -9.6140330000     0.3091310000
   26      C       0.0000000000     0.0000000000     0.0000000000
   27      S       0.1575770000     0.8909370000     1.5075410000
   28      C       0.4298890000     2.4397200000     0.7188730000
   29      C       0.1577970000     0.8905760000    -1.0678720000
   30      C       0.3969150000     2.2600040000    -0.6864100000
   31      S       0.1183070000     0.6502070000    -2.8055160000
   32      C       0.4170360000     2.3762290000    -3.0545300000
   33      C       0.5376160000     3.0742020000    -1.8625510000
   34      F       0.7649920000     4.3913780000    -1.8190880000
   35      C       0.4966960000     2.8171180000    -4.4560840000
   36      O       0.3708740000     2.0575820000    -5.4065100000
   37      O       0.7238610000     4.1484180000    -4.5692250000
   38      C       0.8149760000     4.6350750000    -5.9162070000
   39      H       0.9992860000     5.7205910000    -5.8330640000
   40      H      -0.1259090000     4.4422260000    -6.4701680000
   41      H       1.6455040000     4.1404650000    -6.4592930000
   42      H       0.5889930000     3.3501820000     1.3064860000
 ----------------------------------------------------------------

   10   -2754.3141281300      7.78e-07  Convergence criterion met
 Total energy in the final basis set =    -2754.3141281300
        RIMP2         total energy =     -2759.3679712113 a.u.

                    Orbital Energies (a.u.)
 --------------------------------------------------------------

 Alpha MOs
 -- Occupied --
-92.0152 -91.9991 -91.9910 -91.9861 -26.3436 -20.6149 -20.5924 -20.5911
-20.5614 -11.4096 -11.3829 -11.3200 -11.3167 -11.3115 -11.3020 -11.3008
-11.2981 -11.2976 -11.2889 -11.2866 -11.2862 -11.2861 -11.2859 -11.2842
-11.2789 -11.2623 -11.2579 -11.2542 -11.2498  -9.0138  -8.9992  -8.9917
 -8.9860  -6.6946  -6.6940  -6.6935  -6.6802  -6.6795  -6.6783  -6.6727
 -6.6720  -6.6710  -6.6670  -6.6664  -6.6655  -1.6606  -1.4674  -1.4165
 -1.4139  -1.3701  -1.2229  -1.1947  -1.1660  -1.1367  -1.0862  -1.0521
 -1.0418  -1.0244  -1.0022  -0.9883  -0.9645  -0.9585  -0.9499  -0.9413
 -0.8959  -0.8684  -0.8519  -0.8155  -0.7922  -0.7880  -0.7856  -0.7652
 -0.7556  -0.7341  -0.7255  -0.7105  -0.6989  -0.6860  -0.6836  -0.6819
 -0.6739  -0.6592  -0.6584  -0.6525  -0.6310  -0.6198  -0.6167  -0.6032
 -0.5978  -0.5848  -0.5790  -0.5696  -0.5683  -0.5603  -0.5573  -0.5535
 -0.5326  -0.5294  -0.5244  -0.5201  -0.5180  -0.5116  -0.5063  -0.4949
 -0.4871  -0.4783  -0.4774  -0.4751  -0.4700  -0.4639  -0.4591  -0.4272
 -0.3933  -0.3859  -0.3613  -0.3519  -0.3249  -0.2910  -0.2482

          Ground-State Mulliken Net Atomic Charges

     Atom                 Charge (a.u.)
  ----------------------------------------
      1 C                    -0.190671
      2 C                    -0.253519
      3 S                    -0.023306
      4 C                    -0.018683
      5 H                     0.196379
      6 C                    -0.027301
      7 C                     0.239478
      8 C                     0.244897
      9 C                    -0.035593
     10 C                    -0.013551
     11 O                    -0.332662
     12 O                    -0.340932
     13 C                    -0.085664
     14 H                     0.122141
     15 H                     0.091175
     16 H                     0.093987
     17 C                    -0.090213
     18 H                     0.126432
     19 H                     0.095307
     20 H                     0.091175
     21 C                    -0.274212
     22 S                    -0.047705
     23 C                     0.038160
     24 H                     0.185808
     25 H                     0.206179
     26 C                     0.044496
     27 S                     0.093292
     28 C                    -0.187163
     29 C                    -0.027787
     30 C                    -0.118593
     31 S                     0.006182
     32 C                    -0.167860
     33 C                     0.414654
     34 F                    -0.206835
     35 C                     0.442177
     36 O                    -0.461255
     37 O                    -0.300751
     38 C                    -0.058694
     39 H                     0.121477
     40 H                     0.095229
     41 H                     0.095119
     42 H                     0.219206
  ----------------------------------------
  Sum of atomic charges =     0.000000

                    Cartesian Multipole Moments
 -----------------------------------------------------------------
    Charge (ESU x 10^10)
                 0.0000
    Dipole Moment (Debye)
         X       0.3187      Y       1.3076      Z       2.6761
       Tot       2.9954
    Quadrupole Moments (Debye-Ang)
        XX    -197.7680     XY       4.0763     YY    -161.0465
        XZ     -10.4998     YZ      -6.7653     ZZ    -184.8867

 Total job time:  306.17s(wall), 9327.50s(cpu)
        *  Thank you very much for using Q-Chem.  Have a nice day.  *
