 Q-Chem 5.4, Q-Chem, Inc., Pleasanton, CA (2021)
 Q-Chem 5.4.0 for Intel X86 EM64T Linux

User input:
--------------------------------------------------------------
$molecule
0 1
C	0.070009	-8.517702	0.313191
C	-0.305494	-7.641575	-0.694746
S	0.614924	-7.638634	1.762350
C	-0.176768	-6.264785	-0.340973
H	-0.669571	-7.966081	-1.677747
C	0.309600	-6.072714	1.000069
C	0.525372	-4.787049	1.520060
C	-0.463825	-5.162801	-1.196466
C	-0.243888	-3.874817	-0.677639
C	0.240312	-3.683952	0.665815
O	-0.941626	-5.499772	-2.426678
O	1.006468	-4.459055	2.755460
C	0.761666	-5.329063	3.853913
H	1.016135	-4.755694	4.765607
H	1.401368	-6.238095	3.822182
H	-0.305161	-5.637262	3.901833
C	-0.868342	-4.572261	-3.502489
H	-1.128551	-5.139743	-4.416005
H	0.154712	-4.153131	-3.613841
H	-1.595605	-3.739531	-3.386756
C	0.369957	-2.306654	1.015430
S	-0.537898	-2.306501	-1.445922
C	0.000000	-1.435185	0.000000
H	0.731088	-1.978138	1.998088
H	0.074151	-9.614033	0.314143
C	0.000000	0.000000	0.000000
S	0.693394	0.581209	1.507541
C	1.897536	1.592607	0.718873
C	0.693330	0.580791	-1.067872
C	1.756758	1.476132	-0.686410
S	0.508573	0.422041	-2.805516
C	1.846879	1.552232	-3.054530
C	2.387897	2.009402	-1.862551
F	3.408741	2.872264	-1.819088
C	2.191300	1.838768	-4.456084
O	1.606694	1.337806	-5.406510
O	3.221062	2.712584	-4.569225
C	3.603677	3.026817	-5.916207
H	4.442623	3.739898	-5.833064
H	2.758956	3.483875	-6.470168
H	3.921969	2.114070	-6.459293
H	2.604650	2.187790	1.306486
$end

$rem
JOBTYPE		SP
EXCHANGE	HF
CORRELATION	pRIMP2
BASIS		cc-pvtz
METHOD		rimp2
AUX_BASIS	rimp2-cc-pvtz
SOLVENT_METHOD	PCM
PURECART	11111
SYMMETRY	false
MEM_TOTAL	110000
SCF_CONVERGENCE = 6
THRESH=10
GUI = 2
$end

$solvent
dielectric 4.90
$end
--------------------------------------------------------------

             Standard Nuclear Orientation (Angstroms)
    I     Atom           X                Y                Z
 ----------------------------------------------------------------
    1      C       0.0700090000    -8.5177020000     0.3131910000
    2      C      -0.3054940000    -7.6415750000    -0.6947460000
    3      S       0.6149240000    -7.6386340000     1.7623500000
    4      C      -0.1767680000    -6.2647850000    -0.3409730000
    5      H      -0.6695710000    -7.9660810000    -1.6777470000
    6      C       0.3096000000    -6.0727140000     1.0000690000
    7      C       0.5253720000    -4.7870490000     1.5200600000
    8      C      -0.4638250000    -5.1628010000    -1.1964660000
    9      C      -0.2438880000    -3.8748170000    -0.6776390000
   10      C       0.2403120000    -3.6839520000     0.6658150000
   11      O      -0.9416260000    -5.4997720000    -2.4266780000
   12      O       1.0064680000    -4.4590550000     2.7554600000
   13      C       0.7616660000    -5.3290630000     3.8539130000
   14      H       1.0161350000    -4.7556940000     4.7656070000
   15      H       1.4013680000    -6.2380950000     3.8221820000
   16      H      -0.3051610000    -5.6372620000     3.9018330000
   17      C      -0.8683420000    -4.5722610000    -3.5024890000
   18      H      -1.1285510000    -5.1397430000    -4.4160050000
   19      H       0.1547120000    -4.1531310000    -3.6138410000
   20      H      -1.5956050000    -3.7395310000    -3.3867560000
   21      C       0.3699570000    -2.3066540000     1.0154300000
   22      S      -0.5378980000    -2.3065010000    -1.4459220000
   23      C       0.0000000000    -1.4351850000     0.0000000000
   24      H       0.7310880000    -1.9781380000     1.9980880000
   25      H       0.0741510000    -9.6140330000     0.3141430000
   26      C       0.0000000000     0.0000000000     0.0000000000
   27      S       0.6933940000     0.5812090000     1.5075410000
   28      C       1.8975360000     1.5926070000     0.7188730000
   29      C       0.6933300000     0.5807910000    -1.0678720000
   30      C       1.7567580000     1.4761320000    -0.6864100000
   31      S       0.5085730000     0.4220410000    -2.8055160000
   32      C       1.8468790000     1.5522320000    -3.0545300000
   33      C       2.3878970000     2.0094020000    -1.8625510000
   34      F       3.4087410000     2.8722640000    -1.8190880000
   35      C       2.1913000000     1.8387680000    -4.4560840000
   36      O       1.6066940000     1.3378060000    -5.4065100000
   37      O       3.2210620000     2.7125840000    -4.5692250000
   38      C       3.6036770000     3.0268170000    -5.9162070000
   39      H       4.4426230000     3.7398980000    -5.8330640000
   40      H       2.7589560000     3.4838750000    -6.4701680000
   41      H       3.9219690000     2.1140700000    -6.4592930000
   42      H       2.6046500000     2.1877900000     1.3064860000
 ----------------------------------------------------------------

   10   -2754.2690514660      7.26e-07  Convergence criterion met
 Total energy in the final basis set =    -2754.2690514660
        RIMP2         total energy =     -2759.3311049641 a.u.

                    Orbital Energies (a.u.)
 --------------------------------------------------------------

 Alpha MOs
 -- Occupied --
-92.0141 -92.0079 -91.9847 -91.9830 -26.3463 -20.6159 -20.5906 -20.5871
-20.5624 -11.4110 -11.3868 -11.3318 -11.3193 -11.3170 -11.3095 -11.2993
-11.2989 -11.2896 -11.2894 -11.2855 -11.2841 -11.2831 -11.2809 -11.2794
-11.2743 -11.2575 -11.2518 -11.2474 -11.2378  -9.0136  -9.0078  -8.9857
 -8.9829  -6.6942  -6.6934  -6.6931  -6.6887  -6.6879  -6.6869  -6.6667
 -6.6660  -6.6651  -6.6639  -6.6633  -6.6624  -1.6632  -1.4684  -1.4145
 -1.4100  -1.3712  -1.2324  -1.1903  -1.1644  -1.1399  -1.0858  -1.0482
 -1.0447  -1.0281  -0.9978  -0.9872  -0.9664  -0.9560  -0.9477  -0.9418
 -0.8924  -0.8721  -0.8453  -0.8189  -0.7944  -0.7848  -0.7823  -0.7632
 -0.7559  -0.7302  -0.7280  -0.7130  -0.6978  -0.6869  -0.6835  -0.6799
 -0.6750  -0.6604  -0.6567  -0.6500  -0.6297  -0.6171  -0.6149  -0.6044
 -0.6026  -0.5876  -0.5790  -0.5682  -0.5651  -0.5633  -0.5531  -0.5487
 -0.5327  -0.5272  -0.5222  -0.5177  -0.5134  -0.5108  -0.5041  -0.4929
 -0.4861  -0.4812  -0.4772  -0.4738  -0.4671  -0.4619  -0.4560  -0.4259
 -0.3877  -0.3828  -0.3609  -0.3521  -0.3227  -0.2930  -0.2458

          Ground-State Mulliken Net Atomic Charges

     Atom                 Charge (a.u.)
  ----------------------------------------
      1 C                    -0.199911
      2 C                    -0.252466
      3 S                    -0.029281
      4 C                    -0.024657
      5 H                     0.195177
      6 C                    -0.021831
      7 C                     0.225589
      8 C                     0.245708
      9 C                    -0.041588
     10 C                    -0.005461
     11 O                    -0.333308
     12 O                    -0.342854
     13 C                    -0.085593
     14 H                     0.120713
     15 H                     0.090333
     16 H                     0.092633
     17 C                    -0.087887
     18 H                     0.124882
     19 H                     0.094884
     20 H                     0.089489
     21 C                    -0.303282
     22 S                    -0.039942
     23 C                     0.016116
     24 H                     0.186210
     25 H                     0.204410
     26 C                    -0.096184
     27 S                     0.100141
     28 C                    -0.126160
     29 C                     0.082529
     30 C                    -0.126414
     31 S                     0.049092
     32 C                    -0.161812
     33 C                     0.403016
     34 F                    -0.204163
     35 C                     0.448585
     36 O                    -0.461885
     37 O                    -0.301183
     38 C                    -0.058275
     39 H                     0.121630
     40 H                     0.095262
     41 H                     0.095348
     42 H                     0.222392
  ----------------------------------------
  Sum of atomic charges =     0.000000

                    Cartesian Multipole Moments
 -----------------------------------------------------------------
    Charge (ESU x 10^10)
                -0.0000
    Dipole Moment (Debye)
         X       2.7714      Y       2.6532      Z       2.0653
       Tot       4.3573
    Quadrupole Moments (Debye-Ang)
        XX    -191.2679     XY      10.7023     YY    -179.7678
        XZ      -3.0165     YZ      -3.4711     ZZ    -180.4166

 Total job time:  291.36s(wall), 9027.24s(cpu)
        *  Thank you very much for using Q-Chem.  Have a nice day.  *
