 Q-Chem 5.4, Q-Chem, Inc., Pleasanton, CA (2021)
 Q-Chem 5.4.0 for Intel X86 EM64T Linux

User input:
--------------------------------------------------------------
$molecule
0 1
C	-0.014560	-8.517702	-0.320589
C	0.180211	-7.641575	0.737240
S	-0.299553	-7.638634	-1.842356
C	0.114873	-6.264785	0.366488
H	0.368061	-7.966081	1.768528
C	-0.131236	-6.072714	-1.038637
C	-0.253435	-4.787049	-1.588197
C	0.249014	-5.162801	1.258831
C	0.122513	-3.874817	0.709695
C	-0.121043	-3.683952	-0.697430
O	0.505933	-5.499772	2.553323
O	-0.512697	-4.459055	-2.888369
C	-0.080869	-5.329063	-3.927625
H	-0.173159	-4.755694	-4.869656
H	-0.716363	-6.238095	-4.007459
H	0.978072	-5.637262	-3.789565
C	0.246949	-4.572261	3.600064
H	0.344574	-5.139743	4.544887
H	-0.779898	-4.153131	3.532074
H	0.983261	-3.739531	3.612378
C	-0.188009	-2.306654	-1.064246
S	0.278644	-2.306501	1.517360
C	-0.000000	-1.435185	-0.000000
H	-0.373017	-1.978138	-2.094685
H	-0.018474	-9.614033	-0.322246
C	0.000000	0.000000	0.000000
S	0.452792	0.783312	1.507541
C	1.238397	2.145556	0.718873
C	0.452875	0.782898	-1.067872
C	1.145945	1.987956	-0.686410
S	0.333556	0.570531	-2.805516
C	1.204604	2.090290	-3.054530
C	1.556633	2.704929	-1.862551
F	2.220797	3.864903	-1.819088
C	1.430252	2.477345	-4.456084
O	1.052242	1.806648	-5.406510
O	2.099050	3.650663	-4.569225
C	2.351116	4.076808	-5.916207
H	2.895579	5.033821	-5.833064
H	1.401015	4.217390	-6.470168
H	2.962391	3.327969	-6.459293
H	1.699302	2.946693	1.306486
$end

$rem
JOBTYPE		SP
EXCHANGE	HF
CORRELATION	pRIMP2
BASIS		cc-pvtz
METHOD		rimp2
AUX_BASIS	rimp2-cc-pvtz
SOLVENT_METHOD	PCM
PURECART	11111
SYMMETRY	false
MEM_TOTAL	110000
SCF_CONVERGENCE = 6
THRESH=10
GUI = 2
$end

$solvent
dielectric 4.90
$end
--------------------------------------------------------------

             Standard Nuclear Orientation (Angstroms)
    I     Atom           X                Y                Z
 ----------------------------------------------------------------
    1      C      -0.0145600000    -8.5177020000    -0.3205890000
    2      C       0.1802110000    -7.6415750000     0.7372400000
    3      S      -0.2995530000    -7.6386340000    -1.8423560000
    4      C       0.1148730000    -6.2647850000     0.3664880000
    5      H       0.3680610000    -7.9660810000     1.7685280000
    6      C      -0.1312360000    -6.0727140000    -1.0386370000
    7      C      -0.2534350000    -4.7870490000    -1.5881970000
    8      C       0.2490140000    -5.1628010000     1.2588310000
    9      C       0.1225130000    -3.8748170000     0.7096950000
   10      C      -0.1210430000    -3.6839520000    -0.6974300000
   11      O       0.5059330000    -5.4997720000     2.5533230000
   12      O      -0.5126970000    -4.4590550000    -2.8883690000
   13      C      -0.0808690000    -5.3290630000    -3.9276250000
   14      H      -0.1731590000    -4.7556940000    -4.8696560000
   15      H      -0.7163630000    -6.2380950000    -4.0074590000
   16      H       0.9780720000    -5.6372620000    -3.7895650000
   17      C       0.2469490000    -4.5722610000     3.6000640000
   18      H       0.3445740000    -5.1397430000     4.5448870000
   19      H      -0.7798980000    -4.1531310000     3.5320740000
   20      H       0.9832610000    -3.7395310000     3.6123780000
   21      C      -0.1880090000    -2.3066540000    -1.0642460000
   22      S       0.2786440000    -2.3065010000     1.5173600000
   23      C       0.0000000000    -1.4351850000     0.0000000000
   24      H      -0.3730170000    -1.9781380000    -2.0946850000
   25      H      -0.0184740000    -9.6140330000    -0.3222460000
   26      C       0.0000000000     0.0000000000     0.0000000000
   27      S       0.4527920000     0.7833120000     1.5075410000
   28      C       1.2383970000     2.1455560000     0.7188730000
   29      C       0.4528750000     0.7828980000    -1.0678720000
   30      C       1.1459450000     1.9879560000    -0.6864100000
   31      S       0.3335560000     0.5705310000    -2.8055160000
   32      C       1.2046040000     2.0902900000    -3.0545300000
   33      C       1.5566330000     2.7049290000    -1.8625510000
   34      F       2.2207970000     3.8649030000    -1.8190880000
   35      C       1.4302520000     2.4773450000    -4.4560840000
   36      O       1.0522420000     1.8066480000    -5.4065100000
   37      O       2.0990500000     3.6506630000    -4.5692250000
   38      C       2.3511160000     4.0768080000    -5.9162070000
   39      H       2.8955790000     5.0338210000    -5.8330640000
   40      H       1.4010150000     4.2173900000    -6.4701680000
   41      H       2.9623910000     3.3279690000    -6.4592930000
   42      H       1.6993020000     2.9466930000     1.3064860000
 ----------------------------------------------------------------

   10   -2754.2992984549      7.12e-07  Convergence criterion met
 Total energy in the final basis set =    -2754.2992984549
        RIMP2         total energy =     -2759.3562933859 a.u.

                    Orbital Energies (a.u.)
 --------------------------------------------------------------

 Alpha MOs
 -- Occupied --
-92.0162 -92.0032 -91.9897 -91.9850 -26.3448 -20.6153 -20.5923 -20.5892
-20.5619 -11.4102 -11.3847 -11.3190 -11.3178 -11.3143 -11.3063 -11.2985
-11.2976 -11.2954 -11.2891 -11.2875 -11.2873 -11.2844 -11.2838 -11.2830
-11.2775 -11.2606 -11.2561 -11.2490 -11.2490  -9.0152  -9.0031  -8.9904
 -8.9850  -6.6959  -6.6953  -6.6948  -6.6840  -6.6833  -6.6822  -6.6714
 -6.6707  -6.6697  -6.6659  -6.6653  -6.6645  -1.6618  -1.4678  -1.4163
 -1.4120  -1.3706  -1.2257  -1.1933  -1.1656  -1.1383  -1.0852  -1.0507
 -1.0435  -1.0254  -1.0004  -0.9881  -0.9648  -0.9594  -0.9498  -0.9395
 -0.8956  -0.8697  -0.8502  -0.8099  -0.7986  -0.7880  -0.7849  -0.7633
 -0.7559  -0.7330  -0.7265  -0.7116  -0.7012  -0.6862  -0.6826  -0.6816
 -0.6744  -0.6592  -0.6586  -0.6513  -0.6300  -0.6188  -0.6162  -0.6024
 -0.6002  -0.5856  -0.5792  -0.5709  -0.5646  -0.5606  -0.5568  -0.5464
 -0.5352  -0.5307  -0.5226  -0.5182  -0.5168  -0.5115  -0.5047  -0.4950
 -0.4870  -0.4820  -0.4767  -0.4748  -0.4697  -0.4633  -0.4595  -0.4272
 -0.3956  -0.3828  -0.3614  -0.3477  -0.3279  -0.2899  -0.2484

          Ground-State Mulliken Net Atomic Charges

     Atom                 Charge (a.u.)
  ----------------------------------------
      1 C                    -0.193481
      2 C                    -0.253935
      3 S                    -0.023925
      4 C                    -0.019793
      5 H                     0.195675
      6 C                    -0.025620
      7 C                     0.239142
      8 C                     0.243216
      9 C                    -0.045276
     10 C                    -0.016865
     11 O                    -0.332965
     12 O                    -0.341727
     13 C                    -0.086235
     14 H                     0.123114
     15 H                     0.091096
     16 H                     0.093309
     17 C                    -0.088762
     18 H                     0.125859
     19 H                     0.094844
     20 H                     0.089405
     21 C                    -0.248665
     22 S                    -0.037785
     23 C                    -0.017753
     24 H                     0.188823
     25 H                     0.205629
     26 C                     0.000625
     27 S                     0.087824
     28 C                    -0.171014
     29 C                     0.018830
     30 C                    -0.111972
     31 S                     0.020743
     32 C                    -0.160815
     33 C                     0.403748
     34 F                    -0.204987
     35 C                     0.446731
     36 O                    -0.460993
     37 O                    -0.301109
     38 C                    -0.058389
     39 H                     0.121578
     40 H                     0.095242
     41 H                     0.095253
     42 H                     0.221379
  ----------------------------------------
  Sum of atomic charges =     0.000000

                    Cartesian Multipole Moments
 -----------------------------------------------------------------
    Charge (ESU x 10^10)
                -0.0000
    Dipole Moment (Debye)
         X       1.9636      Y       1.8293      Z       3.0687
       Tot       4.0766
    Quadrupole Moments (Debye-Ang)
        XX    -197.8660     XY       5.9232     YY    -167.1596
        XZ      -5.2682     YZ      -6.7636     ZZ    -180.7381

 Total job time:  294.03s(wall), 8836.50s(cpu)
        *  Thank you very much for using Q-Chem.  Have a nice day.  *
