 Q-Chem 5.4, Q-Chem, Inc., Pleasanton, CA (2021)
 Q-Chem 5.4.0 for Intel X86 EM64T Linux

User input:
--------------------------------------------------------------
$molecule
0 1
C	-0.284919	-8.517702	-0.147685
C	0.728574	-7.641575	0.212552
S	-1.745304	-7.638634	-0.661757
C	0.374824	-6.264785	0.083761
H	1.715621	-7.966081	0.565513
C	-0.965104	-6.072714	-0.405665
C	-1.502136	-4.787049	-0.574617
C	1.214687	-5.162801	0.413763
C	0.675870	-3.874817	0.248748
C	-0.664513	-3.683952	-0.243888
O	2.464209	-5.499772	0.838511
O	-2.757750	-4.459055	-1.000176
C	-3.441858	-5.329063	-1.893778
H	-4.303826	-4.755694	-2.284868
H	-3.828743	-6.238095	-1.383341
H	-2.792824	-5.637262	-2.741817
C	3.241222	-4.572261	1.586168
H	4.108274	-5.139743	1.974033
H	2.668916	-4.153131	2.441448
H	3.620041	-3.739531	0.954660
C	-1.015668	-2.306654	-0.369302
S	1.453394	-2.306501	0.517367
C	0.000000	-1.435185	0.000000
H	-2.000559	-1.978138	-0.724300
H	-0.288311	-9.614033	-0.145124
C	0.000000	0.000000	0.000000
S	0.693394	0.581209	1.507541
C	1.897536	1.592607	0.718873
C	0.693330	0.580791	-1.067872
C	1.756758	1.476132	-0.686410
S	0.508573	0.422041	-2.805516
C	1.846879	1.552232	-3.054530
C	2.387897	2.009402	-1.862551
F	3.408741	2.872264	-1.819088
C	2.191300	1.838768	-4.456084
O	1.606694	1.337806	-5.406510
O	3.221062	2.712584	-4.569225
C	3.603677	3.026817	-5.916207
H	4.442623	3.739898	-5.833064
H	2.758956	3.483875	-6.470168
H	3.921969	2.114070	-6.459293
H	2.604650	2.187790	1.306486
$end

$rem
JOBTYPE		SP
EXCHANGE	HF
CORRELATION	pRIMP2
BASIS		cc-pvtz
METHOD		rimp2
AUX_BASIS	rimp2-cc-pvtz
SOLVENT_METHOD	PCM
PURECART	11111
SYMMETRY	false
MEM_TOTAL	110000
SCF_CONVERGENCE = 6
THRESH=10
GUI = 2
$end

$solvent
dielectric 4.90
$end
--------------------------------------------------------------

             Standard Nuclear Orientation (Angstroms)
    I     Atom           X                Y                Z
 ----------------------------------------------------------------
    1      C      -0.2849190000    -8.5177020000    -0.1476850000
    2      C       0.7285740000    -7.6415750000     0.2125520000
    3      S      -1.7453040000    -7.6386340000    -0.6617570000
    4      C       0.3748240000    -6.2647850000     0.0837610000
    5      H       1.7156210000    -7.9660810000     0.5655130000
    6      C      -0.9651040000    -6.0727140000    -0.4056650000
    7      C      -1.5021360000    -4.7870490000    -0.5746170000
    8      C       1.2146870000    -5.1628010000     0.4137630000
    9      C       0.6758700000    -3.8748170000     0.2487480000
   10      C      -0.6645130000    -3.6839520000    -0.2438880000
   11      O       2.4642090000    -5.4997720000     0.8385110000
   12      O      -2.7577500000    -4.4590550000    -1.0001760000
   13      C      -3.4418580000    -5.3290630000    -1.8937780000
   14      H      -4.3038260000    -4.7556940000    -2.2848680000
   15      H      -3.8287430000    -6.2380950000    -1.3833410000
   16      H      -2.7928240000    -5.6372620000    -2.7418170000
   17      C       3.2412220000    -4.5722610000     1.5861680000
   18      H       4.1082740000    -5.1397430000     1.9740330000
   19      H       2.6689160000    -4.1531310000     2.4414480000
   20      H       3.6200410000    -3.7395310000     0.9546600000
   21      C      -1.0156680000    -2.3066540000    -0.3693020000
   22      S       1.4533940000    -2.3065010000     0.5173670000
   23      C       0.0000000000    -1.4351850000     0.0000000000
   24      H      -2.0005590000    -1.9781380000    -0.7243000000
   25      H      -0.2883110000    -9.6140330000    -0.1451240000
   26      C       0.0000000000     0.0000000000     0.0000000000
   27      S       0.6933940000     0.5812090000     1.5075410000
   28      C       1.8975360000     1.5926070000     0.7188730000
   29      C       0.6933300000     0.5807910000    -1.0678720000
   30      C       1.7567580000     1.4761320000    -0.6864100000
   31      S       0.5085730000     0.4220410000    -2.8055160000
   32      C       1.8468790000     1.5522320000    -3.0545300000
   33      C       2.3878970000     2.0094020000    -1.8625510000
   34      F       3.4087410000     2.8722640000    -1.8190880000
   35      C       2.1913000000     1.8387680000    -4.4560840000
   36      O       1.6066940000     1.3378060000    -5.4065100000
   37      O       3.2210620000     2.7125840000    -4.5692250000
   38      C       3.6036770000     3.0268170000    -5.9162070000
   39      H       4.4426230000     3.7398980000    -5.8330640000
   40      H       2.7589560000     3.4838750000    -6.4701680000
   41      H       3.9219690000     2.1140700000    -6.4592930000
   42      H       2.6046500000     2.1877900000     1.3064860000
 ----------------------------------------------------------------

   10   -2754.2695026841      8.85e-07  Convergence criterion met
 Total energy in the final basis set =    -2754.2695026841
        RIMP2         total energy =     -2759.3294380464 a.u.

                    Orbital Energies (a.u.)
 --------------------------------------------------------------

 Alpha MOs
 -- Occupied --
-92.0130 -92.0056 -91.9844 -91.9838 -26.3452 -20.6150 -20.5911 -20.5887
-20.5614 -11.4099 -11.3854 -11.3278 -11.3169 -11.3154 -11.3135 -11.2976
-11.2897 -11.2891 -11.2867 -11.2865 -11.2845 -11.2816 -11.2815 -11.2772
-11.2760 -11.2565 -11.2555 -11.2484 -11.2451  -9.0123  -9.0052  -8.9847
 -8.9843  -6.6930  -6.6921  -6.6919  -6.6861  -6.6854  -6.6844  -6.6656
 -6.6653  -6.6649  -6.6647  -6.6639  -6.6638  -1.6622  -1.4676  -1.4151
 -1.4116  -1.3703  -1.2293  -1.1910  -1.1643  -1.1386  -1.0834  -1.0490
 -1.0441  -1.0251  -0.9984  -0.9865  -0.9636  -0.9592  -0.9491  -0.9383
 -0.8937  -0.8702  -0.8457  -0.8117  -0.7948  -0.7857  -0.7840  -0.7632
 -0.7556  -0.7312  -0.7270  -0.7119  -0.6998  -0.6857  -0.6822  -0.6797
 -0.6742  -0.6591  -0.6576  -0.6509  -0.6289  -0.6181  -0.6161  -0.6072
 -0.5992  -0.5893  -0.5753  -0.5700  -0.5642  -0.5628  -0.5536  -0.5353
 -0.5330  -0.5311  -0.5204  -0.5142  -0.5139  -0.5110  -0.5031  -0.4923
 -0.4879  -0.4835  -0.4748  -0.4742  -0.4707  -0.4612  -0.4598  -0.4073
 -0.3956  -0.3833  -0.3531  -0.3526  -0.3118  -0.3010  -0.2551

          Ground-State Mulliken Net Atomic Charges

     Atom                 Charge (a.u.)
  ----------------------------------------
      1 C                    -0.193303
      2 C                    -0.254211
      3 S                    -0.025348
      4 C                    -0.019045
      5 H                     0.195468
      6 C                    -0.026724
      7 C                     0.236918
      8 C                     0.241260
      9 C                    -0.045890
     10 C                    -0.018414
     11 O                    -0.333699
     12 O                    -0.340369
     13 C                    -0.085750
     14 H                     0.121954
     15 H                     0.090276
     16 H                     0.093538
     17 C                    -0.086526
     18 H                     0.124797
     19 H                     0.093741
     20 H                     0.089133
     21 C                    -0.243646
     22 S                    -0.019229
     23 C                    -0.055165
     24 H                     0.195094
     25 H                     0.205410
     26 C                    -0.097340
     27 S                     0.114090
     28 C                    -0.141332
     29 C                     0.053473
     30 C                    -0.103161
     31 S                     0.041905
     32 C                    -0.152278
     33 C                     0.391163
     34 F                    -0.204811
     35 C                     0.448404
     36 O                    -0.462042
     37 O                    -0.301268
     38 C                    -0.058236
     39 H                     0.121329
     40 H                     0.095165
     41 H                     0.095271
     42 H                     0.219399
  ----------------------------------------
  Sum of atomic charges =     0.000000

                    Cartesian Multipole Moments
 -----------------------------------------------------------------
    Charge (ESU x 10^10)
                -0.0000
    Dipole Moment (Debye)
         X       3.2780      Y       1.6420      Z       2.5842
       Tot       4.4855
    Quadrupole Moments (Debye-Ang)
        XX    -174.8986     XY       8.0213     YY    -174.4124
        XZ       5.9653     YZ      -3.4520     ZZ    -197.3856

 Total job time:  313.61s(wall), 9003.28s(cpu)
        *  Thank you very much for using Q-Chem.  Have a nice day.  *
