 Q-Chem 5.4, Q-Chem, Inc., Pleasanton, CA (2021)
 Q-Chem 5.4.0 for Intel X86 EM64T Linux

User input:
--------------------------------------------------------------
$molecule
0 1
C	-0.123330	-8.517702	-0.296276
C	0.421494	-7.641575	0.631143
S	-0.911611	-7.638634	-1.628795
C	0.233291	-6.264785	0.305097
H	0.950737	-7.966081	1.535988
C	-0.478557	-6.072714	-0.931114
C	-0.781346	-4.787049	-1.405737
C	0.664542	-5.162801	1.097747
C	0.357854	-3.874817	0.624993
C	-0.352278	-3.683952	-0.613970
O	1.348709	-5.499772	2.226300
O	-1.469658	-4.459055	-2.538827
C	-1.419319	-5.329063	-3.663102
H	-1.828237	-4.755694	-4.516756
H	-2.043793	-6.238095	-3.520769
H	-0.377021	-5.637262	-3.895546
C	1.463351	-4.572261	3.298492
H	1.878237	-5.139743	4.152945
H	0.475176	-4.153131	3.585804
H	2.159469	-3.739531	3.058230
C	-0.540664	-2.306654	-0.935761
S	0.780808	-2.306501	1.330550
C	0.000000	-1.435185	0.000000
H	-1.066946	-1.978138	-1.840780
H	-0.127575	-9.614033	-0.296494
C	0.000000	0.000000	0.000000
S	0.693394	0.581209	1.507541
C	1.897536	1.592607	0.718873
C	0.693330	0.580791	-1.067872
C	1.756758	1.476132	-0.686410
S	0.508573	0.422041	-2.805516
C	1.846879	1.552232	-3.054530
C	2.387897	2.009402	-1.862551
F	3.408741	2.872264	-1.819088
C	2.191300	1.838768	-4.456084
O	1.606694	1.337806	-5.406510
O	3.221062	2.712584	-4.569225
C	3.603677	3.026817	-5.916207
H	4.442623	3.739898	-5.833064
H	2.758956	3.483875	-6.470168
H	3.921969	2.114070	-6.459293
H	2.604650	2.187790	1.306486
$end

$rem
JOBTYPE		SP
EXCHANGE	HF
CORRELATION	pRIMP2
BASIS		cc-pvtz
METHOD		rimp2
AUX_BASIS	rimp2-cc-pvtz
SOLVENT_METHOD	PCM
PURECART	11111
SYMMETRY	false
MEM_TOTAL	110000
SCF_CONVERGENCE = 6
THRESH=10
GUI = 2
$end

$solvent
dielectric 4.90
$end
--------------------------------------------------------------

             Standard Nuclear Orientation (Angstroms)
    I     Atom           X                Y                Z
 ----------------------------------------------------------------
    1      C      -0.1233300000    -8.5177020000    -0.2962760000
    2      C       0.4214940000    -7.6415750000     0.6311430000
    3      S      -0.9116110000    -7.6386340000    -1.6287950000
    4      C       0.2332910000    -6.2647850000     0.3050970000
    5      H       0.9507370000    -7.9660810000     1.5359880000
    6      C      -0.4785570000    -6.0727140000    -0.9311140000
    7      C      -0.7813460000    -4.7870490000    -1.4057370000
    8      C       0.6645420000    -5.1628010000     1.0977470000
    9      C       0.3578540000    -3.8748170000     0.6249930000
   10      C      -0.3522780000    -3.6839520000    -0.6139700000
   11      O       1.3487090000    -5.4997720000     2.2263000000
   12      O      -1.4696580000    -4.4590550000    -2.5388270000
   13      C      -1.4193190000    -5.3290630000    -3.6631020000
   14      H      -1.8282370000    -4.7556940000    -4.5167560000
   15      H      -2.0437930000    -6.2380950000    -3.5207690000
   16      H      -0.3770210000    -5.6372620000    -3.8955460000
   17      C       1.4633510000    -4.5722610000     3.2984920000
   18      H       1.8782370000    -5.1397430000     4.1529450000
   19      H       0.4751760000    -4.1531310000     3.5858040000
   20      H       2.1594690000    -3.7395310000     3.0582300000
   21      C      -0.5406640000    -2.3066540000    -0.9357610000
   22      S       0.7808080000    -2.3065010000     1.3305500000
   23      C       0.0000000000    -1.4351850000     0.0000000000
   24      H      -1.0669460000    -1.9781380000    -1.8407800000
   25      H      -0.1275750000    -9.6140330000    -0.2964940000
   26      C       0.0000000000     0.0000000000     0.0000000000
   27      S       0.6933940000     0.5812090000     1.5075410000
   28      C       1.8975360000     1.5926070000     0.7188730000
   29      C       0.6933300000     0.5807910000    -1.0678720000
   30      C       1.7567580000     1.4761320000    -0.6864100000
   31      S       0.5085730000     0.4220410000    -2.8055160000
   32      C       1.8468790000     1.5522320000    -3.0545300000
   33      C       2.3878970000     2.0094020000    -1.8625510000
   34      F       3.4087410000     2.8722640000    -1.8190880000
   35      C       2.1913000000     1.8387680000    -4.4560840000
   36      O       1.6066940000     1.3378060000    -5.4065100000
   37      O       3.2210620000     2.7125840000    -4.5692250000
   38      C       3.6036770000     3.0268170000    -5.9162070000
   39      H       4.4426230000     3.7398980000    -5.8330640000
   40      H       2.7589560000     3.4838750000    -6.4701680000
   41      H       3.9219690000     2.1140700000    -6.4592930000
   42      H       2.6046500000     2.1877900000     1.3064860000
 ----------------------------------------------------------------

   10   -2754.2680500596      7.73e-07  Convergence criterion met
 Total energy in the final basis set =    -2754.2680500596
        RIMP2         total energy =     -2759.3305279777 a.u.

                    Orbital Energies (a.u.)
 --------------------------------------------------------------

 Alpha MOs
 -- Occupied --
-92.0152 -92.0085 -91.9878 -91.9827 -26.3464 -20.6159 -20.5911 -20.5862
-20.5625 -11.4110 -11.3871 -11.3303 -11.3187 -11.3169 -11.3089 -11.2994
-11.2962 -11.2898 -11.2896 -11.2867 -11.2830 -11.2827 -11.2807 -11.2769
-11.2743 -11.2573 -11.2516 -11.2473 -11.2370  -9.0149  -9.0081  -8.9884
 -8.9827  -6.6956  -6.6947  -6.6944  -6.6890  -6.6882  -6.6872  -6.6693
 -6.6685  -6.6676  -6.6637  -6.6630  -6.6622  -1.6634  -1.4685  -1.4150
 -1.4091  -1.3712  -1.2322  -1.1901  -1.1649  -1.1398  -1.0845  -1.0477
 -1.0453  -1.0276  -0.9975  -0.9872  -0.9661  -0.9580  -0.9483  -0.9386
 -0.8935  -0.8719  -0.8463  -0.8120  -0.7979  -0.7859  -0.7829  -0.7617
 -0.7563  -0.7302  -0.7281  -0.7136  -0.6994  -0.6867  -0.6831  -0.6789
 -0.6750  -0.6599  -0.6571  -0.6495  -0.6287  -0.6170  -0.6149  -0.6046
 -0.6013  -0.5898  -0.5783  -0.5704  -0.5632  -0.5621  -0.5535  -0.5396
 -0.5336  -0.5309  -0.5215  -0.5175  -0.5137  -0.5110  -0.5028  -0.4936
 -0.4879  -0.4828  -0.4764  -0.4743  -0.4682  -0.4598  -0.4582  -0.4228
 -0.3939  -0.3802  -0.3595  -0.3464  -0.3255  -0.2931  -0.2466

          Ground-State Mulliken Net Atomic Charges

     Atom                 Charge (a.u.)
  ----------------------------------------
      1 C                    -0.199866
      2 C                    -0.253008
      3 S                    -0.028161
      4 C                    -0.025990
      5 H                     0.194794
      6 C                    -0.023922
      7 C                     0.226472
      8 C                     0.242688
      9 C                    -0.054792
     10 C                    -0.006194
     11 O                    -0.333135
     12 O                    -0.342157
     13 C                    -0.085544
     14 H                     0.121682
     15 H                     0.089925
     16 H                     0.092389
     17 C                    -0.087872
     18 H                     0.125291
     19 H                     0.094248
     20 H                     0.088702
     21 C                    -0.297235
     22 S                    -0.026883
     23 C                     0.016619
     24 H                     0.191139
     25 H                     0.204361
     26 C                    -0.086508
     27 S                     0.092661
     28 C                    -0.133528
     29 C                     0.072371
     30 C                    -0.116370
     31 S                     0.046471
     32 C                    -0.156139
     33 C                     0.399000
     34 F                    -0.203894
     35 C                     0.448489
     36 O                    -0.461188
     37 O                    -0.301223
     38 C                    -0.058197
     39 H                     0.121600
     40 H                     0.095310
     41 H                     0.095464
     42 H                     0.222131
  ----------------------------------------
  Sum of atomic charges =     0.000000

                    Cartesian Multipole Moments
 -----------------------------------------------------------------
    Charge (ESU x 10^10)
                -0.0000
    Dipole Moment (Debye)
         X       3.6351      Y       2.7029      Z       2.9485
       Tot       5.4049
    Quadrupole Moments (Debye-Ang)
        XX    -189.6606     XY       7.0314     YY    -179.8858
        XZ       0.8560     YZ      -5.4964     ZZ    -181.8948

 Total job time:  301.03s(wall), 9287.79s(cpu)
        *  Thank you very much for using Q-Chem.  Have a nice day.  *
