 Q-Chem 5.4, Q-Chem, Inc., Pleasanton, CA (2021)
 Q-Chem 5.4.0 for Intel X86 EM64T Linux

User input:
--------------------------------------------------------------
$molecule
0 1
C	0.236226	-8.517702	-0.217225
C	-0.448921	-7.641575	0.611939
S	1.218777	-7.638634	-1.413715
C	-0.206907	-6.264785	0.323572
H	-1.118185	-7.966081	1.418739
C	0.711285	-6.072714	-0.768156
C	1.053725	-4.787049	-1.215016
C	-0.804258	-5.162801	0.999917
C	-0.464908	-3.874817	0.550033
C	0.456457	-3.683952	-0.541024
O	-1.630752	-5.499772	2.028811
O	1.883064	-4.459055	-2.249357
C	2.956754	-5.329063	-2.586579
H	3.619069	-4.755694	-3.262802
H	2.609423	-6.238095	-3.124711
H	3.531667	-5.637262	-1.686639
C	-2.599073	-4.572261	2.503251
H	-3.260097	-5.139743	3.185356
H	-3.207034	-4.153131	1.672937
H	-2.135214	-3.739531	3.075213
C	0.694410	-2.306654	-0.828107
S	-0.983256	-2.306501	1.188794
C	-0.000000	-1.435185	-0.000000
H	1.364851	-1.978138	-1.632185
H	0.234980	-9.614033	-0.221288
C	0.000000	0.000000	0.000000
S	0.581934	0.692785	1.507541
C	1.592155	1.897915	0.718873
C	0.581944	0.692363	-1.067872
C	1.473741	1.758764	-0.686410
S	0.427560	0.503942	-2.805516
C	1.549278	1.849357	-3.054530
C	2.002690	2.393529	-1.862551
F	2.858191	3.420549	-1.819088
C	1.838710	2.191348	-4.456084
O	1.349977	1.596481	-5.406510
O	2.701091	3.230705	-4.569225
C	3.023327	3.606605	-5.916207
H	3.725703	4.454534	-5.833064
H	2.112072	3.910035	-6.470168
H	3.495281	2.762996	-6.459293
H	2.185174	2.606846	1.306486
$end

$rem
JOBTYPE		SP
EXCHANGE	HF
CORRELATION	pRIMP2
BASIS		cc-pvtz
METHOD		rimp2
AUX_BASIS	rimp2-cc-pvtz
SOLVENT_METHOD	PCM
PURECART	11111
SYMMETRY	false
MEM_TOTAL	110000
SCF_CONVERGENCE = 6
THRESH=10
GUI = 2
$end

$solvent
dielectric 4.90
$end
--------------------------------------------------------------

             Standard Nuclear Orientation (Angstroms)
    I     Atom           X                Y                Z
 ----------------------------------------------------------------
    1      C       0.2362260000    -8.5177020000    -0.2172250000
    2      C      -0.4489210000    -7.6415750000     0.6119390000
    3      S       1.2187770000    -7.6386340000    -1.4137150000
    4      C      -0.2069070000    -6.2647850000     0.3235720000
    5      H      -1.1181850000    -7.9660810000     1.4187390000
    6      C       0.7112850000    -6.0727140000    -0.7681560000
    7      C       1.0537250000    -4.7870490000    -1.2150160000
    8      C      -0.8042580000    -5.1628010000     0.9999170000
    9      C      -0.4649080000    -3.8748170000     0.5500330000
   10      C       0.4564570000    -3.6839520000    -0.5410240000
   11      O      -1.6307520000    -5.4997720000     2.0288110000
   12      O       1.8830640000    -4.4590550000    -2.2493570000
   13      C       2.9567540000    -5.3290630000    -2.5865790000
   14      H       3.6190690000    -4.7556940000    -3.2628020000
   15      H       2.6094230000    -6.2380950000    -3.1247110000
   16      H       3.5316670000    -5.6372620000    -1.6866390000
   17      C      -2.5990730000    -4.5722610000     2.5032510000
   18      H      -3.2600970000    -5.1397430000     3.1853560000
   19      H      -3.2070340000    -4.1531310000     1.6729370000
   20      H      -2.1352140000    -3.7395310000     3.0752130000
   21      C       0.6944100000    -2.3066540000    -0.8281070000
   22      S      -0.9832560000    -2.3065010000     1.1887940000
   23      C       0.0000000000    -1.4351850000     0.0000000000
   24      H       1.3648510000    -1.9781380000    -1.6321850000
   25      H       0.2349800000    -9.6140330000    -0.2212880000
   26      C       0.0000000000     0.0000000000     0.0000000000
   27      S       0.5819340000     0.6927850000     1.5075410000
   28      C       1.5921550000     1.8979150000     0.7188730000
   29      C       0.5819440000     0.6923630000    -1.0678720000
   30      C       1.4737410000     1.7587640000    -0.6864100000
   31      S       0.4275600000     0.5039420000    -2.8055160000
   32      C       1.5492780000     1.8493570000    -3.0545300000
   33      C       2.0026900000     2.3935290000    -1.8625510000
   34      F       2.8581910000     3.4205490000    -1.8190880000
   35      C       1.8387100000     2.1913480000    -4.4560840000
   36      O       1.3499770000     1.5964810000    -5.4065100000
   37      O       2.7010910000     3.2307050000    -4.5692250000
   38      C       3.0233270000     3.6066050000    -5.9162070000
   39      H       3.7257030000     4.4545340000    -5.8330640000
   40      H       2.1120720000     3.9100350000    -6.4701680000
   41      H       3.4952810000     2.7629960000    -6.4592930000
   42      H       2.1851740000     2.6068460000     1.3064860000
 ----------------------------------------------------------------

   10   -2754.2885068542      8.30e-07  Convergence criterion met
 Total energy in the final basis set =    -2754.2885068542
        RIMP2         total energy =     -2759.3460906639 a.u.

                    Orbital Energies (a.u.)
 --------------------------------------------------------------

 Alpha MOs
 -- Occupied --
-92.0150 -92.0026 -91.9855 -91.9849 -26.3444 -20.6152 -20.5916 -20.5892
-20.5617 -11.4100 -11.3840 -11.3217 -11.3180 -11.3143 -11.3091 -11.2981
-11.2950 -11.2891 -11.2872 -11.2868 -11.2865 -11.2848 -11.2829 -11.2826
-11.2775 -11.2591 -11.2559 -11.2488 -11.2481  -9.0139  -9.0024  -8.9863
 -8.9848  -6.6946  -6.6939  -6.6935  -6.6834  -6.6826  -6.6816  -6.6673
 -6.6666  -6.6658  -6.6657  -6.6652  -6.6643  -1.6615  -1.4677  -1.4156
 -1.4121  -1.3704  -1.2265  -1.1922  -1.1646  -1.1380  -1.0846  -1.0500
 -1.0436  -1.0248  -0.9991  -0.9872  -0.9638  -0.9589  -0.9493  -0.9396
 -0.8943  -0.8695  -0.8476  -0.8094  -0.7978  -0.7875  -0.7847  -0.7630
 -0.7556  -0.7323  -0.7264  -0.7113  -0.7008  -0.6857  -0.6817  -0.6812
 -0.6743  -0.6588  -0.6580  -0.6512  -0.6293  -0.6186  -0.6163  -0.6058
 -0.5998  -0.5828  -0.5756  -0.5704  -0.5650  -0.5613  -0.5557  -0.5473
 -0.5316  -0.5293  -0.5227  -0.5157  -0.5144  -0.5074  -0.5068  -0.4953
 -0.4868  -0.4822  -0.4759  -0.4739  -0.4685  -0.4649  -0.4587  -0.4170
 -0.3931  -0.3844  -0.3579  -0.3512  -0.3245  -0.2912  -0.2509

          Ground-State Mulliken Net Atomic Charges

     Atom                 Charge (a.u.)
  ----------------------------------------
      1 C                    -0.193226
      2 C                    -0.253757
      3 S                    -0.024871
      4 C                    -0.019693
      5 H                     0.195745
      6 C                    -0.026380
      7 C                     0.236898
      8 C                     0.245160
      9 C                    -0.042311
     10 C                    -0.023418
     11 O                    -0.333573
     12 O                    -0.340384
     13 C                    -0.085850
     14 H                     0.122296
     15 H                     0.090883
     16 H                     0.092996
     17 C                    -0.087258
     18 H                     0.125302
     19 H                     0.094880
     20 H                     0.089050
     21 C                    -0.243573
     22 S                    -0.037121
     23 C                     0.012134
     24 H                     0.200968
     25 H                     0.205565
     26 C                    -0.078175
     27 S                     0.120662
     28 C                    -0.170415
     29 C                    -0.022094
     30 C                    -0.085936
     31 S                     0.041209
     32 C                    -0.155202
     33 C                     0.399381
     34 F                    -0.206250
     35 C                     0.445600
     36 O                    -0.461129
     37 O                    -0.300995
     38 C                    -0.058315
     39 H                     0.121442
     40 H                     0.095354
     41 H                     0.095129
     42 H                     0.219272
  ----------------------------------------
  Sum of atomic charges =     0.000000

                    Cartesian Multipole Moments
 -----------------------------------------------------------------
    Charge (ESU x 10^10)
                -0.0000
    Dipole Moment (Debye)
         X       2.3404      Y       1.6754      Z       3.0526
       Tot       4.1956
    Quadrupole Moments (Debye-Ang)
        XX    -179.0625     XY       7.5109     YY    -170.4517
        XZ     -16.4686     YZ      -6.5603     ZZ    -196.8461

 Total job time:  278.10s(wall), 8852.53s(cpu)
        *  Thank you very much for using Q-Chem.  Have a nice day.  *
