 Q-Chem 5.4, Q-Chem, Inc., Pleasanton, CA (2021)
 Q-Chem 5.4.0 for Intel X86 EM64T Linux

User input:
--------------------------------------------------------------
$molecule
0 1
C	-0.320589	-8.517702	0.014560
C	0.737240	-7.641575	-0.180211
S	-1.842356	-7.638634	0.299553
C	0.366488	-6.264785	-0.114873
H	1.768528	-7.966081	-0.368061
C	-1.038637	-6.072714	0.131236
C	-1.588197	-4.787049	0.253435
C	1.258831	-5.162801	-0.249014
C	0.709695	-3.874817	-0.122513
C	-0.697430	-3.683952	0.121043
O	2.553323	-5.499772	-0.505933
O	-2.888369	-4.459055	0.512697
C	-3.927625	-5.329063	0.080869
H	-4.869656	-4.755694	0.173159
H	-4.007459	-6.238095	0.716363
H	-3.789565	-5.637262	-0.978072
C	3.600064	-4.572261	-0.246949
H	4.544887	-5.139743	-0.344574
H	3.532074	-4.153131	0.779898
H	3.612378	-3.739531	-0.983261
C	-1.064246	-2.306654	0.188009
S	1.517360	-2.306501	-0.278644
C	0.000000	-1.435185	0.000000
H	-2.094685	-1.978138	0.373017
H	-0.322246	-9.614033	0.018474
C	0.000000	0.000000	0.000000
S	0.000474	0.904764	1.507541
C	-0.000295	2.477305	0.718873
C	0.000752	0.904447	-1.067872
C	-0.001560	2.294593	-0.686410
S	0.003602	0.660872	-2.805516
C	-0.001928	2.412546	-3.054530
C	-0.004381	3.120854	-1.862551
F	-0.009185	4.457503	-1.819088
C	-0.000038	2.860570	-4.456084
O	0.007944	2.090724	-5.406510
O	-0.007501	4.211092	-4.569225
C	-0.002278	4.706177	-5.916207
H	-0.009265	5.807207	-5.833064
H	-0.895381	4.352875	-6.470168
H	0.901521	4.363301	-6.459293
H	-0.001708	3.401562	1.306486
$end

$rem
JOBTYPE		SP
EXCHANGE	HF
CORRELATION	pRIMP2
BASIS		cc-pvtz
METHOD		rimp2
AUX_BASIS	rimp2-cc-pvtz
SOLVENT_METHOD	PCM
PURECART	11111
SYMMETRY	false
MEM_TOTAL	110000
SCF_CONVERGENCE = 6
THRESH=10
GUI = 2
$end

$solvent
dielectric 4.90
$end
--------------------------------------------------------------

             Standard Nuclear Orientation (Angstroms)
    I     Atom           X                Y                Z
 ----------------------------------------------------------------
    1      C      -0.3205890000    -8.5177020000     0.0145600000
    2      C       0.7372400000    -7.6415750000    -0.1802110000
    3      S      -1.8423560000    -7.6386340000     0.2995530000
    4      C       0.3664880000    -6.2647850000    -0.1148730000
    5      H       1.7685280000    -7.9660810000    -0.3680610000
    6      C      -1.0386370000    -6.0727140000     0.1312360000
    7      C      -1.5881970000    -4.7870490000     0.2534350000
    8      C       1.2588310000    -5.1628010000    -0.2490140000
    9      C       0.7096950000    -3.8748170000    -0.1225130000
   10      C      -0.6974300000    -3.6839520000     0.1210430000
   11      O       2.5533230000    -5.4997720000    -0.5059330000
   12      O      -2.8883690000    -4.4590550000     0.5126970000
   13      C      -3.9276250000    -5.3290630000     0.0808690000
   14      H      -4.8696560000    -4.7556940000     0.1731590000
   15      H      -4.0074590000    -6.2380950000     0.7163630000
   16      H      -3.7895650000    -5.6372620000    -0.9780720000
   17      C       3.6000640000    -4.5722610000    -0.2469490000
   18      H       4.5448870000    -5.1397430000    -0.3445740000
   19      H       3.5320740000    -4.1531310000     0.7798980000
   20      H       3.6123780000    -3.7395310000    -0.9832610000
   21      C      -1.0642460000    -2.3066540000     0.1880090000
   22      S       1.5173600000    -2.3065010000    -0.2786440000
   23      C       0.0000000000    -1.4351850000     0.0000000000
   24      H      -2.0946850000    -1.9781380000     0.3730170000
   25      H      -0.3222460000    -9.6140330000     0.0184740000
   26      C       0.0000000000     0.0000000000     0.0000000000
   27      S       0.0004740000     0.9047640000     1.5075410000
   28      C      -0.0002950000     2.4773050000     0.7188730000
   29      C       0.0007520000     0.9044470000    -1.0678720000
   30      C      -0.0015600000     2.2945930000    -0.6864100000
   31      S       0.0036020000     0.6608720000    -2.8055160000
   32      C      -0.0019280000     2.4125460000    -3.0545300000
   33      C      -0.0043810000     3.1208540000    -1.8625510000
   34      F      -0.0091850000     4.4575030000    -1.8190880000
   35      C      -0.0000380000     2.8605700000    -4.4560840000
   36      O       0.0079440000     2.0907240000    -5.4065100000
   37      O      -0.0075010000     4.2110920000    -4.5692250000
   38      C      -0.0022780000     4.7061770000    -5.9162070000
   39      H      -0.0092650000     5.8072070000    -5.8330640000
   40      H      -0.8953810000     4.3528750000    -6.4701680000
   41      H       0.9015210000     4.3633010000    -6.4592930000
   42      H      -0.0017080000     3.4015620000     1.3064860000
 ----------------------------------------------------------------

   10   -2754.3142985593      6.92e-07  Convergence criterion met
 Total energy in the final basis set =    -2754.3142985593
        RIMP2         total energy =     -2759.3635538710 a.u.

                    Orbital Energies (a.u.)
 --------------------------------------------------------------

 Alpha MOs
 -- Occupied --
-92.0146 -91.9964 -91.9889 -91.9866 -26.3424 -20.6142 -20.5923 -20.5919
-20.5604 -11.4085 -11.3812 -11.3192 -11.3188 -11.3082 -11.2997 -11.2968
-11.2962 -11.2916 -11.2884 -11.2869 -11.2864 -11.2863 -11.2841 -11.2833
-11.2804 -11.2606 -11.2596 -11.2587 -11.2501  -9.0130  -8.9964  -8.9893
 -8.9865  -6.6937  -6.6931  -6.6926  -6.6774  -6.6767  -6.6756  -6.6702
 -6.6695  -6.6686  -6.6675  -6.6669  -6.6660  -1.6595  -1.4666  -1.4165
 -1.4147  -1.3692  -1.2196  -1.1945  -1.1653  -1.1347  -1.0844  -1.0521
 -1.0403  -1.0215  -1.0018  -0.9877  -0.9618  -0.9600  -0.9503  -0.9386
 -0.8958  -0.8665  -0.8514  -0.8100  -0.7924  -0.7889  -0.7865  -0.7650
 -0.7548  -0.7340  -0.7244  -0.7089  -0.7003  -0.6845  -0.6834  -0.6800
 -0.6733  -0.6592  -0.6570  -0.6528  -0.6305  -0.6203  -0.6172  -0.6048
 -0.5967  -0.5852  -0.5772  -0.5696  -0.5666  -0.5594  -0.5557  -0.5518
 -0.5315  -0.5304  -0.5240  -0.5161  -0.5149  -0.5086  -0.5039  -0.4950
 -0.4897  -0.4791  -0.4752  -0.4727  -0.4695  -0.4661  -0.4607  -0.4057
 -0.3982  -0.3868  -0.3575  -0.3479  -0.3155  -0.2973  -0.2594

          Ground-State Mulliken Net Atomic Charges

     Atom                 Charge (a.u.)
  ----------------------------------------
      1 C                    -0.187295
      2 C                    -0.254153
      3 S                    -0.021850
      4 C                    -0.013174
      5 H                     0.196535
      6 C                    -0.027849
      7 C                     0.245483
      8 C                     0.238276
      9 C                    -0.046324
     10 C                    -0.031629
     11 O                    -0.333263
     12 O                    -0.339850
     13 C                    -0.085798
     14 H                     0.122724
     15 H                     0.091012
     16 H                     0.094537
     17 C                    -0.086124
     18 H                     0.124678
     19 H                     0.094202
     20 H                     0.090448
     21 C                    -0.215275
     22 S                     0.002136
     23 C                    -0.052481
     24 H                     0.197448
     25 H                     0.206602
     26 C                    -0.025459
     27 S                     0.109017
     28 C                    -0.187530
     29 C                     0.013349
     30 C                    -0.109570
     31 S                     0.007071
     32 C                    -0.154513
     33 C                     0.392797
     34 F                    -0.207229
     35 C                     0.445245
     36 O                    -0.461318
     37 O                    -0.300613
     38 C                    -0.058649
     39 H                     0.121189
     40 H                     0.095010
     41 H                     0.094962
     42 H                     0.217228
  ----------------------------------------
  Sum of atomic charges =     0.000000

                    Cartesian Multipole Moments
 -----------------------------------------------------------------
    Charge (ESU x 10^10)
                -0.0000
    Dipole Moment (Debye)
         X      -0.0136      Y       0.7831      Z       2.8151
       Tot       2.9220
    Quadrupole Moments (Debye-Ang)
        XX    -176.8960     XY       0.7903     YY    -158.9977
        XZ       1.5435     YZ      -5.9591     ZZ    -206.7743

 Total job time:  308.59s(wall), 9485.88s(cpu)
        *  Thank you very much for using Q-Chem.  Have a nice day.  *
