 Q-Chem 5.4, Q-Chem, Inc., Pleasanton, CA (2021)
 Q-Chem 5.4.0 for Intel X86 EM64T Linux

User input:
--------------------------------------------------------------
$molecule
0 1
C	0.095966	-8.517702	-0.306235
C	-0.082807	-7.641575	0.754415
S	0.348635	-7.638634	-1.833702
C	-0.017401	-6.264785	0.383675
H	-0.259008	-7.966081	1.787757
C	0.231913	-6.072714	-1.020885
C	0.305044	-4.787049	-1.579097
C	-0.196549	-5.162801	1.268082
C	-0.127606	-3.874817	0.708796
C	0.124792	-3.683952	-0.696769
O	-0.397867	-5.499772	2.572378
O	0.506103	-4.459055	-2.889532
C	1.267335	-5.329063	-3.718420
H	1.502804	-4.755694	-4.635204
H	0.697471	-6.238095	-4.010790
H	2.215194	-5.637262	-3.226506
C	-0.999238	-4.572261	3.467415
H	-1.230649	-5.139743	4.388648
H	-1.940905	-4.153131	3.052323
H	-0.311543	-3.739531	3.730819
C	0.187323	-2.306654	-1.064366
S	-0.257128	-2.306501	1.521154
C	-0.000000	-1.435185	-0.000000
H	0.365903	-1.978138	-2.095939
H	0.092855	-9.614033	-0.309131
C	0.000000	0.000000	0.000000
S	0.157577	0.890937	1.507541
C	0.429889	2.439720	0.718873
C	0.157797	0.890576	-1.067872
C	0.396915	2.260004	-0.686410
S	0.118307	0.650207	-2.805516
C	0.417036	2.376229	-3.054530
C	0.537616	3.074202	-1.862551
F	0.764992	4.391378	-1.819088
C	0.496696	2.817118	-4.456084
O	0.370874	2.057582	-5.406510
O	0.723861	4.148418	-4.569225
C	0.814976	4.635075	-5.916207
H	0.999286	5.720591	-5.833064
H	-0.125909	4.442226	-6.470168
H	1.645504	4.140465	-6.459293
H	0.588993	3.350182	1.306486
$end

$rem
JOBTYPE		SP
EXCHANGE	HF
CORRELATION	pRIMP2
BASIS		cc-pvtz
METHOD		rimp2
AUX_BASIS	rimp2-cc-pvtz
SOLVENT_METHOD	PCM
PURECART	11111
SYMMETRY	false
MEM_TOTAL	110000
SCF_CONVERGENCE = 6
THRESH=10
GUI = 2
$end

$solvent
dielectric 4.90
$end
--------------------------------------------------------------

             Standard Nuclear Orientation (Angstroms)
    I     Atom           X                Y                Z
 ----------------------------------------------------------------
    1      C       0.0959660000    -8.5177020000    -0.3062350000
    2      C      -0.0828070000    -7.6415750000     0.7544150000
    3      S       0.3486350000    -7.6386340000    -1.8337020000
    4      C      -0.0174010000    -6.2647850000     0.3836750000
    5      H      -0.2590080000    -7.9660810000     1.7877570000
    6      C       0.2319130000    -6.0727140000    -1.0208850000
    7      C       0.3050440000    -4.7870490000    -1.5790970000
    8      C      -0.1965490000    -5.1628010000     1.2680820000
    9      C      -0.1276060000    -3.8748170000     0.7087960000
   10      C       0.1247920000    -3.6839520000    -0.6967690000
   11      O      -0.3978670000    -5.4997720000     2.5723780000
   12      O       0.5061030000    -4.4590550000    -2.8895320000
   13      C       1.2673350000    -5.3290630000    -3.7184200000
   14      H       1.5028040000    -4.7556940000    -4.6352040000
   15      H       0.6974710000    -6.2380950000    -4.0107900000
   16      H       2.2151940000    -5.6372620000    -3.2265060000
   17      C      -0.9992380000    -4.5722610000     3.4674150000
   18      H      -1.2306490000    -5.1397430000     4.3886480000
   19      H      -1.9409050000    -4.1531310000     3.0523230000
   20      H      -0.3115430000    -3.7395310000     3.7308190000
   21      C       0.1873230000    -2.3066540000    -1.0643660000
   22      S      -0.2571280000    -2.3065010000     1.5211540000
   23      C       0.0000000000    -1.4351850000     0.0000000000
   24      H       0.3659030000    -1.9781380000    -2.0959390000
   25      H       0.0928550000    -9.6140330000    -0.3091310000
   26      C       0.0000000000     0.0000000000     0.0000000000
   27      S       0.1575770000     0.8909370000     1.5075410000
   28      C       0.4298890000     2.4397200000     0.7188730000
   29      C       0.1577970000     0.8905760000    -1.0678720000
   30      C       0.3969150000     2.2600040000    -0.6864100000
   31      S       0.1183070000     0.6502070000    -2.8055160000
   32      C       0.4170360000     2.3762290000    -3.0545300000
   33      C       0.5376160000     3.0742020000    -1.8625510000
   34      F       0.7649920000     4.3913780000    -1.8190880000
   35      C       0.4966960000     2.8171180000    -4.4560840000
   36      O       0.3708740000     2.0575820000    -5.4065100000
   37      O       0.7238610000     4.1484180000    -4.5692250000
   38      C       0.8149760000     4.6350750000    -5.9162070000
   39      H       0.9992860000     5.7205910000    -5.8330640000
   40      H      -0.1259090000     4.4422260000    -6.4701680000
   41      H       1.6455040000     4.1404650000    -6.4592930000
   42      H       0.5889930000     3.3501820000     1.3064860000
 ----------------------------------------------------------------

   10   -2754.3147312979      7.59e-07  Convergence criterion met
 Total energy in the final basis set =    -2754.3147312979
        RIMP2         total energy =     -2759.3678815579 a.u.

                    Orbital Energies (a.u.)
 --------------------------------------------------------------

 Alpha MOs
 -- Occupied --
-92.0164 -92.0000 -91.9911 -91.9864 -26.3437 -20.6149 -20.5931 -20.5910
-20.5614 -11.4096 -11.3831 -11.3202 -11.3175 -11.3108 -11.3017 -11.2999
-11.2980 -11.2977 -11.2888 -11.2878 -11.2871 -11.2861 -11.2854 -11.2843
-11.2795 -11.2624 -11.2587 -11.2559 -11.2500  -9.0151  -8.9999  -8.9918
 -8.9863  -6.6959  -6.6953  -6.6948  -6.6809  -6.6802  -6.6791  -6.6728
 -6.6721  -6.6711  -6.6673  -6.6666  -6.6658  -1.6607  -1.4674  -1.4171
 -1.4137  -1.3701  -1.2225  -1.1952  -1.1665  -1.1371  -1.0859  -1.0524
 -1.0423  -1.0240  -1.0021  -0.9888  -0.9644  -0.9600  -0.9506  -0.9396
 -0.8968  -0.8685  -0.8525  -0.8086  -0.7994  -0.7885  -0.7862  -0.7644
 -0.7555  -0.7347  -0.7256  -0.7103  -0.7022  -0.6861  -0.6838  -0.6811
 -0.6739  -0.6595  -0.6590  -0.6525  -0.6310  -0.6199  -0.6171  -0.6022
 -0.5985  -0.5842  -0.5800  -0.5714  -0.5649  -0.5616  -0.5555  -0.5502
 -0.5359  -0.5304  -0.5244  -0.5197  -0.5168  -0.5109  -0.5058  -0.4960
 -0.4876  -0.4815  -0.4774  -0.4741  -0.4697  -0.4655  -0.4599  -0.4275
 -0.3966  -0.3845  -0.3614  -0.3488  -0.3280  -0.2892  -0.2503

          Ground-State Mulliken Net Atomic Charges

     Atom                 Charge (a.u.)
  ----------------------------------------
      1 C                    -0.189600
      2 C                    -0.254149
      3 S                    -0.021484
      4 C                    -0.017477
      5 H                     0.196177
      6 C                    -0.027259
      7 C                     0.245220
      8 C                     0.243082
      9 C                    -0.039207
     10 C                    -0.029284
     11 O                    -0.332991
     12 O                    -0.340365
     13 C                    -0.086472
     14 H                     0.123557
     15 H                     0.091633
     16 H                     0.093817
     17 C                    -0.088691
     18 H                     0.126230
     19 H                     0.095219
     20 H                     0.089418
     21 C                    -0.217889
     22 S                    -0.041299
     23 C                    -0.009942
     24 H                     0.188554
     25 H                     0.206369
     26 C                     0.013904
     27 S                     0.085669
     28 C                    -0.194430
     29 C                     0.006938
     30 C                    -0.118744
     31 S                     0.009228
     32 C                    -0.163604
     33 C                     0.409409
     34 F                    -0.206497
     35 C                     0.442937
     36 O                    -0.461087
     37 O                    -0.300724
     38 C                    -0.058656
     39 H                     0.121510
     40 H                     0.095280
     41 H                     0.095155
     42 H                     0.220545
  ----------------------------------------
  Sum of atomic charges =     0.000000

                    Cartesian Multipole Moments
 -----------------------------------------------------------------
    Charge (ESU x 10^10)
                 0.0000
    Dipole Moment (Debye)
         X       0.7167      Y       1.1540      Z       3.1368
       Tot       3.4183
    Quadrupole Moments (Debye-Ang)
        XX    -197.7739     XY       1.3806     YY    -159.7029
        XZ     -10.5049     YZ      -7.5600     ZZ    -184.8984

 Total job time:  14727.60s(wall), 11926.10s(cpu)
        *  Thank you very much for using Q-Chem.  Have a nice day.  *
