 Q-Chem 5.4, Q-Chem, Inc., Pleasanton, CA (2021)
 Q-Chem 5.4.0 for Intel X86 EM64T Linux

User input:
--------------------------------------------------------------
$molecule
0 1
C	0.172904	-8.517702	0.270358
C	-0.524688	-7.641575	-0.548363
S	1.180599	-7.638634	1.445750
C	-0.282727	-6.264785	-0.259951
H	-1.203014	-7.966081	-1.347559
C	0.632972	-6.072714	0.833868
C	1.013580	-4.787049	1.248701
C	-0.845068	-5.162801	-0.965673
C	-0.460946	-3.874817	-0.553357
C	0.453541	-3.683952	0.543470
O	-1.714812	-5.499772	-1.958276
O	1.888193	-4.459055	2.245053
C	2.033848	-5.329063	3.360989
H	2.584788	-4.755694	4.130667
H	2.624118	-6.238095	3.112380
H	1.047748	-5.637262	3.770895
C	-2.013896	-4.572261	-2.994272
H	-2.570853	-5.139743	-3.763700
H	-1.090625	-4.153131	-3.448815
H	-2.657717	-3.739531	-2.636780
C	0.694943	-2.306654	0.827659
S	-0.999993	-2.306501	-1.174750
C	-0.000000	-1.435185	-0.000000
H	1.370385	-1.978138	1.627541
H	0.177122	-9.614033	0.269836
C	0.000000	0.000000	0.000000
S	0.309893	0.850039	1.507541
C	0.847011	2.328006	0.718873
C	0.310046	0.849645	-1.067872
C	0.783331	2.156746	-0.686410
S	0.229416	0.619785	-2.805516
C	0.823328	2.267711	-3.054530
C	1.063278	2.934142	-1.862551
F	1.515925	4.191824	-1.819088
C	0.978337	2.688069	-4.456084
O	0.722535	1.961921	-5.406510
O	1.433229	3.959697	-4.569225
C	1.607467	4.423139	-5.916207
H	1.977475	5.460158	-5.833064
H	0.647388	4.396602	-6.470168
H	2.339490	3.791823	-6.459293
H	1.161798	3.197007	1.306486
$end

$rem
JOBTYPE		SP
EXCHANGE	HF
CORRELATION	pRIMP2
BASIS		cc-pvtz
METHOD		rimp2
AUX_BASIS	rimp2-cc-pvtz
SOLVENT_METHOD	PCM
PURECART	11111
SYMMETRY	false
MEM_TOTAL	110000
SCF_CONVERGENCE = 6
THRESH=10
GUI = 2
$end

$solvent
dielectric 4.90
$end
--------------------------------------------------------------

             Standard Nuclear Orientation (Angstroms)
    I     Atom           X                Y                Z
 ----------------------------------------------------------------
    1      C       0.1729040000    -8.5177020000     0.2703580000
    2      C      -0.5246880000    -7.6415750000    -0.5483630000
    3      S       1.1805990000    -7.6386340000     1.4457500000
    4      C      -0.2827270000    -6.2647850000    -0.2599510000
    5      H      -1.2030140000    -7.9660810000    -1.3475590000
    6      C       0.6329720000    -6.0727140000     0.8338680000
    7      C       1.0135800000    -4.7870490000     1.2487010000
    8      C      -0.8450680000    -5.1628010000    -0.9656730000
    9      C      -0.4609460000    -3.8748170000    -0.5533570000
   10      C       0.4535410000    -3.6839520000     0.5434700000
   11      O      -1.7148120000    -5.4997720000    -1.9582760000
   12      O       1.8881930000    -4.4590550000     2.2450530000
   13      C       2.0338480000    -5.3290630000     3.3609890000
   14      H       2.5847880000    -4.7556940000     4.1306670000
   15      H       2.6241180000    -6.2380950000     3.1123800000
   16      H       1.0477480000    -5.6372620000     3.7708950000
   17      C      -2.0138960000    -4.5722610000    -2.9942720000
   18      H      -2.5708530000    -5.1397430000    -3.7637000000
   19      H      -1.0906250000    -4.1531310000    -3.4488150000
   20      H      -2.6577170000    -3.7395310000    -2.6367800000
   21      C       0.6949430000    -2.3066540000     0.8276590000
   22      S      -0.9999930000    -2.3065010000    -1.1747500000
   23      C       0.0000000000    -1.4351850000     0.0000000000
   24      H       1.3703850000    -1.9781380000     1.6275410000
   25      H       0.1771220000    -9.6140330000     0.2698360000
   26      C       0.0000000000     0.0000000000     0.0000000000
   27      S       0.3098930000     0.8500390000     1.5075410000
   28      C       0.8470110000     2.3280060000     0.7188730000
   29      C       0.3100460000     0.8496450000    -1.0678720000
   30      C       0.7833310000     2.1567460000    -0.6864100000
   31      S       0.2294160000     0.6197850000    -2.8055160000
   32      C       0.8233280000     2.2677110000    -3.0545300000
   33      C       1.0632780000     2.9341420000    -1.8625510000
   34      F       1.5159250000     4.1918240000    -1.8190880000
   35      C       0.9783370000     2.6880690000    -4.4560840000
   36      O       0.7225350000     1.9619210000    -5.4065100000
   37      O       1.4332290000     3.9596970000    -4.5692250000
   38      C       1.6074670000     4.4231390000    -5.9162070000
   39      H       1.9774750000     5.4601580000    -5.8330640000
   40      H       0.6473880000     4.3966020000    -6.4701680000
   41      H       2.3394900000     3.7918230000    -6.4592930000
   42      H       1.1617980000     3.1970070000     1.3064860000
 ----------------------------------------------------------------

   10   -2754.3100120802      6.97e-07  Convergence criterion met
 Total energy in the final basis set =    -2754.3100120802
        RIMP2         total energy =     -2759.3630492091 a.u.

                    Orbital Energies (a.u.)
 --------------------------------------------------------------

 Alpha MOs
 -- Occupied --
-92.0155 -91.9989 -91.9899 -91.9860 -26.3433 -20.6146 -20.5922 -20.5910
-20.5610 -11.4092 -11.3825 -11.3194 -11.3167 -11.3119 -11.3030 -11.2976
-11.2970 -11.2965 -11.2887 -11.2865 -11.2860 -11.2856 -11.2853 -11.2839
-11.2789 -11.2612 -11.2579 -11.2543 -11.2497  -9.0139  -8.9989  -8.9904
 -8.9859  -6.6947  -6.6941  -6.6936  -6.6799  -6.6792  -6.6781  -6.6714
 -6.6707  -6.6697  -6.6669  -6.6663  -6.6654  -1.6604  -1.4671  -1.4162
 -1.4138  -1.3698  -1.2225  -1.1942  -1.1656  -1.1363  -1.0852  -1.0516
 -1.0417  -1.0236  -1.0014  -0.9879  -0.9638  -0.9587  -0.9498  -0.9403
 -0.8954  -0.8679  -0.8508  -0.8140  -0.7919  -0.7871  -0.7869  -0.7648
 -0.7553  -0.7335  -0.7252  -0.7102  -0.6991  -0.6853  -0.6831  -0.6813
 -0.6737  -0.6591  -0.6578  -0.6524  -0.6303  -0.6197  -0.6165  -0.6038
 -0.5983  -0.5874  -0.5765  -0.5689  -0.5674  -0.5631  -0.5548  -0.5530
 -0.5313  -0.5285  -0.5223  -0.5169  -0.5165  -0.5103  -0.5056  -0.4943
 -0.4885  -0.4791  -0.4765  -0.4735  -0.4702  -0.4652  -0.4601  -0.4194
 -0.3946  -0.3859  -0.3600  -0.3493  -0.3227  -0.2924  -0.2527

          Ground-State Mulliken Net Atomic Charges

     Atom                 Charge (a.u.)
  ----------------------------------------
      1 C                    -0.190565
      2 C                    -0.253340
      3 S                    -0.022989
      4 C                    -0.016897
      5 H                     0.196340
      6 C                    -0.027531
      7 C                     0.237987
      8 C                     0.244937
      9 C                    -0.043776
     10 C                    -0.022946
     11 O                    -0.333260
     12 O                    -0.340614
     13 C                    -0.085705
     14 H                     0.122178
     15 H                     0.091200
     16 H                     0.093686
     17 C                    -0.087861
     18 H                     0.125072
     19 H                     0.095788
     20 H                     0.089888
     21 C                    -0.248339
     22 S                    -0.014047
     23 C                    -0.013221
     24 H                     0.196905
     25 H                     0.206114
     26 C                    -0.026429
     27 S                     0.092638
     28 C                    -0.175027
     29 C                     0.021874
     30 C                    -0.113754
     31 S                     0.012586
     32 C                    -0.155610
     33 C                     0.396041
     34 F                    -0.206379
     35 C                     0.445624
     36 O                    -0.460978
     37 O                    -0.300890
     38 C                    -0.058449
     39 H                     0.121298
     40 H                     0.095043
     41 H                     0.095097
     42 H                     0.218310
  ----------------------------------------
  Sum of atomic charges =     0.000000

                    Cartesian Multipole Moments
 -----------------------------------------------------------------
    Charge (ESU x 10^10)
                -0.0000
    Dipole Moment (Debye)
         X       0.6926      Y       1.2174      Z       2.9493
       Tot       3.2649
    Quadrupole Moments (Debye-Ang)
        XX    -195.2813     XY       6.3891     YY    -162.7743
        XZ       7.6129     YZ      -7.6621     ZZ    -186.1673

 Total job time:  321.18s(wall), 9205.89s(cpu)
        *  Thank you very much for using Q-Chem.  Have a nice day.  *
