 Q-Chem 5.4, Q-Chem, Inc., Pleasanton, CA (2021)
 Q-Chem 5.4.0 for Intel X86 EM64T Linux

User input:
--------------------------------------------------------------
$molecule
0 1
C	0.217225	-8.517702	0.236226
C	-0.611939	-7.641575	-0.448921
S	1.413715	-7.638634	1.218777
C	-0.323572	-6.264785	-0.206907
H	-1.418739	-7.966081	-1.118185
C	0.768156	-6.072714	0.711285
C	1.215016	-4.787049	1.053725
C	-0.999917	-5.162801	-0.804258
C	-0.550033	-3.874817	-0.464908
C	0.541024	-3.683952	0.456457
O	-2.028811	-5.499772	-1.630752
O	2.249357	-4.459055	1.883064
C	2.586579	-5.329063	2.956754
H	3.262802	-4.755694	3.619069
H	3.124711	-6.238095	2.609423
H	1.686639	-5.637262	3.531667
C	-2.503251	-4.572261	-2.599073
H	-3.185356	-5.139743	-3.260097
H	-1.672937	-4.153131	-3.207034
H	-3.075213	-3.739531	-2.135214
C	0.828107	-2.306654	0.694410
S	-1.188794	-2.306501	-0.983256
C	0.000000	-1.435185	0.000000
H	1.632185	-1.978138	1.364851
H	0.221288	-9.614033	0.234980
C	0.000000	0.000000	0.000000
S	0.234628	0.873813	1.507541
C	0.640889	2.392969	0.718873
C	0.234815	0.873434	-1.067872
C	0.592377	2.216811	-0.686410
S	0.174526	0.637422	-2.805516
C	0.622551	2.330840	-3.054530
C	0.803505	3.015647	-1.862551
F	1.144815	4.307994	-1.819088
C	0.740334	2.763108	-4.456084
O	0.548793	2.017428	-5.406510
O	1.082665	4.069544	-4.569225
C	1.215848	4.546407	-5.916207
H	1.494066	5.611729	-5.833064
H	0.261736	4.436296	-6.470168
H	2.000108	3.981294	-6.459293
H	0.878739	3.286099	1.306486
$end

$rem
JOBTYPE		SP
EXCHANGE	HF
CORRELATION	pRIMP2
BASIS		cc-pvtz
METHOD		rimp2
AUX_BASIS	rimp2-cc-pvtz
SOLVENT_METHOD	PCM
PURECART	11111
SYMMETRY	false
MEM_TOTAL	110000
SCF_CONVERGENCE = 6
THRESH=10
GUI = 2
$end

$solvent
dielectric 4.90
$end
--------------------------------------------------------------

             Standard Nuclear Orientation (Angstroms)
    I     Atom           X                Y                Z
 ----------------------------------------------------------------
    1      C       0.2172250000    -8.5177020000     0.2362260000
    2      C      -0.6119390000    -7.6415750000    -0.4489210000
    3      S       1.4137150000    -7.6386340000     1.2187770000
    4      C      -0.3235720000    -6.2647850000    -0.2069070000
    5      H      -1.4187390000    -7.9660810000    -1.1181850000
    6      C       0.7681560000    -6.0727140000     0.7112850000
    7      C       1.2150160000    -4.7870490000     1.0537250000
    8      C      -0.9999170000    -5.1628010000    -0.8042580000
    9      C      -0.5500330000    -3.8748170000    -0.4649080000
   10      C       0.5410240000    -3.6839520000     0.4564570000
   11      O      -2.0288110000    -5.4997720000    -1.6307520000
   12      O       2.2493570000    -4.4590550000     1.8830640000
   13      C       2.5865790000    -5.3290630000     2.9567540000
   14      H       3.2628020000    -4.7556940000     3.6190690000
   15      H       3.1247110000    -6.2380950000     2.6094230000
   16      H       1.6866390000    -5.6372620000     3.5316670000
   17      C      -2.5032510000    -4.5722610000    -2.5990730000
   18      H      -3.1853560000    -5.1397430000    -3.2600970000
   19      H      -1.6729370000    -4.1531310000    -3.2070340000
   20      H      -3.0752130000    -3.7395310000    -2.1352140000
   21      C       0.8281070000    -2.3066540000     0.6944100000
   22      S      -1.1887940000    -2.3065010000    -0.9832560000
   23      C       0.0000000000    -1.4351850000     0.0000000000
   24      H       1.6321850000    -1.9781380000     1.3648510000
   25      H       0.2212880000    -9.6140330000     0.2349800000
   26      C       0.0000000000     0.0000000000     0.0000000000
   27      S       0.2346280000     0.8738130000     1.5075410000
   28      C       0.6408890000     2.3929690000     0.7188730000
   29      C       0.2348150000     0.8734340000    -1.0678720000
   30      C       0.5923770000     2.2168110000    -0.6864100000
   31      S       0.1745260000     0.6374220000    -2.8055160000
   32      C       0.6225510000     2.3308400000    -3.0545300000
   33      C       0.8035050000     3.0156470000    -1.8625510000
   34      F       1.1448150000     4.3079940000    -1.8190880000
   35      C       0.7403340000     2.7631080000    -4.4560840000
   36      O       0.5487930000     2.0174280000    -5.4065100000
   37      O       1.0826650000     4.0695440000    -4.5692250000
   38      C       1.2158480000     4.5464070000    -5.9162070000
   39      H       1.4940660000     5.6117290000    -5.8330640000
   40      H       0.2617360000     4.4362960000    -6.4701680000
   41      H       2.0001080000     3.9812940000    -6.4592930000
   42      H       0.8787390000     3.2860990000     1.3064860000
 ----------------------------------------------------------------

   10   -2754.3124858849      6.96e-07  Convergence criterion met
 Total energy in the final basis set =    -2754.3124858849
        RIMP2         total energy =     -2759.3641354111 a.u.

                    Orbital Energies (a.u.)
 --------------------------------------------------------------

 Alpha MOs
 -- Occupied --
-92.0156 -91.9979 -91.9898 -91.9863 -26.3430 -20.6145 -20.5923 -20.5915
-20.5608 -11.4090 -11.3819 -11.3194 -11.3176 -11.3099 -11.3014 -11.2977
-11.2967 -11.2953 -11.2886 -11.2866 -11.2863 -11.2860 -11.2846 -11.2841
-11.2795 -11.2612 -11.2586 -11.2563 -11.2499  -9.0139  -8.9979  -8.9902
 -8.9863  -6.6946  -6.6940  -6.6935  -6.6789  -6.6782  -6.6771  -6.6712
 -6.6705  -6.6695  -6.6672  -6.6666  -6.6658  -1.6600  -1.4669  -1.4164
 -1.4142  -1.3696  -1.2213  -1.1945  -1.1656  -1.1357  -1.0850  -1.0519
 -1.0412  -1.0228  -1.0017  -0.9879  -0.9633  -0.9590  -0.9500  -0.9397
 -0.8956  -0.8673  -0.8511  -0.8128  -0.7917  -0.7879  -0.7869  -0.7650
 -0.7551  -0.7338  -0.7249  -0.7097  -0.6994  -0.6850  -0.6833  -0.6808
 -0.6735  -0.6592  -0.6575  -0.6526  -0.6305  -0.6200  -0.6167  -0.6040
 -0.5976  -0.5867  -0.5765  -0.5694  -0.5672  -0.5626  -0.5549  -0.5530
 -0.5311  -0.5289  -0.5226  -0.5168  -0.5159  -0.5098  -0.5052  -0.4944
 -0.4890  -0.4788  -0.4764  -0.4732  -0.4705  -0.4654  -0.4606  -0.4152
 -0.3961  -0.3861  -0.3593  -0.3484  -0.3215  -0.2929  -0.2550

          Ground-State Mulliken Net Atomic Charges

     Atom                 Charge (a.u.)
  ----------------------------------------
      1 C                    -0.189287
      2 C                    -0.253513
      3 S                    -0.022579
      4 C                    -0.016037
      5 H                     0.196455
      6 C                    -0.028015
      7 C                     0.239746
      8 C                     0.243998
      9 C                    -0.045900
     10 C                    -0.026087
     11 O                    -0.333388
     12 O                    -0.340293
     13 C                    -0.085726
     14 H                     0.122423
     15 H                     0.091163
     16 H                     0.093837
     17 C                    -0.087409
     18 H                     0.124897
     19 H                     0.095788
     20 H                     0.089833
     21 C                    -0.236250
     22 S                    -0.006214
     23 C                    -0.022362
     24 H                     0.199413
     25 H                     0.206330
     26 C                    -0.028944
     27 S                     0.099299
     28 C                    -0.182458
     29 C                     0.014339
     30 C                    -0.110691
     31 S                     0.009686
     32 C                    -0.152255
     33 C                     0.393156
     34 F                    -0.206697
     35 C                     0.445063
     36 O                    -0.461013
     37 O                    -0.300758
     38 C                    -0.058479
     39 H                     0.121254
     40 H                     0.094982
     41 H                     0.095058
     42 H                     0.217635
  ----------------------------------------
  Sum of atomic charges =     0.000000

                    Cartesian Multipole Moments
 -----------------------------------------------------------------
    Charge (ESU x 10^10)
                -0.0000
    Dipole Moment (Debye)
         X       0.4570      Y       1.0264      Z       3.0907
       Tot       3.2885
    Quadrupole Moments (Debye-Ang)
        XX    -192.1572     XY       4.8711     YY    -161.1640
        XZ      10.2602     YZ      -8.1955     ZZ    -190.2376

 Total job time:  319.99s(wall), 10892.37s(cpu)
        *  Thank you very much for using Q-Chem.  Have a nice day.  *
