 Q-Chem 5.4, Q-Chem, Inc., Pleasanton, CA (2021)
 Q-Chem 5.4.0 for Intel X86 EM64T Linux

User input:
--------------------------------------------------------------
$molecule
0 1
C	0.320589	-8.517702	-0.014560
C	-0.737240	-7.641575	0.180211
S	1.842356	-7.638634	-0.299553
C	-0.366488	-6.264785	0.114873
H	-1.768528	-7.966081	0.368061
C	1.038637	-6.072714	-0.131236
C	1.588197	-4.787049	-0.253435
C	-1.258831	-5.162801	0.249014
C	-0.709695	-3.874817	0.122513
C	0.697430	-3.683952	-0.121043
O	-2.553323	-5.499772	0.505933
O	2.888369	-4.459055	-0.512697
C	3.927625	-5.329063	-0.080869
H	4.869656	-4.755694	-0.173159
H	4.007459	-6.238095	-0.716363
H	3.789565	-5.637262	0.978072
C	-3.600064	-4.572261	0.246949
H	-4.544887	-5.139743	0.344574
H	-3.532074	-4.153131	-0.779898
H	-3.612378	-3.739531	0.983261
C	1.064246	-2.306654	-0.188009
S	-1.517360	-2.306501	0.278644
C	-0.000000	-1.435185	-0.000000
H	2.094685	-1.978138	-0.373017
H	0.322246	-9.614033	-0.018474
C	0.000000	0.000000	0.000000
S	0.382799	0.819795	1.507541
C	1.046687	2.245325	0.718873
C	0.382918	0.819389	-1.067872
C	0.968323	2.080267	-0.686410
S	0.282561	0.597432	-2.805516
C	1.017839	2.187324	-3.054530
C	1.314960	2.830306	-1.862551
F	1.875498	4.043751	-1.819088
C	1.208895	2.592573	-4.456084
O	0.890778	1.891482	-5.406510
O	1.772886	3.819715	-4.569225
C	1.986852	4.266207	-5.916207
H	2.445834	5.267032	-5.833064
H	1.028114	4.323448	-6.470168
H	2.661066	3.573494	-6.459293
H	1.436015	3.083584	1.306486
$end

$rem
JOBTYPE		SP
EXCHANGE	HF
CORRELATION	pRIMP2
BASIS		cc-pvtz
METHOD		rimp2
AUX_BASIS	rimp2-cc-pvtz
SOLVENT_METHOD	PCM
PURECART	11111
SYMMETRY	false
MEM_TOTAL	110000
SCF_CONVERGENCE = 6
THRESH=10
GUI = 2
$end

$solvent
dielectric 4.90
$end
--------------------------------------------------------------

             Standard Nuclear Orientation (Angstroms)
    I     Atom           X                Y                Z
 ----------------------------------------------------------------
    1      C       0.3205890000    -8.5177020000    -0.0145600000
    2      C      -0.7372400000    -7.6415750000     0.1802110000
    3      S       1.8423560000    -7.6386340000    -0.2995530000
    4      C      -0.3664880000    -6.2647850000     0.1148730000
    5      H      -1.7685280000    -7.9660810000     0.3680610000
    6      C       1.0386370000    -6.0727140000    -0.1312360000
    7      C       1.5881970000    -4.7870490000    -0.2534350000
    8      C      -1.2588310000    -5.1628010000     0.2490140000
    9      C      -0.7096950000    -3.8748170000     0.1225130000
   10      C       0.6974300000    -3.6839520000    -0.1210430000
   11      O      -2.5533230000    -5.4997720000     0.5059330000
   12      O       2.8883690000    -4.4590550000    -0.5126970000
   13      C       3.9276250000    -5.3290630000    -0.0808690000
   14      H       4.8696560000    -4.7556940000    -0.1731590000
   15      H       4.0074590000    -6.2380950000    -0.7163630000
   16      H       3.7895650000    -5.6372620000     0.9780720000
   17      C      -3.6000640000    -4.5722610000     0.2469490000
   18      H      -4.5448870000    -5.1397430000     0.3445740000
   19      H      -3.5320740000    -4.1531310000    -0.7798980000
   20      H      -3.6123780000    -3.7395310000     0.9832610000
   21      C       1.0642460000    -2.3066540000    -0.1880090000
   22      S      -1.5173600000    -2.3065010000     0.2786440000
   23      C       0.0000000000    -1.4351850000     0.0000000000
   24      H       2.0946850000    -1.9781380000    -0.3730170000
   25      H       0.3222460000    -9.6140330000    -0.0184740000
   26      C       0.0000000000     0.0000000000     0.0000000000
   27      S       0.3827990000     0.8197950000     1.5075410000
   28      C       1.0466870000     2.2453250000     0.7188730000
   29      C       0.3829180000     0.8193890000    -1.0678720000
   30      C       0.9683230000     2.0802670000    -0.6864100000
   31      S       0.2825610000     0.5974320000    -2.8055160000
   32      C       1.0178390000     2.1873240000    -3.0545300000
   33      C       1.3149600000     2.8303060000    -1.8625510000
   34      F       1.8754980000     4.0437510000    -1.8190880000
   35      C       1.2088950000     2.5925730000    -4.4560840000
   36      O       0.8907780000     1.8914820000    -5.4065100000
   37      O       1.7728860000     3.8197150000    -4.5692250000
   38      C       1.9868520000     4.2662070000    -5.9162070000
   39      H       2.4458340000     5.2670320000    -5.8330640000
   40      H       1.0281140000     4.3234480000    -6.4701680000
   41      H       2.6610660000     3.5734940000    -6.4592930000
   42      H       1.4360150000     3.0835840000     1.3064860000
 ----------------------------------------------------------------

   10   -2754.3032677803      7.74e-07  Convergence criterion met
 Total energy in the final basis set =    -2754.3032677803
        RIMP2         total energy =     -2759.3553570046 a.u.

                    Orbital Energies (a.u.)
 --------------------------------------------------------------

 Alpha MOs
 -- Occupied --
-92.0139 -91.9982 -91.9865 -91.9859 -26.3431 -20.6143 -20.5919 -20.5911
-20.5605 -11.4087 -11.3821 -11.3184 -11.3174 -11.3134 -11.3035 -11.2964
-11.2915 -11.2906 -11.2885 -11.2865 -11.2860 -11.2848 -11.2839 -11.2834
-11.2795 -11.2599 -11.2584 -11.2562 -11.2497  -9.0124  -8.9982  -8.9870
 -8.9859  -6.6931  -6.6925  -6.6920  -6.6792  -6.6784  -6.6773  -6.6679
 -6.6672  -6.6669  -6.6663  -6.6662  -6.6654  -1.6602  -1.4667  -1.4160
 -1.4139  -1.3694  -1.2213  -1.1935  -1.1646  -1.1355  -1.0838  -1.0512
 -1.0413  -1.0221  -1.0005  -0.9872  -0.9612  -0.9602  -0.9498  -0.9388
 -0.8948  -0.8671  -0.8494  -0.8093  -0.7944  -0.7882  -0.7858  -0.7642
 -0.7549  -0.7332  -0.7250  -0.7094  -0.7007  -0.6846  -0.6826  -0.6802
 -0.6734  -0.6588  -0.6571  -0.6523  -0.6296  -0.6197  -0.6167  -0.6052
 -0.5975  -0.5850  -0.5755  -0.5703  -0.5664  -0.5616  -0.5532  -0.5520
 -0.5305  -0.5283  -0.5232  -0.5158  -0.5142  -0.5084  -0.5037  -0.4943
 -0.4888  -0.4798  -0.4746  -0.4730  -0.4691  -0.4654  -0.4604  -0.4048
 -0.3964  -0.3866  -0.3580  -0.3471  -0.3146  -0.2991  -0.2577

          Ground-State Mulliken Net Atomic Charges

     Atom                 Charge (a.u.)
  ----------------------------------------
      1 C                    -0.188958
      2 C                    -0.254182
      3 S                    -0.022835
      4 C                    -0.015792
      5 H                     0.196251
      6 C                    -0.029103
      7 C                     0.240876
      8 C                     0.243966
      9 C                    -0.053124
     10 C                    -0.018290
     11 O                    -0.333683
     12 O                    -0.339950
     13 C                    -0.085680
     14 H                     0.122451
     15 H                     0.091205
     16 H                     0.093671
     17 C                    -0.086166
     18 H                     0.124462
     19 H                     0.094806
     20 H                     0.089413
     21 C                    -0.201789
     22 S                    -0.001583
     23 C                    -0.034719
     24 H                     0.198952
     25 H                     0.206279
     26 C                    -0.058500
     27 S                     0.110746
     28 C                    -0.180470
     29 C                    -0.026506
     30 C                    -0.084201
     31 S                     0.018726
     32 C                    -0.154842
     33 C                     0.390209
     34 F                    -0.206591
     35 C                     0.446814
     36 O                    -0.461485
     37 O                    -0.300995
     38 C                    -0.058447
     39 H                     0.121182
     40 H                     0.095083
     41 H                     0.095009
     42 H                     0.217791
  ----------------------------------------
  Sum of atomic charges =     0.000000

                    Cartesian Multipole Moments
 -----------------------------------------------------------------
    Charge (ESU x 10^10)
                 0.0000
    Dipole Moment (Debye)
         X       1.3007      Y       1.0729      Z       3.2248
       Tot       3.6390
    Quadrupole Moments (Debye-Ang)
        XX    -174.2686     XY       5.5033     YY    -163.4601
        XZ      -1.4541     YZ      -7.8594     ZZ    -206.4250

 Total job time:  300.63s(wall), 9791.22s(cpu)
        *  Thank you very much for using Q-Chem.  Have a nice day.  *
