 Q-Chem 5.4, Q-Chem, Inc., Pleasanton, CA (2021)
 Q-Chem 5.4.0 for Intel X86 EM64T Linux

User input:
--------------------------------------------------------------
$molecule
0 1
C	0.270358	-8.517702	-0.172904
C	-0.548363	-7.641575	0.524688
S	1.445750	-7.638634	-1.180599
C	-0.259951	-6.264785	0.282727
H	-1.347559	-7.966081	1.203014
C	0.833868	-6.072714	-0.632972
C	1.248701	-4.787049	-1.013580
C	-0.965673	-5.162801	0.845068
C	-0.553357	-3.874817	0.460946
C	0.543470	-3.683952	-0.453541
O	-1.958276	-5.499772	1.714812
O	2.245053	-4.459055	-1.888193
C	3.360989	-5.329063	-2.033848
H	4.130667	-4.755694	-2.584788
H	3.112380	-6.238095	-2.624118
H	3.770895	-5.637262	-1.047748
C	-2.994272	-4.572261	2.013896
H	-3.763700	-5.139743	2.570853
H	-3.448815	-4.153131	1.090625
H	-2.636780	-3.739531	2.657717
C	0.827659	-2.306654	-0.694943
S	-1.174750	-2.306501	0.999993
C	0.000000	-1.435185	0.000000
H	1.627541	-1.978138	-1.370385
H	0.269836	-9.614033	-0.177122
C	0.000000	0.000000	0.000000
S	0.693394	0.581209	1.507541
C	1.897536	1.592607	0.718873
C	0.693330	0.580791	-1.067872
C	1.756758	1.476132	-0.686410
S	0.508573	0.422041	-2.805516
C	1.846879	1.552232	-3.054530
C	2.387897	2.009402	-1.862551
F	3.408741	2.872264	-1.819088
C	2.191300	1.838768	-4.456084
O	1.606694	1.337806	-5.406510
O	3.221062	2.712584	-4.569225
C	3.603677	3.026817	-5.916207
H	4.442623	3.739898	-5.833064
H	2.758956	3.483875	-6.470168
H	3.921969	2.114070	-6.459293
H	2.604650	2.187790	1.306486
$end

$rem
JOBTYPE		SP
EXCHANGE	HF
CORRELATION	pRIMP2
BASIS		cc-pvtz
METHOD		rimp2
AUX_BASIS	rimp2-cc-pvtz
SOLVENT_METHOD	PCM
PURECART	11111
SYMMETRY	false
MEM_TOTAL	110000
SCF_CONVERGENCE = 6
THRESH=10
GUI = 2
$end

$solvent
dielectric 4.90
$end
--------------------------------------------------------------

             Standard Nuclear Orientation (Angstroms)
    I     Atom           X                Y                Z
 ----------------------------------------------------------------
    1      C       0.2703580000    -8.5177020000    -0.1729040000
    2      C      -0.5483630000    -7.6415750000     0.5246880000
    3      S       1.4457500000    -7.6386340000    -1.1805990000
    4      C      -0.2599510000    -6.2647850000     0.2827270000
    5      H      -1.3475590000    -7.9660810000     1.2030140000
    6      C       0.8338680000    -6.0727140000    -0.6329720000
    7      C       1.2487010000    -4.7870490000    -1.0135800000
    8      C      -0.9656730000    -5.1628010000     0.8450680000
    9      C      -0.5533570000    -3.8748170000     0.4609460000
   10      C       0.5434700000    -3.6839520000    -0.4535410000
   11      O      -1.9582760000    -5.4997720000     1.7148120000
   12      O       2.2450530000    -4.4590550000    -1.8881930000
   13      C       3.3609890000    -5.3290630000    -2.0338480000
   14      H       4.1306670000    -4.7556940000    -2.5847880000
   15      H       3.1123800000    -6.2380950000    -2.6241180000
   16      H       3.7708950000    -5.6372620000    -1.0477480000
   17      C      -2.9942720000    -4.5722610000     2.0138960000
   18      H      -3.7637000000    -5.1397430000     2.5708530000
   19      H      -3.4488150000    -4.1531310000     1.0906250000
   20      H      -2.6367800000    -3.7395310000     2.6577170000
   21      C       0.8276590000    -2.3066540000    -0.6949430000
   22      S      -1.1747500000    -2.3065010000     0.9999930000
   23      C       0.0000000000    -1.4351850000     0.0000000000
   24      H       1.6275410000    -1.9781380000    -1.3703850000
   25      H       0.2698360000    -9.6140330000    -0.1771220000
   26      C       0.0000000000     0.0000000000     0.0000000000
   27      S       0.6933940000     0.5812090000     1.5075410000
   28      C       1.8975360000     1.5926070000     0.7188730000
   29      C       0.6933300000     0.5807910000    -1.0678720000
   30      C       1.7567580000     1.4761320000    -0.6864100000
   31      S       0.5085730000     0.4220410000    -2.8055160000
   32      C       1.8468790000     1.5522320000    -3.0545300000
   33      C       2.3878970000     2.0094020000    -1.8625510000
   34      F       3.4087410000     2.8722640000    -1.8190880000
   35      C       2.1913000000     1.8387680000    -4.4560840000
   36      O       1.6066940000     1.3378060000    -5.4065100000
   37      O       3.2210620000     2.7125840000    -4.5692250000
   38      C       3.6036770000     3.0268170000    -5.9162070000
   39      H       4.4426230000     3.7398980000    -5.8330640000
   40      H       2.7589560000     3.4838750000    -6.4701680000
   41      H       3.9219690000     2.1140700000    -6.4592930000
   42      H       2.6046500000     2.1877900000     1.3064860000
 ----------------------------------------------------------------

   10   -2754.2728850707      9.60e-07  Convergence criterion met
 Total energy in the final basis set =    -2754.2728850707
        RIMP2         total energy =     -2759.3327892211 a.u.

                    Orbital Energies (a.u.)
 --------------------------------------------------------------

 Alpha MOs
 -- Occupied --
-92.0145 -92.0048 -91.9842 -91.9828 -26.3452 -20.6154 -20.5909 -20.5885
-20.5619 -11.4103 -11.3852 -11.3286 -11.3169 -11.3143 -11.3130 -11.2985
-11.2937 -11.2893 -11.2880 -11.2859 -11.2846 -11.2818 -11.2809 -11.2779
-11.2766 -11.2578 -11.2547 -11.2482 -11.2452  -9.0137  -9.0045  -8.9841
 -8.9836  -6.6943  -6.6935  -6.6932  -6.6855  -6.6847  -6.6837  -6.6651
 -6.6646  -6.6645  -6.6639  -6.6636  -6.6630  -1.6623  -1.4679  -1.4148
 -1.4114  -1.3707  -1.2295  -1.1910  -1.1642  -1.1388  -1.0844  -1.0489
 -1.0444  -1.0256  -0.9978  -0.9869  -0.9641  -0.9583  -0.9488  -0.9396
 -0.8932  -0.8704  -0.8453  -0.8104  -0.7975  -0.7875  -0.7837  -0.7626
 -0.7558  -0.7314  -0.7271  -0.7122  -0.7004  -0.6860  -0.6820  -0.6803
 -0.6745  -0.6592  -0.6574  -0.6507  -0.6288  -0.6181  -0.6162  -0.6073
 -0.6004  -0.5843  -0.5736  -0.5699  -0.5652  -0.5613  -0.5549  -0.5463
 -0.5315  -0.5262  -0.5215  -0.5159  -0.5131  -0.5080  -0.5055  -0.4946
 -0.4865  -0.4830  -0.4757  -0.4738  -0.4676  -0.4636  -0.4581  -0.4121
 -0.3917  -0.3841  -0.3565  -0.3517  -0.3232  -0.2932  -0.2512

          Ground-State Mulliken Net Atomic Charges

     Atom                 Charge (a.u.)
  ----------------------------------------
      1 C                    -0.194659
      2 C                    -0.253937
      3 S                    -0.026326
      4 C                    -0.020109
      5 H                     0.195544
      6 C                    -0.025377
      7 C                     0.234790
      8 C                     0.244956
      9 C                    -0.044144
     10 C                    -0.023249
     11 O                    -0.333709
     12 O                    -0.341114
     13 C                    -0.085808
     14 H                     0.121658
     15 H                     0.090943
     16 H                     0.092716
     17 C                    -0.087162
     18 H                     0.124957
     19 H                     0.094533
     20 H                     0.089232
     21 C                    -0.253547
     22 S                    -0.039239
     23 C                     0.023857
     24 H                     0.198170
     25 H                     0.205201
     26 C                    -0.136428
     27 S                     0.125684
     28 C                    -0.145887
     29 C                     0.003969
     30 C                    -0.089367
     31 S                     0.056294
     32 C                    -0.152399
     33 C                     0.397442
     34 F                    -0.205688
     35 C                     0.446781
     36 O                    -0.461440
     37 O                    -0.301106
     38 C                    -0.058224
     39 H                     0.121438
     40 H                     0.095349
     41 H                     0.095258
     42 H                     0.220146
  ----------------------------------------
  Sum of atomic charges =     0.000000

                    Cartesian Multipole Moments
 -----------------------------------------------------------------
    Charge (ESU x 10^10)
                -0.0000
    Dipole Moment (Debye)
         X       3.0027      Y       1.8131      Z       2.9685
       Tot       4.5951
    Quadrupole Moments (Debye-Ang)
        XX    -172.1462     XY       8.1733     YY    -175.2909
        XZ     -15.1600     YZ      -5.7939     ZZ    -200.2332

 Total job time:  314.48s(wall), 9737.67s(cpu)
        *  Thank you very much for using Q-Chem.  Have a nice day.  *
