 Q-Chem 5.4, Q-Chem, Inc., Pleasanton, CA (2021)
 Q-Chem 5.4.0 for Intel X86 EM64T Linux

User input:
--------------------------------------------------------------
$molecule
0 1
C	0.701193	-8.488892	0.318247
C	0.616742	-7.616807	-0.757333
S	0.640926	-7.611739	1.866383
C	0.496713	-6.245258	-0.380867
H	0.639132	-7.940593	-1.805573
C	0.478351	-6.054060	1.045647
C	0.391116	-4.771116	1.608077
C	0.423432	-5.145477	-1.282948
C	0.340289	-3.859847	-0.720187
C	0.319182	-3.670099	0.707853
O	0.424679	-5.483626	-2.602386
O	0.391967	-4.441795	2.933517
C	-0.135633	-5.361285	3.881999
H	-0.258024	-4.796434	4.825744
H	0.553241	-6.213521	4.070972
H	-1.123774	-5.757113	3.562152
C	0.778992	-4.521574	-3.588253
H	0.896118	-5.080975	-4.535674
H	1.738100	-4.016931	-3.342986
H	-0.013821	-3.755025	-3.728239
C	0.201385	-2.297846	1.080725
S	0.190142	-2.298676	-1.542694
C	0.125085	-1.429724	0.000000
H	0.176004	-1.970295	2.127635
H	0.800298	-9.580740	0.320559
C	0.000000	0.000000	0.000000
S	0.000474	0.904764	1.507541
C	-0.000295	2.477305	0.718873
C	0.000752	0.904447	-1.067872
C	-0.001560	2.294593	-0.686410
S	0.003602	0.660872	-2.805516
C	-0.001928	2.412546	-3.054530
C	-0.004381	3.120854	-1.862551
F	-0.009185	4.457503	-1.819088
C	-0.000038	2.860570	-4.456084
O	0.007944	2.090724	-5.406510
O	-0.007501	4.211092	-4.569225
C	-0.002278	4.706177	-5.916207
H	-0.009265	5.807207	-5.833064
H	-0.895381	4.352875	-6.470168
H	0.901521	4.363301	-6.459293
H	-0.001708	3.401562	1.306486
$end

$rem
JOBTYPE		SP
EXCHANGE	HF
CORRELATION	pRIMP2
BASIS		cc-pvtz
METHOD		rimp2
AUX_BASIS	rimp2-cc-pvtz
SOLVENT_METHOD	PCM
PURECART	11111
SYMMETRY	false
MEM_TOTAL	110000
SCF_CONVERGENCE = 6
THRESH=10
GUI = 2
$end

$solvent
dielectric 4.90
$end
--------------------------------------------------------------

             Standard Nuclear Orientation (Angstroms)
    I     Atom           X                Y                Z
 ----------------------------------------------------------------
    1      C       0.7011930000    -8.4888920000     0.3182470000
    2      C       0.6167420000    -7.6168070000    -0.7573330000
    3      S       0.6409260000    -7.6117390000     1.8663830000
    4      C       0.4967130000    -6.2452580000    -0.3808670000
    5      H       0.6391320000    -7.9405930000    -1.8055730000
    6      C       0.4783510000    -6.0540600000     1.0456470000
    7      C       0.3911160000    -4.7711160000     1.6080770000
    8      C       0.4234320000    -5.1454770000    -1.2829480000
    9      C       0.3402890000    -3.8598470000    -0.7201870000
   10      C       0.3191820000    -3.6700990000     0.7078530000
   11      O       0.4246790000    -5.4836260000    -2.6023860000
   12      O       0.3919670000    -4.4417950000     2.9335170000
   13      C      -0.1356330000    -5.3612850000     3.8819990000
   14      H      -0.2580240000    -4.7964340000     4.8257440000
   15      H       0.5532410000    -6.2135210000     4.0709720000
   16      H      -1.1237740000    -5.7571130000     3.5621520000
   17      C       0.7789920000    -4.5215740000    -3.5882530000
   18      H       0.8961180000    -5.0809750000    -4.5356740000
   19      H       1.7381000000    -4.0169310000    -3.3429860000
   20      H      -0.0138210000    -3.7550250000    -3.7282390000
   21      C       0.2013850000    -2.2978460000     1.0807250000
   22      S       0.1901420000    -2.2986760000    -1.5426940000
   23      C       0.1250850000    -1.4297240000     0.0000000000
   24      H       0.1760040000    -1.9702950000     2.1276350000
   25      H       0.8002980000    -9.5807400000     0.3205590000
   26      C       0.0000000000     0.0000000000     0.0000000000
   27      S       0.0004740000     0.9047640000     1.5075410000
   28      C      -0.0002950000     2.4773050000     0.7188730000
   29      C       0.0007520000     0.9044470000    -1.0678720000
   30      C      -0.0015600000     2.2945930000    -0.6864100000
   31      S       0.0036020000     0.6608720000    -2.8055160000
   32      C      -0.0019280000     2.4125460000    -3.0545300000
   33      C      -0.0043810000     3.1208540000    -1.8625510000
   34      F      -0.0091850000     4.4575030000    -1.8190880000
   35      C      -0.0000380000     2.8605700000    -4.4560840000
   36      O       0.0079440000     2.0907240000    -5.4065100000
   37      O      -0.0075010000     4.2110920000    -4.5692250000
   38      C      -0.0022780000     4.7061770000    -5.9162070000
   39      H      -0.0092650000     5.8072070000    -5.8330640000
   40      H      -0.8953810000     4.3528750000    -6.4701680000
   41      H       0.9015210000     4.3633010000    -6.4592930000
   42      H      -0.0017080000     3.4015620000     1.3064860000
 ----------------------------------------------------------------

   10   -2754.3155806207      7.84e-07  Convergence criterion met
 Total energy in the final basis set =    -2754.3155806207
        RIMP2         total energy =     -2759.3690981433 a.u.

                    Orbital Energies (a.u.)
 --------------------------------------------------------------

 Alpha MOs
 -- Occupied --
-92.0152 -91.9990 -91.9914 -91.9862 -26.3436 -20.6149 -20.5925 -20.5912
-20.5614 -11.4096 -11.3829 -11.3201 -11.3168 -11.3112 -11.3025 -11.3008
-11.2984 -11.2977 -11.2889 -11.2867 -11.2866 -11.2862 -11.2859 -11.2843
-11.2790 -11.2625 -11.2581 -11.2546 -11.2499  -9.0138  -8.9992  -8.9921
 -8.9861  -6.6946  -6.6941  -6.6935  -6.6801  -6.6794  -6.6782  -6.6730
 -6.6724  -6.6714  -6.6671  -6.6664  -6.6656  -1.6606  -1.4674  -1.4166
 -1.4140  -1.3701  -1.2228  -1.1949  -1.1661  -1.1367  -1.0863  -1.0523
 -1.0418  -1.0245  -1.0024  -0.9884  -0.9646  -0.9585  -0.9500  -0.9414
 -0.8960  -0.8684  -0.8522  -0.8155  -0.7922  -0.7882  -0.7858  -0.7653
 -0.7556  -0.7342  -0.7255  -0.7105  -0.6990  -0.6861  -0.6837  -0.6820
 -0.6739  -0.6593  -0.6585  -0.6526  -0.6311  -0.6199  -0.6168  -0.6029
 -0.5977  -0.5854  -0.5790  -0.5697  -0.5686  -0.5611  -0.5570  -0.5536
 -0.5327  -0.5294  -0.5238  -0.5209  -0.5185  -0.5117  -0.5064  -0.4947
 -0.4871  -0.4786  -0.4772  -0.4753  -0.4700  -0.4642  -0.4591  -0.4279
 -0.3931  -0.3862  -0.3619  -0.3520  -0.3248  -0.2914  -0.2479

          Ground-State Mulliken Net Atomic Charges

     Atom                 Charge (a.u.)
  ----------------------------------------
      1 C                    -0.190391
      2 C                    -0.253470
      3 S                    -0.023351
      4 C                    -0.017886
      5 H                     0.196434
      6 C                    -0.027154
      7 C                     0.240413
      8 C                     0.244408
      9 C                    -0.032463
     10 C                    -0.016873
     11 O                    -0.332575
     12 O                    -0.341024
     13 C                    -0.085633
     14 H                     0.122206
     15 H                     0.091168
     16 H                     0.093926
     17 C                    -0.090150
     18 H                     0.126505
     19 H                     0.095525
     20 H                     0.090940
     21 C                    -0.275341
     22 S                    -0.052718
     23 C                     0.046888
     24 H                     0.184642
     25 H                     0.206186
     26 C                     0.034709
     27 S                     0.084902
     28 C                    -0.181908
     29 C                    -0.001755
     30 C                    -0.131186
     31 S                     0.002030
     32 C                    -0.168767
     33 C                     0.415623
     34 F                    -0.206947
     35 C                     0.442254
     36 O                    -0.461432
     37 O                    -0.300701
     38 C                    -0.058776
     39 H                     0.121509
     40 H                     0.095224
     41 H                     0.095137
     42 H                     0.219873
  ----------------------------------------
  Sum of atomic charges =     0.000000

                    Cartesian Multipole Moments
 -----------------------------------------------------------------
    Charge (ESU x 10^10)
                 0.0000
    Dipole Moment (Debye)
         X      -0.1010      Y       1.2894      Z       2.7203
       Tot       3.0121
    Quadrupole Moments (Debye-Ang)
        XX    -200.9671     XY      -0.7310     YY    -160.2817
        XZ      -5.6813     YZ      -7.6130     ZZ    -182.2600

 Total job time:  319.82s(wall), 9275.29s(cpu)
        *  Thank you very much for using Q-Chem.  Have a nice day.  *
