 Q-Chem 5.4, Q-Chem, Inc., Pleasanton, CA (2021)
 Q-Chem 5.4.0 for Intel X86 EM64T Linux

User input:
--------------------------------------------------------------
$molecule
0 1
C	-0.123330	-8.517702	-0.296276
C	0.421494	-7.641575	0.631143
S	-0.911611	-7.638634	-1.628795
C	0.233291	-6.264785	0.305097
H	0.950737	-7.966081	1.535988
C	-0.478557	-6.072714	-0.931114
C	-0.781346	-4.787049	-1.405737
C	0.664542	-5.162801	1.097747
C	0.357854	-3.874817	0.624993
C	-0.352278	-3.683952	-0.613970
O	1.348709	-5.499772	2.226300
O	-1.469658	-4.459055	-2.538827
C	-1.419319	-5.329063	-3.663102
H	-1.828237	-4.755694	-4.516756
H	-2.043793	-6.238095	-3.520769
H	-0.377021	-5.637262	-3.895546
C	1.463351	-4.572261	3.298492
H	1.878237	-5.139743	4.152945
H	0.475176	-4.153131	3.585804
H	2.159469	-3.739531	3.058230
C	-0.540664	-2.306654	-0.935761
S	0.780808	-2.306501	1.330550
C	0.000000	-1.435185	0.000000
H	-1.066946	-1.978138	-1.840780
H	-0.127575	-9.614033	-0.296494
C	0.000000	0.000000	0.000000
S	0.000474	0.904764	1.507541
C	-0.000295	2.477305	0.718873
C	0.000752	0.904447	-1.067872
C	-0.001560	2.294593	-0.686410
S	0.003602	0.660872	-2.805516
C	-0.001928	2.412546	-3.054530
C	-0.004381	3.120854	-1.862551
F	-0.009185	4.457503	-1.819088
C	-0.000038	2.860570	-4.456084
O	0.007944	2.090724	-5.406510
O	-0.007501	4.211092	-4.569225
C	-0.002278	4.706177	-5.916207
H	-0.009265	5.807207	-5.833064
H	-0.895381	4.352875	-6.470168
H	0.901521	4.363301	-6.459293
H	-0.001708	3.401562	1.306486
$end

$rem
JOBTYPE		SP
EXCHANGE	HF
CORRELATION	pRIMP2
BASIS		cc-pvtz
METHOD		rimp2
AUX_BASIS	rimp2-cc-pvtz
SOLVENT_METHOD	PCM
PURECART	11111
SYMMETRY	false
MEM_TOTAL	110000
SCF_CONVERGENCE = 6
THRESH=10
GUI = 2
$end

$solvent
dielectric 4.90
$end
--------------------------------------------------------------

             Standard Nuclear Orientation (Angstroms)
    I     Atom           X                Y                Z
 ----------------------------------------------------------------
    1      C      -0.1233300000    -8.5177020000    -0.2962760000
    2      C       0.4214940000    -7.6415750000     0.6311430000
    3      S      -0.9116110000    -7.6386340000    -1.6287950000
    4      C       0.2332910000    -6.2647850000     0.3050970000
    5      H       0.9507370000    -7.9660810000     1.5359880000
    6      C      -0.4785570000    -6.0727140000    -0.9311140000
    7      C      -0.7813460000    -4.7870490000    -1.4057370000
    8      C       0.6645420000    -5.1628010000     1.0977470000
    9      C       0.3578540000    -3.8748170000     0.6249930000
   10      C      -0.3522780000    -3.6839520000    -0.6139700000
   11      O       1.3487090000    -5.4997720000     2.2263000000
   12      O      -1.4696580000    -4.4590550000    -2.5388270000
   13      C      -1.4193190000    -5.3290630000    -3.6631020000
   14      H      -1.8282370000    -4.7556940000    -4.5167560000
   15      H      -2.0437930000    -6.2380950000    -3.5207690000
   16      H      -0.3770210000    -5.6372620000    -3.8955460000
   17      C       1.4633510000    -4.5722610000     3.2984920000
   18      H       1.8782370000    -5.1397430000     4.1529450000
   19      H       0.4751760000    -4.1531310000     3.5858040000
   20      H       2.1594690000    -3.7395310000     3.0582300000
   21      C      -0.5406640000    -2.3066540000    -0.9357610000
   22      S       0.7808080000    -2.3065010000     1.3305500000
   23      C       0.0000000000    -1.4351850000     0.0000000000
   24      H      -1.0669460000    -1.9781380000    -1.8407800000
   25      H      -0.1275750000    -9.6140330000    -0.2964940000
   26      C       0.0000000000     0.0000000000     0.0000000000
   27      S       0.0004740000     0.9047640000     1.5075410000
   28      C      -0.0002950000     2.4773050000     0.7188730000
   29      C       0.0007520000     0.9044470000    -1.0678720000
   30      C      -0.0015600000     2.2945930000    -0.6864100000
   31      S       0.0036020000     0.6608720000    -2.8055160000
   32      C      -0.0019280000     2.4125460000    -3.0545300000
   33      C      -0.0043810000     3.1208540000    -1.8625510000
   34      F      -0.0091850000     4.4575030000    -1.8190880000
   35      C      -0.0000380000     2.8605700000    -4.4560840000
   36      O       0.0079440000     2.0907240000    -5.4065100000
   37      O      -0.0075010000     4.2110920000    -4.5692250000
   38      C      -0.0022780000     4.7061770000    -5.9162070000
   39      H      -0.0092650000     5.8072070000    -5.8330640000
   40      H      -0.8953810000     4.3528750000    -6.4701680000
   41      H       0.9015210000     4.3633010000    -6.4592930000
   42      H      -0.0017080000     3.4015620000     1.3064860000
 ----------------------------------------------------------------

   10   -2754.3171179727      7.39e-07  Convergence criterion met
 Total energy in the final basis set =    -2754.3171179727
        RIMP2         total energy =     -2759.3686448437 a.u.

                    Orbital Energies (a.u.)
 --------------------------------------------------------------

 Alpha MOs
 -- Occupied --
-92.0159 -91.9983 -91.9915 -91.9865 -26.3431 -20.6147 -20.5931 -20.5912
-20.5612 -11.4093 -11.3822 -11.3201 -11.3179 -11.3091 -11.3015 -11.2994
-11.2975 -11.2967 -11.2887 -11.2878 -11.2871 -11.2855 -11.2853 -11.2844
-11.2798 -11.2621 -11.2591 -11.2567 -11.2501  -9.0145  -8.9983  -8.9920
 -8.9864  -6.6953  -6.6947  -6.6942  -6.6793  -6.6786  -6.6774  -6.6730
 -6.6723  -6.6713  -6.6674  -6.6668  -6.6659  -1.6602  -1.4672  -1.4171
 -1.4140  -1.3699  -1.2215  -1.1952  -1.1664  -1.1364  -1.0856  -1.0525
 -1.0416  -1.0232  -1.0022  -0.9886  -0.9637  -0.9600  -0.9506  -0.9392
 -0.8967  -0.8678  -0.8525  -0.8080  -0.7988  -0.7879  -0.7867  -0.7646
 -0.7553  -0.7345  -0.7251  -0.7096  -0.7021  -0.6854  -0.6836  -0.6806
 -0.6738  -0.6595  -0.6583  -0.6526  -0.6309  -0.6201  -0.6173  -0.6033
 -0.5979  -0.5852  -0.5788  -0.5706  -0.5658  -0.5598  -0.5548  -0.5510
 -0.5356  -0.5306  -0.5226  -0.5187  -0.5169  -0.5112  -0.5051  -0.4953
 -0.4877  -0.4802  -0.4770  -0.4741  -0.4696  -0.4674  -0.4613  -0.4221
 -0.3964  -0.3854  -0.3598  -0.3497  -0.3257  -0.2904  -0.2521

          Ground-State Mulliken Net Atomic Charges

     Atom                 Charge (a.u.)
  ----------------------------------------
      1 C                    -0.188765
      2 C                    -0.254097
      3 S                    -0.021214
      4 C                    -0.015347
      5 H                     0.196245
      6 C                    -0.027406
      7 C                     0.243344
      8 C                     0.240022
      9 C                    -0.043208
     10 C                    -0.027900
     11 O                    -0.332921
     12 O                    -0.339993
     13 C                    -0.085985
     14 H                     0.123472
     15 H                     0.091034
     16 H                     0.094125
     17 C                    -0.087799
     18 H                     0.125552
     19 H                     0.094744
     20 H                     0.089838
     21 C                    -0.230176
     22 S                    -0.026134
     23 C                    -0.014161
     24 H                     0.196624
     25 H                     0.206439
     26 C                    -0.005259
     27 S                     0.087375
     28 C                    -0.189262
     29 C                     0.020215
     30 C                    -0.116663
     31 S                     0.006159
     32 C                    -0.155689
     33 C                     0.398711
     34 F                    -0.206978
     35 C                     0.444263
     36 O                    -0.460901
     37 O                    -0.300504
     38 C                    -0.058671
     39 H                     0.121431
     40 H                     0.095115
     41 H                     0.095112
     42 H                     0.219214
  ----------------------------------------
  Sum of atomic charges =     0.000000

                    Cartesian Multipole Moments
 -----------------------------------------------------------------
    Charge (ESU x 10^10)
                 0.0000
    Dipole Moment (Debye)
         X       0.2534      Y       0.9799      Z       2.9671
       Tot       3.1350
    Quadrupole Moments (Debye-Ang)
        XX    -200.1880     XY      -1.0889     YY    -159.0164
        XZ       7.0179     YZ      -6.5889     ZZ    -183.1616

 Total job time:  347.70s(wall), 11416.60s(cpu)
        *  Thank you very much for using Q-Chem.  Have a nice day.  *
