 Q-Chem 5.4, Q-Chem, Inc., Pleasanton, CA (2021)
 Q-Chem 5.4.0 for Intel X86 EM64T Linux

User input:
--------------------------------------------------------------
$molecule
0 1
C	-8.167226	-2.432520	0.183044
C	-7.587861	-1.172922	0.135229
S	-6.929051	-3.711455	0.214706
C	-6.160688	-1.193414	0.129318
H	-8.164146	-0.239596	0.104494
C	-5.618003	-2.525433	0.184595
C	-4.232676	-2.749632	0.162515
C	-5.319407	-0.046586	0.054013
C	-3.931773	-0.270708	0.027604
C	-3.389860	-1.604383	0.085819
O	-5.975470	1.146932	0.035008
O	-3.583811	-3.951253	0.180574
C	-4.186106	-5.060472	0.836558
H	-3.394622	-5.827265	0.937915
H	-5.021912	-5.496036	0.246408
H	-4.559633	-4.785008	1.846509
C	-5.326042	2.313799	-0.454564
H	-6.112722	3.085819	-0.551391
H	-4.863666	2.138997	-1.449733
H	-4.551334	2.687606	0.249596
C	-1.963105	-1.621368	0.077474
S	-2.618909	0.917090	-0.015288
C	-1.389574	-0.358284	0.021758
H	-1.383257	-2.552295	0.110744
H	-9.228154	-2.708598	0.196193
C	0.000000	0.000000	0.000000
S	1.252980	-1.232575	0.045586
C	2.578335	-0.076997	-0.008758
C	0.608670	1.258837	-0.056806
C	2.050035	1.236941	-0.060445
S	-0.061688	2.878939	-0.124860
C	1.572075	3.557366	-0.155765
C	2.555947	2.581151	-0.116789
F	3.861007	2.872992	-0.130530
C	1.655382	5.025022	-0.220019
O	0.672303	5.751959	-0.254008
O	2.934727	5.471940	-0.237523
C	3.077230	6.898410	-0.303657
H	4.164092	7.093135	-0.310071
H	2.600892	7.383796	0.572032
H	2.605139	7.300081	-1.222977
H	3.620163	-0.414671	0.001941
$end

$rem
JOBTYPE		SP
EXCHANGE	HF
CORRELATION	pRIMP2
BASIS		cc-pvtz
METHOD		rimp2
AUX_BASIS	rimp2-cc-pvtz
SOLVENT_METHOD	PCM
PURECART	11111
SYMMETRY	false
MEM_TOTAL	110000
SCF_CONVERGENCE = 6
THRESH=10
GUI = 2
$end

$solvent
dielectric 4.90
$end
--------------------------------------------------------------

             Standard Nuclear Orientation (Angstroms)
    I     Atom           X                Y                Z
 ----------------------------------------------------------------
    1      C      -8.1672260000    -2.4325200000     0.1830440000
    2      C      -7.5878610000    -1.1729220000     0.1352290000
    3      S      -6.9290510000    -3.7114550000     0.2147060000
    4      C      -6.1606880000    -1.1934140000     0.1293180000
    5      H      -8.1641460000    -0.2395960000     0.1044940000
    6      C      -5.6180030000    -2.5254330000     0.1845950000
    7      C      -4.2326760000    -2.7496320000     0.1625150000
    8      C      -5.3194070000    -0.0465860000     0.0540130000
    9      C      -3.9317730000    -0.2707080000     0.0276040000
   10      C      -3.3898600000    -1.6043830000     0.0858190000
   11      O      -5.9754700000     1.1469320000     0.0350080000
   12      O      -3.5838110000    -3.9512530000     0.1805740000
   13      C      -4.1861060000    -5.0604720000     0.8365580000
   14      H      -3.3946220000    -5.8272650000     0.9379150000
   15      H      -5.0219120000    -5.4960360000     0.2464080000
   16      H      -4.5596330000    -4.7850080000     1.8465090000
   17      C      -5.3260420000     2.3137990000    -0.4545640000
   18      H      -6.1127220000     3.0858190000    -0.5513910000
   19      H      -4.8636660000     2.1389970000    -1.4497330000
   20      H      -4.5513340000     2.6876060000     0.2495960000
   21      C      -1.9631050000    -1.6213680000     0.0774740000
   22      S      -2.6189090000     0.9170900000    -0.0152880000
   23      C      -1.3895740000    -0.3582840000     0.0217580000
   24      H      -1.3832570000    -2.5522950000     0.1107440000
   25      H      -9.2281540000    -2.7085980000     0.1961930000
   26      C       0.0000000000     0.0000000000     0.0000000000
   27      S       1.2529800000    -1.2325750000     0.0455860000
   28      C       2.5783350000    -0.0769970000    -0.0087580000
   29      C       0.6086700000     1.2588370000    -0.0568060000
   30      C       2.0500350000     1.2369410000    -0.0604450000
   31      S      -0.0616880000     2.8789390000    -0.1248600000
   32      C       1.5720750000     3.5573660000    -0.1557650000
   33      C       2.5559470000     2.5811510000    -0.1167890000
   34      F       3.8610070000     2.8729920000    -0.1305300000
   35      C       1.6553820000     5.0250220000    -0.2200190000
   36      O       0.6723030000     5.7519590000    -0.2540080000
   37      O       2.9347270000     5.4719400000    -0.2375230000
   38      C       3.0772300000     6.8984100000    -0.3036570000
   39      H       4.1640920000     7.0931350000    -0.3100710000
   40      H       2.6008920000     7.3837960000     0.5720320000
   41      H       2.6051390000     7.3000810000    -1.2229770000
   42      H       3.6201630000    -0.4146710000     0.0019410000
 ----------------------------------------------------------------

   10   -2754.3160513668      7.86e-07  Convergence criterion met
 Total energy in the final basis set =    -2754.3160513668
        RIMP2         total energy =     -2759.3694492579 a.u.

                    Orbital Energies (a.u.)
 --------------------------------------------------------------

 Alpha MOs
 -- Occupied --
-92.0152 -91.9989 -91.9915 -91.9862 -26.3436 -20.6149 -20.5925 -20.5913
-20.5614 -11.4096 -11.3829 -11.3202 -11.3169 -11.3110 -11.3027 -11.3007
-11.2984 -11.2977 -11.2889 -11.2867 -11.2866 -11.2862 -11.2859 -11.2843
-11.2790 -11.2626 -11.2581 -11.2548 -11.2499  -9.0139  -8.9991  -8.9921
 -8.9861  -6.6946  -6.6941  -6.6935  -6.6801  -6.6793  -6.6782  -6.6731
 -6.6724  -6.6714  -6.6671  -6.6665  -6.6656  -1.6606  -1.4674  -1.4166
 -1.4141  -1.3701  -1.2227  -1.1950  -1.1661  -1.1367  -1.0864  -1.0523
 -1.0418  -1.0245  -1.0024  -0.9884  -0.9646  -0.9586  -0.9500  -0.9414
 -0.8961  -0.8683  -0.8523  -0.8155  -0.7922  -0.7883  -0.7858  -0.7653
 -0.7556  -0.7342  -0.7255  -0.7105  -0.6990  -0.6861  -0.6837  -0.6820
 -0.6739  -0.6593  -0.6585  -0.6526  -0.6311  -0.6199  -0.6168  -0.6029
 -0.5977  -0.5853  -0.5790  -0.5698  -0.5687  -0.5610  -0.5572  -0.5535
 -0.5327  -0.5295  -0.5238  -0.5209  -0.5185  -0.5116  -0.5064  -0.4946
 -0.4871  -0.4788  -0.4770  -0.4753  -0.4701  -0.4642  -0.4592  -0.4279
 -0.3932  -0.3862  -0.3619  -0.3520  -0.3248  -0.2914  -0.2480

          Ground-State Mulliken Net Atomic Charges

     Atom                 Charge (a.u.)
  ----------------------------------------
      1 C                    -0.190311
      2 C                    -0.253404
      3 S                    -0.023116
      4 C                    -0.017683
      5 H                     0.196365
      6 C                    -0.027289
      7 C                     0.241146
      8 C                     0.244174
      9 C                    -0.031879
     10 C                    -0.017218
     11 O                    -0.332673
     12 O                    -0.341063
     13 C                    -0.085695
     14 H                     0.122180
     15 H                     0.091326
     16 H                     0.093995
     17 C                    -0.090323
     18 H                     0.126478
     19 H                     0.095687
     20 H                     0.091040
     21 C                    -0.275732
     22 S                    -0.053902
     23 C                     0.050914
     24 H                     0.184535
     25 H                     0.206189
     26 C                     0.032972
     27 S                     0.083976
     28 C                    -0.181595
     29 C                     0.000138
     30 C                    -0.133431
     31 S                     0.001181
     32 C                    -0.168957
     33 C                     0.416106
     34 F                    -0.207067
     35 C                     0.441997
     36 O                    -0.461343
     37 O                    -0.300658
     38 C                    -0.058820
     39 H                     0.121494
     40 H                     0.095253
     41 H                     0.095110
     42 H                     0.219903
  ----------------------------------------
  Sum of atomic charges =     0.000000

                    Cartesian Multipole Moments
 -----------------------------------------------------------------
    Charge (ESU x 10^10)
                 0.0000
    Dipole Moment (Debye)
         X       1.9103      Y      -2.3146      Z       0.3356
       Tot       3.0198
    Quadrupole Moments (Debye-Ang)
        XX    -165.0496     XY      11.5513     YY    -177.9595
        XZ      -0.5987     YZ      -6.8537     ZZ    -200.3748

 Total job time:  317.24s(wall), 10469.63s(cpu)
        *  Thank you very much for using Q-Chem.  Have a nice day.  *
