 Q-Chem 5.4, Q-Chem, Inc., Pleasanton, CA (2021)
 Q-Chem 5.4.0 for Intel X86 EM64T Linux

User input:
--------------------------------------------------------------
$molecule
0 1
C	-0.095966	-8.517702	0.306235
C	0.082807	-7.641575	-0.754415
S	-0.348635	-7.638634	1.833702
C	0.017401	-6.264785	-0.383675
H	0.259008	-7.966081	-1.787757
C	-0.231913	-6.072714	1.020885
C	-0.305044	-4.787049	1.579097
C	0.196549	-5.162801	-1.268082
C	0.127606	-3.874817	-0.708796
C	-0.124792	-3.683952	0.696769
O	0.397867	-5.499772	-2.572378
O	-0.506103	-4.459055	2.889532
C	-1.267335	-5.329063	3.718420
H	-1.502804	-4.755694	4.635204
H	-0.697471	-6.238095	4.010790
H	-2.215194	-5.637262	3.226506
C	0.999238	-4.572261	-3.467415
H	1.230649	-5.139743	-4.388648
H	1.940905	-4.153131	-3.052323
H	0.311543	-3.739531	-3.730819
C	-0.187323	-2.306654	1.064366
S	0.257128	-2.306501	-1.521154
C	-0.000000	-1.435185	-0.000000
H	-0.365903	-1.978138	2.095939
H	-0.092855	-9.614033	0.309131
C	0.000000	0.000000	0.000000
S	0.309893	0.850039	1.507541
C	0.847011	2.328006	0.718873
C	0.310046	0.849645	-1.067872
C	0.783331	2.156746	-0.686410
S	0.229416	0.619785	-2.805516
C	0.823328	2.267711	-3.054530
C	1.063278	2.934142	-1.862551
F	1.515925	4.191824	-1.819088
C	0.978337	2.688069	-4.456084
O	0.722535	1.961921	-5.406510
O	1.433229	3.959697	-4.569225
C	1.607467	4.423139	-5.916207
H	1.977475	5.460158	-5.833064
H	0.647388	4.396602	-6.470168
H	2.339490	3.791823	-6.459293
H	1.161798	3.197007	1.306486
$end

$rem
JOBTYPE		SP
EXCHANGE	HF
CORRELATION	pRIMP2
BASIS		cc-pvtz
METHOD		rimp2
AUX_BASIS	rimp2-cc-pvtz
SOLVENT_METHOD	PCM
PURECART	11111
SYMMETRY	false
MEM_TOTAL	110000
SCF_CONVERGENCE = 6
THRESH=10
GUI = 2
$end

$solvent
dielectric 4.90
$end
--------------------------------------------------------------

             Standard Nuclear Orientation (Angstroms)
    I     Atom           X                Y                Z
 ----------------------------------------------------------------
    1      C      -0.0959660000    -8.5177020000     0.3062350000
    2      C       0.0828070000    -7.6415750000    -0.7544150000
    3      S      -0.3486350000    -7.6386340000     1.8337020000
    4      C       0.0174010000    -6.2647850000    -0.3836750000
    5      H       0.2590080000    -7.9660810000    -1.7877570000
    6      C      -0.2319130000    -6.0727140000     1.0208850000
    7      C      -0.3050440000    -4.7870490000     1.5790970000
    8      C       0.1965490000    -5.1628010000    -1.2680820000
    9      C       0.1276060000    -3.8748170000    -0.7087960000
   10      C      -0.1247920000    -3.6839520000     0.6967690000
   11      O       0.3978670000    -5.4997720000    -2.5723780000
   12      O      -0.5061030000    -4.4590550000     2.8895320000
   13      C      -1.2673350000    -5.3290630000     3.7184200000
   14      H      -1.5028040000    -4.7556940000     4.6352040000
   15      H      -0.6974710000    -6.2380950000     4.0107900000
   16      H      -2.2151940000    -5.6372620000     3.2265060000
   17      C       0.9992380000    -4.5722610000    -3.4674150000
   18      H       1.2306490000    -5.1397430000    -4.3886480000
   19      H       1.9409050000    -4.1531310000    -3.0523230000
   20      H       0.3115430000    -3.7395310000    -3.7308190000
   21      C      -0.1873230000    -2.3066540000     1.0643660000
   22      S       0.2571280000    -2.3065010000    -1.5211540000
   23      C       0.0000000000    -1.4351850000     0.0000000000
   24      H      -0.3659030000    -1.9781380000     2.0959390000
   25      H      -0.0928550000    -9.6140330000     0.3091310000
   26      C       0.0000000000     0.0000000000     0.0000000000
   27      S       0.3098930000     0.8500390000     1.5075410000
   28      C       0.8470110000     2.3280060000     0.7188730000
   29      C       0.3100460000     0.8496450000    -1.0678720000
   30      C       0.7833310000     2.1567460000    -0.6864100000
   31      S       0.2294160000     0.6197850000    -2.8055160000
   32      C       0.8233280000     2.2677110000    -3.0545300000
   33      C       1.0632780000     2.9341420000    -1.8625510000
   34      F       1.5159250000     4.1918240000    -1.8190880000
   35      C       0.9783370000     2.6880690000    -4.4560840000
   36      O       0.7225350000     1.9619210000    -5.4065100000
   37      O       1.4332290000     3.9596970000    -4.5692250000
   38      C       1.6074670000     4.4231390000    -5.9162070000
   39      H       1.9774750000     5.4601580000    -5.8330640000
   40      H       0.6473880000     4.3966020000    -6.4701680000
   41      H       2.3394900000     3.7918230000    -6.4592930000
   42      H       1.1617980000     3.1970070000     1.3064860000
 ----------------------------------------------------------------

   10   -2754.3080765853      7.56e-07  Convergence criterion met
 Total energy in the final basis set =    -2754.3080765853
        RIMP2         total energy =     -2759.3634978721 a.u.

                    Orbital Energies (a.u.)
 --------------------------------------------------------------

 Alpha MOs
 -- Occupied --
-92.0150 -92.0001 -91.9900 -91.9856 -26.3440 -20.6150 -20.5921 -20.5905
-20.5615 -11.4098 -11.3835 -11.3195 -11.3156 -11.3140 -11.3034 -11.2992
-11.2978 -11.2977 -11.2890 -11.2864 -11.2864 -11.2858 -11.2849 -11.2837
-11.2782 -11.2616 -11.2570 -11.2519 -11.2494  -9.0138  -9.0003  -8.9907
 -8.9855  -6.6946  -6.6939  -6.6934  -6.6813  -6.6805  -6.6794  -6.6717
 -6.6710  -6.6700  -6.6665  -6.6659  -6.6650  -1.6610  -1.4675  -1.4161
 -1.4133  -1.3702  -1.2240  -1.1940  -1.1655  -1.1372  -1.0860  -1.0515
 -1.0421  -1.0249  -1.0016  -0.9879  -0.9646  -0.9581  -0.9496  -0.9414
 -0.8954  -0.8688  -0.8509  -0.8158  -0.7924  -0.7876  -0.7850  -0.7648
 -0.7556  -0.7334  -0.7258  -0.7107  -0.6987  -0.6860  -0.6832  -0.6820
 -0.6741  -0.6591  -0.6583  -0.6521  -0.6307  -0.6193  -0.6164  -0.6036
 -0.5983  -0.5841  -0.5793  -0.5692  -0.5676  -0.5602  -0.5571  -0.5530
 -0.5327  -0.5293  -0.5242  -0.5198  -0.5176  -0.5115  -0.5061  -0.4948
 -0.4867  -0.4793  -0.4770  -0.4750  -0.4701  -0.4632  -0.4586  -0.4267
 -0.3929  -0.3853  -0.3607  -0.3523  -0.3248  -0.2909  -0.2476

          Ground-State Mulliken Net Atomic Charges

     Atom                 Charge (a.u.)
  ----------------------------------------
      1 C                    -0.192156
      2 C                    -0.253406
      3 S                    -0.024106
      4 C                    -0.019733
      5 H                     0.196211
      6 C                    -0.026622
      7 C                     0.235602
      8 C                     0.245244
      9 C                    -0.038787
     10 C                    -0.011474
     11 O                    -0.332773
     12 O                    -0.341143
     13 C                    -0.085588
     14 H                     0.121933
     15 H                     0.090960
     16 H                     0.093798
     17 C                    -0.089813
     18 H                     0.126161
     19 H                     0.095105
     20 H                     0.090974
     21 C                    -0.273673
     22 S                    -0.042403
     23 C                     0.024022
     24 H                     0.186212
     25 H                     0.205933
     26 C                     0.040729
     27 S                     0.099326
     28 C                    -0.185727
     29 C                    -0.034668
     30 C                    -0.108749
     31 S                     0.015096
     32 C                    -0.167770
     33 C                     0.413310
     34 F                    -0.206297
     35 C                     0.443603
     36 O                    -0.461085
     37 O                    -0.300910
     38 C                    -0.058455
     39 H                     0.121481
     40 H                     0.095217
     41 H                     0.095115
     42 H                     0.219306
  ----------------------------------------
  Sum of atomic charges =     0.000000

                    Cartesian Multipole Moments
 -----------------------------------------------------------------
    Charge (ESU x 10^10)
                 0.0000
    Dipole Moment (Debye)
         X       0.8869      Y       1.5491      Z       2.5694
       Tot       3.1286
    Quadrupole Moments (Debye-Ang)
        XX    -196.2991     XY       6.5400     YY    -163.8277
        XZ     -11.7364     YZ      -6.2126     ZZ    -184.7739

 Total job time:  331.36s(wall), 11289.04s(cpu)
        *  Thank you very much for using Q-Chem.  Have a nice day.  *
