 Q-Chem 5.4, Q-Chem, Inc., Pleasanton, CA (2021)
 Q-Chem 5.4.0 for Intel X86 EM64T Linux

User input:
--------------------------------------------------------------
$molecule
0 1
C	0.095966	-8.517702	-0.306235
C	-0.082807	-7.641575	0.754415
S	0.348635	-7.638634	-1.833702
C	-0.017401	-6.264785	0.383675
H	-0.259008	-7.966081	1.787757
C	0.231913	-6.072714	-1.020885
C	0.305044	-4.787049	-1.579097
C	-0.196549	-5.162801	1.268082
C	-0.127606	-3.874817	0.708796
C	0.124792	-3.683952	-0.696769
O	-0.397867	-5.499772	2.572378
O	0.506103	-4.459055	-2.889532
C	1.267335	-5.329063	-3.718420
H	1.502804	-4.755694	-4.635204
H	0.697471	-6.238095	-4.010790
H	2.215194	-5.637262	-3.226506
C	-0.999238	-4.572261	3.467415
H	-1.230649	-5.139743	4.388648
H	-1.940905	-4.153131	3.052323
H	-0.311543	-3.739531	3.730819
C	0.187323	-2.306654	-1.064366
S	-0.257128	-2.306501	1.521154
C	-0.000000	-1.435185	-0.000000
H	0.365903	-1.978138	-2.095939
H	0.092855	-9.614033	-0.309131
C	0.000000	0.000000	0.000000
S	0.452792	0.783312	1.507541
C	1.238397	2.145556	0.718873
C	0.452875	0.782898	-1.067872
C	1.145945	1.987956	-0.686410
S	0.333556	0.570531	-2.805516
C	1.204604	2.090290	-3.054530
C	1.556633	2.704929	-1.862551
F	2.220797	3.864903	-1.819088
C	1.430252	2.477345	-4.456084
O	1.052242	1.806648	-5.406510
O	2.099050	3.650663	-4.569225
C	2.351116	4.076808	-5.916207
H	2.895579	5.033821	-5.833064
H	1.401015	4.217390	-6.470168
H	2.962391	3.327969	-6.459293
H	1.699302	2.946693	1.306486
$end

$rem
JOBTYPE		SP
EXCHANGE	HF
CORRELATION	pRIMP2
BASIS		cc-pvtz
METHOD		rimp2
AUX_BASIS	rimp2-cc-pvtz
SOLVENT_METHOD	PCM
PURECART	11111
SYMMETRY	false
MEM_TOTAL	110000
SCF_CONVERGENCE = 6
THRESH=10
GUI = 2
$end

$solvent
dielectric 4.90
$end
--------------------------------------------------------------

             Standard Nuclear Orientation (Angstroms)
    I     Atom           X                Y                Z
 ----------------------------------------------------------------
    1      C       0.0959660000    -8.5177020000    -0.3062350000
    2      C      -0.0828070000    -7.6415750000     0.7544150000
    3      S       0.3486350000    -7.6386340000    -1.8337020000
    4      C      -0.0174010000    -6.2647850000     0.3836750000
    5      H      -0.2590080000    -7.9660810000     1.7877570000
    6      C       0.2319130000    -6.0727140000    -1.0208850000
    7      C       0.3050440000    -4.7870490000    -1.5790970000
    8      C      -0.1965490000    -5.1628010000     1.2680820000
    9      C      -0.1276060000    -3.8748170000     0.7087960000
   10      C       0.1247920000    -3.6839520000    -0.6967690000
   11      O      -0.3978670000    -5.4997720000     2.5723780000
   12      O       0.5061030000    -4.4590550000    -2.8895320000
   13      C       1.2673350000    -5.3290630000    -3.7184200000
   14      H       1.5028040000    -4.7556940000    -4.6352040000
   15      H       0.6974710000    -6.2380950000    -4.0107900000
   16      H       2.2151940000    -5.6372620000    -3.2265060000
   17      C      -0.9992380000    -4.5722610000     3.4674150000
   18      H      -1.2306490000    -5.1397430000     4.3886480000
   19      H      -1.9409050000    -4.1531310000     3.0523230000
   20      H      -0.3115430000    -3.7395310000     3.7308190000
   21      C       0.1873230000    -2.3066540000    -1.0643660000
   22      S      -0.2571280000    -2.3065010000     1.5211540000
   23      C       0.0000000000    -1.4351850000     0.0000000000
   24      H       0.3659030000    -1.9781380000    -2.0959390000
   25      H       0.0928550000    -9.6140330000    -0.3091310000
   26      C       0.0000000000     0.0000000000     0.0000000000
   27      S       0.4527920000     0.7833120000     1.5075410000
   28      C       1.2383970000     2.1455560000     0.7188730000
   29      C       0.4528750000     0.7828980000    -1.0678720000
   30      C       1.1459450000     1.9879560000    -0.6864100000
   31      S       0.3335560000     0.5705310000    -2.8055160000
   32      C       1.2046040000     2.0902900000    -3.0545300000
   33      C       1.5566330000     2.7049290000    -1.8625510000
   34      F       2.2207970000     3.8649030000    -1.8190880000
   35      C       1.4302520000     2.4773450000    -4.4560840000
   36      O       1.0522420000     1.8066480000    -5.4065100000
   37      O       2.0990500000     3.6506630000    -4.5692250000
   38      C       2.3511160000     4.0768080000    -5.9162070000
   39      H       2.8955790000     5.0338210000    -5.8330640000
   40      H       1.4010150000     4.2173900000    -6.4701680000
   41      H       2.9623910000     3.3279690000    -6.4592930000
   42      H       1.6993020000     2.9466930000     1.3064860000
 ----------------------------------------------------------------

   10   -2754.2992510763      7.27e-07  Convergence criterion met
 Total energy in the final basis set =    -2754.2992510763
        RIMP2         total energy =     -2759.3562890509 a.u.

                    Orbital Energies (a.u.)
 --------------------------------------------------------------

 Alpha MOs
 -- Occupied --
-92.0162 -92.0029 -91.9887 -91.9853 -26.3446 -20.6153 -20.5923 -20.5894
-20.5618 -11.4101 -11.3844 -11.3190 -11.3175 -11.3149 -11.3056 -11.2984
-11.2975 -11.2951 -11.2891 -11.2873 -11.2873 -11.2846 -11.2845 -11.2831
-11.2778 -11.2607 -11.2565 -11.2496 -11.2491  -9.0151  -9.0028  -8.9895
 -8.9852  -6.6959  -6.6952  -6.6947  -6.6838  -6.6831  -6.6820  -6.6706
 -6.6699  -6.6689  -6.6661  -6.6655  -6.6647  -1.6616  -1.4678  -1.4163
 -1.4123  -1.3705  -1.2254  -1.1934  -1.1655  -1.1382  -1.0854  -1.0509
 -1.0435  -1.0252  -1.0003  -0.9882  -0.9646  -0.9594  -0.9499  -0.9397
 -0.8956  -0.8696  -0.8501  -0.8097  -0.7987  -0.7882  -0.7851  -0.7634
 -0.7558  -0.7332  -0.7264  -0.7114  -0.7013  -0.6862  -0.6827  -0.6816
 -0.6743  -0.6593  -0.6586  -0.6515  -0.6302  -0.6189  -0.6163  -0.6032
 -0.5999  -0.5818  -0.5803  -0.5710  -0.5646  -0.5608  -0.5573  -0.5474
 -0.5350  -0.5305  -0.5235  -0.5182  -0.5159  -0.5105  -0.5053  -0.4956
 -0.4869  -0.4819  -0.4772  -0.4745  -0.4697  -0.4639  -0.4589  -0.4267
 -0.3952  -0.3832  -0.3614  -0.3483  -0.3280  -0.2893  -0.2486

          Ground-State Mulliken Net Atomic Charges

     Atom                 Charge (a.u.)
  ----------------------------------------
      1 C                    -0.192899
      2 C                    -0.253949
      3 S                    -0.023673
      4 C                    -0.019706
      5 H                     0.195762
      6 C                    -0.026181
      7 C                     0.239961
      8 C                     0.245059
      9 C                    -0.042731
     10 C                    -0.018874
     11 O                    -0.333150
     12 O                    -0.341196
     13 C                    -0.086264
     14 H                     0.123145
     15 H                     0.091158
     16 H                     0.093238
     17 C                    -0.088307
     18 H                     0.125947
     19 H                     0.095012
     20 H                     0.089209
     21 C                    -0.242020
     22 S                    -0.042660
     23 C                    -0.010159
     24 H                     0.188115
     25 H                     0.205748
     26 C                     0.005488
     27 S                     0.100888
     28 C                    -0.184391
     29 C                    -0.018966
     30 C                    -0.100096
     31 S                     0.029908
     32 C                    -0.163087
     33 C                     0.406692
     34 F                    -0.205372
     35 C                     0.445562
     36 O                    -0.460834
     37 O                    -0.300978
     38 C                    -0.058368
     39 H                     0.121574
     40 H                     0.095279
     41 H                     0.095189
     42 H                     0.220927
  ----------------------------------------
  Sum of atomic charges =     0.000000

                    Cartesian Multipole Moments
 -----------------------------------------------------------------
    Charge (ESU x 10^10)
                -0.0000
    Dipole Moment (Debye)
         X       1.8558      Y       1.7176      Z       3.1000
       Tot       4.0005
    Quadrupole Moments (Debye-Ang)
        XX    -193.9809     XY       6.0061     YY    -166.5931
        XZ     -12.8396     YZ      -7.0253     ZZ    -184.6784

 Total job time:  727.52s(wall), 10171.65s(cpu)
        *  Thank you very much for using Q-Chem.  Have a nice day.  *
