 Q-Chem 5.4, Q-Chem, Inc., Pleasanton, CA (2021)
 Q-Chem 5.4.0 for Intel X86 EM64T Linux

User input:
--------------------------------------------------------------
$molecule
0 1
C	-0.123330	-8.517702	-0.296276
C	0.421494	-7.641575	0.631143
S	-0.911611	-7.638634	-1.628795
C	0.233291	-6.264785	0.305097
H	0.950737	-7.966081	1.535988
C	-0.478557	-6.072714	-0.931114
C	-0.781346	-4.787049	-1.405737
C	0.664542	-5.162801	1.097747
C	0.357854	-3.874817	0.624993
C	-0.352278	-3.683952	-0.613970
O	1.348709	-5.499772	2.226300
O	-1.469658	-4.459055	-2.538827
C	-1.419319	-5.329063	-3.663102
H	-1.828237	-4.755694	-4.516756
H	-2.043793	-6.238095	-3.520769
H	-0.377021	-5.637262	-3.895546
C	1.463351	-4.572261	3.298492
H	1.878237	-5.139743	4.152945
H	0.475176	-4.153131	3.585804
H	2.159469	-3.739531	3.058230
C	-0.540664	-2.306654	-0.935761
S	0.780808	-2.306501	1.330550
C	-0.000000	-1.435185	-0.000000
H	-1.066946	-1.978138	-1.840780
H	-0.127575	-9.614033	-0.296494
C	0.000000	0.000000	0.000000
S	0.783786	0.451972	1.507541
C	2.145261	1.238908	0.718873
C	0.783650	0.451572	-1.067872
C	1.986396	1.148648	-0.686410
S	0.574133	0.327317	-2.805516
C	2.088363	1.207943	-3.054530
C	2.700548	1.564221	-1.862551
F	3.855718	2.236706	-1.819088
C	2.477307	1.430318	-4.456084
O	1.814592	1.038482	-5.406510
O	3.643162	2.112042	-4.569225
C	4.074530	2.355061	-5.916207
H	5.024556	2.911627	-5.833064
H	3.322010	2.951860	-6.470168
H	4.229490	1.400910	-6.459293
H	2.944986	1.702260	1.306486
$end

$rem
JOBTYPE		SP
EXCHANGE	HF
CORRELATION	pRIMP2
BASIS		cc-pvtz
METHOD		rimp2
AUX_BASIS	rimp2-cc-pvtz
SOLVENT_METHOD	PCM
PURECART	11111
SYMMETRY	false
MEM_TOTAL	110000
SCF_CONVERGENCE = 6
THRESH=10
GUI = 2
$end

$solvent
dielectric 4.90
$end
--------------------------------------------------------------

             Standard Nuclear Orientation (Angstroms)
    I     Atom           X                Y                Z
 ----------------------------------------------------------------
    1      C      -0.1233300000    -8.5177020000    -0.2962760000
    2      C       0.4214940000    -7.6415750000     0.6311430000
    3      S      -0.9116110000    -7.6386340000    -1.6287950000
    4      C       0.2332910000    -6.2647850000     0.3050970000
    5      H       0.9507370000    -7.9660810000     1.5359880000
    6      C      -0.4785570000    -6.0727140000    -0.9311140000
    7      C      -0.7813460000    -4.7870490000    -1.4057370000
    8      C       0.6645420000    -5.1628010000     1.0977470000
    9      C       0.3578540000    -3.8748170000     0.6249930000
   10      C      -0.3522780000    -3.6839520000    -0.6139700000
   11      O       1.3487090000    -5.4997720000     2.2263000000
   12      O      -1.4696580000    -4.4590550000    -2.5388270000
   13      C      -1.4193190000    -5.3290630000    -3.6631020000
   14      H      -1.8282370000    -4.7556940000    -4.5167560000
   15      H      -2.0437930000    -6.2380950000    -3.5207690000
   16      H      -0.3770210000    -5.6372620000    -3.8955460000
   17      C       1.4633510000    -4.5722610000     3.2984920000
   18      H       1.8782370000    -5.1397430000     4.1529450000
   19      H       0.4751760000    -4.1531310000     3.5858040000
   20      H       2.1594690000    -3.7395310000     3.0582300000
   21      C      -0.5406640000    -2.3066540000    -0.9357610000
   22      S       0.7808080000    -2.3065010000     1.3305500000
   23      C       0.0000000000    -1.4351850000     0.0000000000
   24      H      -1.0669460000    -1.9781380000    -1.8407800000
   25      H      -0.1275750000    -9.6140330000    -0.2964940000
   26      C       0.0000000000     0.0000000000     0.0000000000
   27      S       0.7837860000     0.4519720000     1.5075410000
   28      C       2.1452610000     1.2389080000     0.7188730000
   29      C       0.7836500000     0.4515720000    -1.0678720000
   30      C       1.9863960000     1.1486480000    -0.6864100000
   31      S       0.5741330000     0.3273170000    -2.8055160000
   32      C       2.0883630000     1.2079430000    -3.0545300000
   33      C       2.7005480000     1.5642210000    -1.8625510000
   34      F       3.8557180000     2.2367060000    -1.8190880000
   35      C       2.4773070000     1.4303180000    -4.4560840000
   36      O       1.8145920000     1.0384820000    -5.4065100000
   37      O       3.6431620000     2.1120420000    -4.5692250000
   38      C       4.0745300000     2.3550610000    -5.9162070000
   39      H       5.0245560000     2.9116270000    -5.8330640000
   40      H       3.3220100000     2.9518600000    -6.4701680000
   41      H       4.2294900000     1.4009100000    -6.4592930000
   42      H       2.9449860000     1.7022600000     1.3064860000
 ----------------------------------------------------------------

   10   -2754.2440114782      7.95e-07  Convergence criterion met
 Total energy in the final basis set =    -2754.2440114782
        RIMP2         total energy =     -2759.3106991231 a.u.

                    Orbital Energies (a.u.)
 --------------------------------------------------------------

 Alpha MOs
 -- Occupied --
-92.0152 -92.0125 -91.9865 -91.9813 -26.3478 -20.6164 -20.5904 -20.5845
-20.5630 -11.4117 -11.3891 -11.3387 -11.3270 -11.3157 -11.3057 -11.3003
-11.2967 -11.2916 -11.2899 -11.2863 -11.2822 -11.2794 -11.2750 -11.2727
-11.2723 -11.2556 -11.2489 -11.2462 -11.2301  -9.0154  -9.0120  -8.9871
 -8.9813  -6.6960  -6.6950  -6.6949  -6.6928  -6.6921  -6.6911  -6.6680
 -6.6671  -6.6661  -6.6623  -6.6617  -6.6608  -1.6647  -1.4690  -1.4142
 -1.4074  -1.3718  -1.2379  -1.1886  -1.1657  -1.1404  -1.0852  -1.0475
 -1.0454  -1.0295  -0.9962  -0.9874  -0.9676  -0.9571  -0.9474  -0.9381
 -0.8927  -0.8736  -0.8444  -0.8133  -0.7987  -0.7850  -0.7815  -0.7610
 -0.7565  -0.7294  -0.7290  -0.7151  -0.6986  -0.6873  -0.6841  -0.6774
 -0.6755  -0.6613  -0.6563  -0.6484  -0.6288  -0.6160  -0.6145  -0.6063
 -0.6015  -0.5909  -0.5797  -0.5702  -0.5626  -0.5620  -0.5523  -0.5372
 -0.5337  -0.5307  -0.5231  -0.5177  -0.5122  -0.5101  -0.5018  -0.4933
 -0.4885  -0.4820  -0.4772  -0.4742  -0.4676  -0.4581  -0.4540  -0.4227
 -0.3928  -0.3783  -0.3596  -0.3441  -0.3267  -0.2940  -0.2444

          Ground-State Mulliken Net Atomic Charges

     Atom                 Charge (a.u.)
  ----------------------------------------
      1 C                    -0.203889
      2 C                    -0.252455
      3 S                    -0.030745
      4 C                    -0.030294
      5 H                     0.194261
      6 C                    -0.022980
      7 C                     0.221798
      8 C                     0.244189
      9 C                    -0.058902
     10 C                     0.000023
     11 O                    -0.333272
     12 O                    -0.342750
     13 C                    -0.085438
     14 H                     0.121081
     15 H                     0.089546
     16 H                     0.091692
     17 C                    -0.087677
     18 H                     0.125181
     19 H                     0.094073
     20 H                     0.088222
     21 C                    -0.318452
     22 S                    -0.031364
     23 C                     0.033296
     24 H                     0.187868
     25 H                     0.203600
     26 C                    -0.133385
     27 S                     0.101566
     28 C                    -0.115706
     29 C                     0.105100
     30 C                    -0.123065
     31 S                     0.063788
     32 C                    -0.156677
     33 C                     0.399457
     34 F                    -0.203019
     35 C                     0.449402
     36 O                    -0.461255
     37 O                    -0.301280
     38 C                    -0.058062
     39 H                     0.121726
     40 H                     0.095406
     41 H                     0.095577
     42 H                     0.223816
  ----------------------------------------
  Sum of atomic charges =     0.000000

                    Cartesian Multipole Moments
 -----------------------------------------------------------------
    Charge (ESU x 10^10)
                -0.0000
    Dipole Moment (Debye)
         X       4.5743      Y       3.0860      Z       2.9305
       Tot       6.2479
    Quadrupole Moments (Debye-Ang)
        XX    -186.1112     XY       6.0890     YY    -187.1599
        XZ      -0.0218     YZ      -5.0034     ZZ    -181.2302

 Total job time:  298.55s(wall), 10100.47s(cpu)
        *  Thank you very much for using Q-Chem.  Have a nice day.  *
