 Q-Chem 5.4, Q-Chem, Inc., Pleasanton, CA (2021)
 Q-Chem 5.4.0 for Intel X86 EM64T Linux

User input:
--------------------------------------------------------------
$molecule
0 1
C	0.217225	-8.517702	0.236226
C	-0.611939	-7.641575	-0.448921
S	1.413715	-7.638634	1.218777
C	-0.323572	-6.264785	-0.206907
H	-1.418739	-7.966081	-1.118185
C	0.768156	-6.072714	0.711285
C	1.215016	-4.787049	1.053725
C	-0.999917	-5.162801	-0.804258
C	-0.550033	-3.874817	-0.464908
C	0.541024	-3.683952	0.456457
O	-2.028811	-5.499772	-1.630752
O	2.249357	-4.459055	1.883064
C	2.586579	-5.329063	2.956754
H	3.262802	-4.755694	3.619069
H	3.124711	-6.238095	2.609423
H	1.686639	-5.637262	3.531667
C	-2.503251	-4.572261	-2.599073
H	-3.185356	-5.139743	-3.260097
H	-1.672937	-4.153131	-3.207034
H	-3.075213	-3.739531	-2.135214
C	0.828107	-2.306654	0.694410
S	-1.188794	-2.306501	-0.983256
C	-0.000000	-1.435185	-0.000000
H	1.632185	-1.978138	1.364851
H	0.221288	-9.614033	0.234980
C	0.000000	0.000000	0.000000
S	0.079327	0.901280	1.507541
C	0.215617	2.467903	0.718873
C	0.079577	0.900940	-1.067872
C	0.198433	2.285998	-0.686410
S	0.061187	0.658044	-2.805516
C	0.208347	2.403534	-3.054530
C	0.267636	3.109360	-1.862551
F	0.379347	4.441341	-1.819088
C	0.249278	2.849688	-4.456084
O	0.190132	2.082076	-5.406510
O	0.359548	4.195721	-4.569225
C	0.407901	4.688467	-5.916207
H	0.496901	5.785916	-5.833064
H	-0.512596	4.414348	-6.470168
H	1.278377	4.268124	-6.459293
H	0.294764	3.388767	1.306486
$end

$rem
JOBTYPE		SP
EXCHANGE	HF
CORRELATION	pRIMP2
BASIS		cc-pvtz
METHOD		rimp2
AUX_BASIS	rimp2-cc-pvtz
SOLVENT_METHOD	PCM
PURECART	11111
SYMMETRY	false
MEM_TOTAL	110000
SCF_CONVERGENCE = 6
THRESH=10
GUI = 2
$end

$solvent
dielectric 4.90
$end
--------------------------------------------------------------

             Standard Nuclear Orientation (Angstroms)
    I     Atom           X                Y                Z
 ----------------------------------------------------------------
    1      C       0.2172250000    -8.5177020000     0.2362260000
    2      C      -0.6119390000    -7.6415750000    -0.4489210000
    3      S       1.4137150000    -7.6386340000     1.2187770000
    4      C      -0.3235720000    -6.2647850000    -0.2069070000
    5      H      -1.4187390000    -7.9660810000    -1.1181850000
    6      C       0.7681560000    -6.0727140000     0.7112850000
    7      C       1.2150160000    -4.7870490000     1.0537250000
    8      C      -0.9999170000    -5.1628010000    -0.8042580000
    9      C      -0.5500330000    -3.8748170000    -0.4649080000
   10      C       0.5410240000    -3.6839520000     0.4564570000
   11      O      -2.0288110000    -5.4997720000    -1.6307520000
   12      O       2.2493570000    -4.4590550000     1.8830640000
   13      C       2.5865790000    -5.3290630000     2.9567540000
   14      H       3.2628020000    -4.7556940000     3.6190690000
   15      H       3.1247110000    -6.2380950000     2.6094230000
   16      H       1.6866390000    -5.6372620000     3.5316670000
   17      C      -2.5032510000    -4.5722610000    -2.5990730000
   18      H      -3.1853560000    -5.1397430000    -3.2600970000
   19      H      -1.6729370000    -4.1531310000    -3.2070340000
   20      H      -3.0752130000    -3.7395310000    -2.1352140000
   21      C       0.8281070000    -2.3066540000     0.6944100000
   22      S      -1.1887940000    -2.3065010000    -0.9832560000
   23      C       0.0000000000    -1.4351850000     0.0000000000
   24      H       1.6321850000    -1.9781380000     1.3648510000
   25      H       0.2212880000    -9.6140330000     0.2349800000
   26      C       0.0000000000     0.0000000000     0.0000000000
   27      S       0.0793270000     0.9012800000     1.5075410000
   28      C       0.2156170000     2.4679030000     0.7188730000
   29      C       0.0795770000     0.9009400000    -1.0678720000
   30      C       0.1984330000     2.2859980000    -0.6864100000
   31      S       0.0611870000     0.6580440000    -2.8055160000
   32      C       0.2083470000     2.4035340000    -3.0545300000
   33      C       0.2676360000     3.1093600000    -1.8625510000
   34      F       0.3793470000     4.4413410000    -1.8190880000
   35      C       0.2492780000     2.8496880000    -4.4560840000
   36      O       0.1901320000     2.0820760000    -5.4065100000
   37      O       0.3595480000     4.1957210000    -4.5692250000
   38      C       0.4079010000     4.6884670000    -5.9162070000
   39      H       0.4969010000     5.7859160000    -5.8330640000
   40      H      -0.5125960000     4.4143480000    -6.4701680000
   41      H       1.2783770000     4.2681240000    -6.4592930000
   42      H       0.2947640000     3.3887670000     1.3064860000
 ----------------------------------------------------------------

   10   -2754.3159122052      7.07e-07  Convergence criterion met
 Total energy in the final basis set =    -2754.3159122052
        RIMP2         total energy =     -2759.3666531508 a.u.

                    Orbital Energies (a.u.)
 --------------------------------------------------------------

 Alpha MOs
 -- Occupied --
-92.0155 -91.9971 -91.9903 -91.9866 -26.3427 -20.6144 -20.5924 -20.5918
-20.5608 -11.4089 -11.3815 -11.3196 -11.3182 -11.3083 -11.3002 -11.2989
-11.2967 -11.2949 -11.2885 -11.2867 -11.2865 -11.2865 -11.2843 -11.2843
-11.2799 -11.2615 -11.2592 -11.2574 -11.2501  -9.0138  -8.9971  -8.9907
 -8.9865  -6.6946  -6.6940  -6.6935  -6.6781  -6.6774  -6.6763  -6.6716
 -6.6709  -6.6700  -6.6675  -6.6669  -6.6660  -1.6598  -1.4668  -1.4165
 -1.4145  -1.3695  -1.2206  -1.1948  -1.1658  -1.1354  -1.0852  -1.0523
 -1.0408  -1.0225  -1.0021  -0.9881  -0.9632  -0.9591  -0.9502  -0.9395
 -0.8959  -0.8670  -0.8518  -0.8125  -0.7916  -0.7880  -0.7870  -0.7652
 -0.7550  -0.7341  -0.7247  -0.7095  -0.6995  -0.6850  -0.6835  -0.6807
 -0.6735  -0.6593  -0.6574  -0.6528  -0.6307  -0.6202  -0.6170  -0.6040
 -0.5971  -0.5857  -0.5771  -0.5696  -0.5673  -0.5622  -0.5557  -0.5525
 -0.5313  -0.5298  -0.5229  -0.5172  -0.5161  -0.5096  -0.5053  -0.4946
 -0.4891  -0.4781  -0.4770  -0.4732  -0.4707  -0.4658  -0.4608  -0.4147
 -0.3969  -0.3861  -0.3586  -0.3489  -0.3221  -0.2921  -0.2554

          Ground-State Mulliken Net Atomic Charges

     Atom                 Charge (a.u.)
  ----------------------------------------
      1 C                    -0.188458
      2 C                    -0.253577
      3 S                    -0.022149
      4 C                    -0.014975
      5 H                     0.196564
      6 C                    -0.027688
      7 C                     0.241726
      8 C                     0.241521
      9 C                    -0.044951
     10 C                    -0.027995
     11 O                    -0.333298
     12 O                    -0.340191
     13 C                    -0.085832
     14 H                     0.122568
     15 H                     0.091273
     16 H                     0.093940
     17 C                    -0.087637
     18 H                     0.124942
     19 H                     0.095907
     20 H                     0.089915
     21 C                    -0.239828
     22 S                    -0.006050
     23 C                    -0.020726
     24 H                     0.198664
     25 H                     0.206471
     26 C                    -0.010244
     27 S                     0.101823
     28 C                    -0.187494
     29 C                     0.004567
     30 C                    -0.113468
     31 S                     0.007261
     32 C                    -0.152997
     33 C                     0.394287
     34 F                    -0.207082
     35 C                     0.444523
     36 O                    -0.461033
     37 O                    -0.300588
     38 C                    -0.058676
     39 H                     0.121275
     40 H                     0.095015
     41 H                     0.095039
     42 H                     0.217656
  ----------------------------------------
  Sum of atomic charges =     0.000000

                    Cartesian Multipole Moments
 -----------------------------------------------------------------
    Charge (ESU x 10^10)
                 0.0000
    Dipole Moment (Debye)
         X      -0.0304      Y       0.8861      Z       3.1374
       Tot       3.2603
    Quadrupole Moments (Debye-Ang)
        XX    -193.0727     XY       2.1800     YY    -159.5078
        XZ      11.6011     YZ      -8.4976     ZZ    -190.3118

 Total job time:  283.71s(wall), 9259.61s(cpu)
        *  Thank you very much for using Q-Chem.  Have a nice day.  *
