 Q-Chem 5.4, Q-Chem, Inc., Pleasanton, CA (2021)
 Q-Chem 5.4.0 for Intel X86 EM64T Linux

User input:
--------------------------------------------------------------
$molecule
0 1
C	0.217225	-8.517702	0.236226
C	-0.611939	-7.641575	-0.448921
S	1.413715	-7.638634	1.218777
C	-0.323572	-6.264785	-0.206907
H	-1.418739	-7.966081	-1.118185
C	0.768156	-6.072714	0.711285
C	1.215016	-4.787049	1.053725
C	-0.999917	-5.162801	-0.804258
C	-0.550033	-3.874817	-0.464908
C	0.541024	-3.683952	0.456457
O	-2.028811	-5.499772	-1.630752
O	2.249357	-4.459055	1.883064
C	2.586579	-5.329063	2.956754
H	3.262802	-4.755694	3.619069
H	3.124711	-6.238095	2.609423
H	1.686639	-5.637262	3.531667
C	-2.503251	-4.572261	-2.599073
H	-3.185356	-5.139743	-3.260097
H	-1.672937	-4.153131	-3.207034
H	-3.075213	-3.739531	-2.135214
C	0.828107	-2.306654	0.694410
S	-1.188794	-2.306501	-0.983256
C	-0.000000	-1.435185	-0.000000
H	1.632185	-1.978138	1.364851
H	0.221288	-9.614033	0.234980
C	0.000000	0.000000	0.000000
S	0.382799	0.819795	1.507541
C	1.046687	2.245325	0.718873
C	0.382918	0.819389	-1.067872
C	0.968323	2.080267	-0.686410
S	0.282561	0.597432	-2.805516
C	1.017839	2.187324	-3.054530
C	1.314960	2.830306	-1.862551
F	1.875498	4.043751	-1.819088
C	1.208895	2.592573	-4.456084
O	0.890778	1.891482	-5.406510
O	1.772886	3.819715	-4.569225
C	1.986852	4.266207	-5.916207
H	2.445834	5.267032	-5.833064
H	1.028114	4.323448	-6.470168
H	2.661066	3.573494	-6.459293
H	1.436015	3.083584	1.306486
$end

$rem
JOBTYPE		SP
EXCHANGE	HF
CORRELATION	pRIMP2
BASIS		cc-pvtz
METHOD		rimp2
AUX_BASIS	rimp2-cc-pvtz
SOLVENT_METHOD	PCM
PURECART	11111
SYMMETRY	false
MEM_TOTAL	110000
SCF_CONVERGENCE = 6
THRESH=10
GUI = 2
$end

$solvent
dielectric 4.90
$end
--------------------------------------------------------------

             Standard Nuclear Orientation (Angstroms)
    I     Atom           X                Y                Z
 ----------------------------------------------------------------
    1      C       0.2172250000    -8.5177020000     0.2362260000
    2      C      -0.6119390000    -7.6415750000    -0.4489210000
    3      S       1.4137150000    -7.6386340000     1.2187770000
    4      C      -0.3235720000    -6.2647850000    -0.2069070000
    5      H      -1.4187390000    -7.9660810000    -1.1181850000
    6      C       0.7681560000    -6.0727140000     0.7112850000
    7      C       1.2150160000    -4.7870490000     1.0537250000
    8      C      -0.9999170000    -5.1628010000    -0.8042580000
    9      C      -0.5500330000    -3.8748170000    -0.4649080000
   10      C       0.5410240000    -3.6839520000     0.4564570000
   11      O      -2.0288110000    -5.4997720000    -1.6307520000
   12      O       2.2493570000    -4.4590550000     1.8830640000
   13      C       2.5865790000    -5.3290630000     2.9567540000
   14      H       3.2628020000    -4.7556940000     3.6190690000
   15      H       3.1247110000    -6.2380950000     2.6094230000
   16      H       1.6866390000    -5.6372620000     3.5316670000
   17      C      -2.5032510000    -4.5722610000    -2.5990730000
   18      H      -3.1853560000    -5.1397430000    -3.2600970000
   19      H      -1.6729370000    -4.1531310000    -3.2070340000
   20      H      -3.0752130000    -3.7395310000    -2.1352140000
   21      C       0.8281070000    -2.3066540000     0.6944100000
   22      S      -1.1887940000    -2.3065010000    -0.9832560000
   23      C       0.0000000000    -1.4351850000     0.0000000000
   24      H       1.6321850000    -1.9781380000     1.3648510000
   25      H       0.2212880000    -9.6140330000     0.2349800000
   26      C       0.0000000000     0.0000000000     0.0000000000
   27      S       0.3827990000     0.8197950000     1.5075410000
   28      C       1.0466870000     2.2453250000     0.7188730000
   29      C       0.3829180000     0.8193890000    -1.0678720000
   30      C       0.9683230000     2.0802670000    -0.6864100000
   31      S       0.2825610000     0.5974320000    -2.8055160000
   32      C       1.0178390000     2.1873240000    -3.0545300000
   33      C       1.3149600000     2.8303060000    -1.8625510000
   34      F       1.8754980000     4.0437510000    -1.8190880000
   35      C       1.2088950000     2.5925730000    -4.4560840000
   36      O       0.8907780000     1.8914820000    -5.4065100000
   37      O       1.7728860000     3.8197150000    -4.5692250000
   38      C       1.9868520000     4.2662070000    -5.9162070000
   39      H       2.4458340000     5.2670320000    -5.8330640000
   40      H       1.0281140000     4.3234480000    -6.4701680000
   41      H       2.6610660000     3.5734940000    -6.4592930000
   42      H       1.4360150000     3.0835840000     1.3064860000
 ----------------------------------------------------------------

   10   -2754.3055710611      7.00e-07  Convergence criterion met
 Total energy in the final basis set =    -2754.3055710611
        RIMP2         total energy =     -2759.3589639137 a.u.

                    Orbital Energies (a.u.)
 --------------------------------------------------------------

 Alpha MOs
 -- Occupied --
-92.0154 -91.9994 -91.9888 -91.9858 -26.3434 -20.6146 -20.5920 -20.5909
-20.5609 -11.4091 -11.3826 -11.3190 -11.3165 -11.3131 -11.3043 -11.2969
-11.2958 -11.2943 -11.2887 -11.2864 -11.2860 -11.2851 -11.2849 -11.2836
-11.2788 -11.2606 -11.2577 -11.2539 -11.2495  -9.0139  -8.9994  -8.9893
 -8.9858  -6.6946  -6.6940  -6.6935  -6.6804  -6.6796  -6.6785  -6.6702
 -6.6695  -6.6686  -6.6668  -6.6661  -6.6653  -1.6605  -1.4670  -1.4160
 -1.4136  -1.3697  -1.2227  -1.1938  -1.1652  -1.1363  -1.0848  -1.0513
 -1.0419  -1.0234  -1.0009  -0.9876  -0.9634  -0.9588  -0.9497  -0.9400
 -0.8950  -0.8679  -0.8499  -0.8134  -0.7919  -0.7875  -0.7864  -0.7646
 -0.7552  -0.7332  -0.7253  -0.7101  -0.6992  -0.6851  -0.6828  -0.6810
 -0.6737  -0.6589  -0.6576  -0.6522  -0.6301  -0.6196  -0.6163  -0.6042
 -0.5984  -0.5877  -0.5758  -0.5690  -0.5669  -0.5633  -0.5543  -0.5527
 -0.5310  -0.5276  -0.5221  -0.5161  -0.5155  -0.5101  -0.5050  -0.4940
 -0.4888  -0.4796  -0.4757  -0.4733  -0.4702  -0.4648  -0.4601  -0.4155
 -0.3950  -0.3859  -0.3600  -0.3478  -0.3208  -0.2939  -0.2542

          Ground-State Mulliken Net Atomic Charges

     Atom                 Charge (a.u.)
  ----------------------------------------
      1 C                    -0.190695
      2 C                    -0.253474
      3 S                    -0.023524
      4 C                    -0.017193
      5 H                     0.196276
      6 C                    -0.027861
      7 C                     0.238257
      8 C                     0.245283
      9 C                    -0.044911
     10 C                    -0.020795
     11 O                    -0.333440
     12 O                    -0.340589
     13 C                    -0.085653
     14 H                     0.122166
     15 H                     0.091043
     16 H                     0.093657
     17 C                    -0.087264
     18 H                     0.124807
     19 H                     0.095620
     20 H                     0.089736
     21 C                    -0.242460
     22 S                    -0.009433
     23 C                    -0.022964
     24 H                     0.199095
     25 H                     0.206071
     26 C                    -0.043417
     27 S                     0.097650
     28 C                    -0.174170
     29 C                     0.020016
     30 C                    -0.105505
     31 S                     0.015394
     32 C                    -0.152095
     33 C                     0.392017
     34 F                    -0.206207
     35 C                     0.445894
     36 O                    -0.461190
     37 O                    -0.300993
     38 C                    -0.058468
     39 H                     0.121289
     40 H                     0.095058
     41 H                     0.095099
     42 H                     0.217876
  ----------------------------------------
  Sum of atomic charges =     0.000000

                    Cartesian Multipole Moments
 -----------------------------------------------------------------
    Charge (ESU x 10^10)
                -0.0000
    Dipole Moment (Debye)
         X       0.9780      Y       1.2646      Z       3.0009
       Tot       3.4002
    Quadrupole Moments (Debye-Ang)
        XX    -190.4023     XY       7.2400     YY    -164.2664
        XZ       8.9602     YZ      -7.5949     ZZ    -190.0703

 Total job time:  294.10s(wall), 9756.08s(cpu)
        *  Thank you very much for using Q-Chem.  Have a nice day.  *
