 Q-Chem 5.4, Q-Chem, Inc., Pleasanton, CA (2021)
 Q-Chem 5.4.0 for Intel X86 EM64T Linux

User input:
--------------------------------------------------------------
$molecule
0 1
C	0.284919	-8.517702	0.147685
C	-0.728574	-7.641575	-0.212552
S	1.745304	-7.638634	0.661757
C	-0.374824	-6.264785	-0.083761
H	-1.715621	-7.966081	-0.565513
C	0.965104	-6.072714	0.405665
C	1.502136	-4.787049	0.574617
C	-1.214687	-5.162801	-0.413763
C	-0.675870	-3.874817	-0.248748
C	0.664513	-3.683952	0.243888
O	-2.464209	-5.499772	-0.838511
O	2.757750	-4.459055	1.000176
C	3.441858	-5.329063	1.893778
H	4.303826	-4.755694	2.284868
H	3.828743	-6.238095	1.383341
H	2.792824	-5.637262	2.741817
C	-3.241222	-4.572261	-1.586168
H	-4.108274	-5.139743	-1.974033
H	-2.668916	-4.153131	-2.441448
H	-3.620041	-3.739531	-0.954660
C	1.015668	-2.306654	0.369302
S	-1.453394	-2.306501	-0.517367
C	0.000000	-1.435185	0.000000
H	2.000559	-1.978138	0.724300
H	0.288311	-9.614033	0.145124
C	0.000000	0.000000	0.000000
S	0.000474	0.904764	1.507541
C	-0.000295	2.477305	0.718873
C	0.000752	0.904447	-1.067872
C	-0.001560	2.294593	-0.686410
S	0.003602	0.660872	-2.805516
C	-0.001928	2.412546	-3.054530
C	-0.004381	3.120854	-1.862551
F	-0.009185	4.457503	-1.819088
C	-0.000038	2.860570	-4.456084
O	0.007944	2.090724	-5.406510
O	-0.007501	4.211092	-4.569225
C	-0.002278	4.706177	-5.916207
H	-0.009265	5.807207	-5.833064
H	-0.895381	4.352875	-6.470168
H	0.901521	4.363301	-6.459293
H	-0.001708	3.401562	1.306486
$end

$rem
JOBTYPE		SP
EXCHANGE	HF
CORRELATION	pRIMP2
BASIS		cc-pvtz
METHOD		rimp2
AUX_BASIS	rimp2-cc-pvtz
SOLVENT_METHOD	PCM
PURECART	11111
SYMMETRY	false
MEM_TOTAL	110000
SCF_CONVERGENCE = 6
THRESH=10
GUI = 2
$end

$solvent
dielectric 4.90
$end
--------------------------------------------------------------

             Standard Nuclear Orientation (Angstroms)
    I     Atom           X                Y                Z
 ----------------------------------------------------------------
    1      C       0.2849190000    -8.5177020000     0.1476850000
    2      C      -0.7285740000    -7.6415750000    -0.2125520000
    3      S       1.7453040000    -7.6386340000     0.6617570000
    4      C      -0.3748240000    -6.2647850000    -0.0837610000
    5      H      -1.7156210000    -7.9660810000    -0.5655130000
    6      C       0.9651040000    -6.0727140000     0.4056650000
    7      C       1.5021360000    -4.7870490000     0.5746170000
    8      C      -1.2146870000    -5.1628010000    -0.4137630000
    9      C      -0.6758700000    -3.8748170000    -0.2487480000
   10      C       0.6645130000    -3.6839520000     0.2438880000
   11      O      -2.4642090000    -5.4997720000    -0.8385110000
   12      O       2.7577500000    -4.4590550000     1.0001760000
   13      C       3.4418580000    -5.3290630000     1.8937780000
   14      H       4.3038260000    -4.7556940000     2.2848680000
   15      H       3.8287430000    -6.2380950000     1.3833410000
   16      H       2.7928240000    -5.6372620000     2.7418170000
   17      C      -3.2412220000    -4.5722610000    -1.5861680000
   18      H      -4.1082740000    -5.1397430000    -1.9740330000
   19      H      -2.6689160000    -4.1531310000    -2.4414480000
   20      H      -3.6200410000    -3.7395310000    -0.9546600000
   21      C       1.0156680000    -2.3066540000     0.3693020000
   22      S      -1.4533940000    -2.3065010000    -0.5173670000
   23      C       0.0000000000    -1.4351850000     0.0000000000
   24      H       2.0005590000    -1.9781380000     0.7243000000
   25      H       0.2883110000    -9.6140330000     0.1451240000
   26      C       0.0000000000     0.0000000000     0.0000000000
   27      S       0.0004740000     0.9047640000     1.5075410000
   28      C      -0.0002950000     2.4773050000     0.7188730000
   29      C       0.0007520000     0.9044470000    -1.0678720000
   30      C      -0.0015600000     2.2945930000    -0.6864100000
   31      S       0.0036020000     0.6608720000    -2.8055160000
   32      C      -0.0019280000     2.4125460000    -3.0545300000
   33      C      -0.0043810000     3.1208540000    -1.8625510000
   34      F      -0.0091850000     4.4575030000    -1.8190880000
   35      C      -0.0000380000     2.8605700000    -4.4560840000
   36      O       0.0079440000     2.0907240000    -5.4065100000
   37      O      -0.0075010000     4.2110920000    -4.5692250000
   38      C      -0.0022780000     4.7061770000    -5.9162070000
   39      H      -0.0092650000     5.8072070000    -5.8330640000
   40      H      -0.8953810000     4.3528750000    -6.4701680000
   41      H       0.9015210000     4.3633010000    -6.4592930000
   42      H      -0.0017080000     3.4015620000     1.3064860000
 ----------------------------------------------------------------

   10   -2754.3148583288      6.94e-07  Convergence criterion met
 Total energy in the final basis set =    -2754.3148583288
        RIMP2         total energy =     -2759.3644184749 a.u.

                    Orbital Energies (a.u.)
 --------------------------------------------------------------

 Alpha MOs
 -- Occupied --
-92.0150 -91.9965 -91.9893 -91.9866 -26.3425 -20.6142 -20.5924 -20.5920
-20.5605 -11.4086 -11.3813 -11.3193 -11.3187 -11.3081 -11.2996 -11.2974
-11.2963 -11.2924 -11.2884 -11.2868 -11.2865 -11.2865 -11.2842 -11.2835
-11.2803 -11.2608 -11.2596 -11.2585 -11.2502  -9.0133  -8.9966  -8.9897
 -8.9866  -6.6940  -6.6934  -6.6929  -6.6776  -6.6769  -6.6757  -6.6706
 -6.6699  -6.6690  -6.6675  -6.6669  -6.6661  -1.6596  -1.4666  -1.4165
 -1.4147  -1.3693  -1.2198  -1.1946  -1.1654  -1.1348  -1.0846  -1.0522
 -1.0404  -1.0218  -1.0019  -0.9878  -0.9623  -0.9597  -0.9503  -0.9388
 -0.8959  -0.8666  -0.8515  -0.8107  -0.7918  -0.7889  -0.7866  -0.7651
 -0.7549  -0.7341  -0.7245  -0.7091  -0.7000  -0.6846  -0.6835  -0.6802
 -0.6733  -0.6593  -0.6570  -0.6529  -0.6306  -0.6203  -0.6172  -0.6044
 -0.5968  -0.5850  -0.5772  -0.5697  -0.5670  -0.5617  -0.5554  -0.5509
 -0.5313  -0.5303  -0.5234  -0.5168  -0.5151  -0.5089  -0.5043  -0.4943
 -0.4896  -0.4780  -0.4763  -0.4728  -0.4705  -0.4660  -0.4610  -0.4071
 -0.3982  -0.3867  -0.3577  -0.3481  -0.3177  -0.2955  -0.2586

          Ground-State Mulliken Net Atomic Charges

     Atom                 Charge (a.u.)
  ----------------------------------------
      1 C                    -0.187473
      2 C                    -0.254205
      3 S                    -0.021803
      4 C                    -0.013620
      5 H                     0.196513
      6 C                    -0.027684
      7 C                     0.244370
      8 C                     0.239610
      9 C                    -0.045812
     10 C                    -0.030647
     11 O                    -0.333386
     12 O                    -0.339907
     13 C                    -0.085899
     14 H                     0.122700
     15 H                     0.091334
     16 H                     0.093982
     17 C                    -0.086999
     18 H                     0.124632
     19 H                     0.095641
     20 H                     0.089842
     21 C                    -0.221605
     22 S                     0.001680
     23 C                    -0.047064
     24 H                     0.197891
     25 H                     0.206572
     26 C                    -0.019162
     27 S                     0.108244
     28 C                    -0.188448
     29 C                     0.007875
     30 C                    -0.109818
     31 S                     0.007582
     32 C                    -0.153441
     33 C                     0.392785
     34 F                    -0.207209
     35 C                     0.444949
     36 O                    -0.461281
     37 O                    -0.300592
     38 C                    -0.058646
     39 H                     0.121218
     40 H                     0.094968
     41 H                     0.095019
     42 H                     0.217294
  ----------------------------------------
  Sum of atomic charges =     0.000000

                    Cartesian Multipole Moments
 -----------------------------------------------------------------
    Charge (ESU x 10^10)
                -0.0000
    Dipole Moment (Debye)
         X      -0.1521      Y       0.8003      Z       3.2638
       Tot       3.3639
    Quadrupole Moments (Debye-Ang)
        XX    -184.5067     XY       0.0857     YY    -159.0672
        XZ      11.7606     YZ      -8.7706     ZZ    -199.1191

 Total job time:  333.24s(wall), 11000.88s(cpu)
        *  Thank you very much for using Q-Chem.  Have a nice day.  *
