 Q-Chem 5.4, Q-Chem, Inc., Pleasanton, CA (2021)
 Q-Chem 5.4.0 for Intel X86 EM64T Linux

User input:
--------------------------------------------------------------
$molecule
0 1
C	-0.296276	-8.517702	0.123330
C	0.631143	-7.641575	-0.421494
S	-1.628795	-7.638634	0.911611
C	0.305097	-6.264785	-0.233291
H	1.535988	-7.966081	-0.950737
C	-0.931114	-6.072714	0.478557
C	-1.405737	-4.787049	0.781346
C	1.097747	-5.162801	-0.664542
C	0.624993	-3.874817	-0.357854
C	-0.613970	-3.683952	0.352278
O	2.226300	-5.499772	-1.348709
O	-2.538827	-4.459055	1.469658
C	-3.663102	-5.329063	1.419319
H	-4.516756	-4.755694	1.828237
H	-3.520769	-6.238095	2.043793
H	-3.895546	-5.637262	0.377021
C	3.298492	-4.572261	-1.463351
H	4.152945	-5.139743	-1.878237
H	3.585804	-4.153131	-0.475176
H	3.058230	-3.739531	-2.159469
C	-0.935761	-2.306654	0.540664
S	1.330550	-2.306501	-0.780808
C	-0.000000	-1.435185	-0.000000
H	-1.840780	-1.978138	1.066946
H	-0.296494	-9.614033	0.127575
C	0.000000	0.000000	0.000000
S	0.783786	0.451972	1.507541
C	2.145261	1.238908	0.718873
C	0.783650	0.451572	-1.067872
C	1.986396	1.148648	-0.686410
S	0.574133	0.327317	-2.805516
C	2.088363	1.207943	-3.054530
C	2.700548	1.564221	-1.862551
F	3.855718	2.236706	-1.819088
C	2.477307	1.430318	-4.456084
O	1.814592	1.038482	-5.406510
O	3.643162	2.112042	-4.569225
C	4.074530	2.355061	-5.916207
H	5.024556	2.911627	-5.833064
H	3.322010	2.951860	-6.470168
H	4.229490	1.400910	-6.459293
H	2.944986	1.702260	1.306486
$end

$rem
JOBTYPE		SP
EXCHANGE	HF
CORRELATION	pRIMP2
BASIS		cc-pvtz
METHOD		rimp2
AUX_BASIS	rimp2-cc-pvtz
SOLVENT_METHOD	PCM
PURECART	11111
SYMMETRY	false
MEM_TOTAL	110000
SCF_CONVERGENCE = 6
THRESH=10
GUI = 2
$end

$solvent
dielectric 4.90
$end
--------------------------------------------------------------

             Standard Nuclear Orientation (Angstroms)
    I     Atom           X                Y                Z
 ----------------------------------------------------------------
    1      C      -0.2962760000    -8.5177020000     0.1233300000
    2      C       0.6311430000    -7.6415750000    -0.4214940000
    3      S      -1.6287950000    -7.6386340000     0.9116110000
    4      C       0.3050970000    -6.2647850000    -0.2332910000
    5      H       1.5359880000    -7.9660810000    -0.9507370000
    6      C      -0.9311140000    -6.0727140000     0.4785570000
    7      C      -1.4057370000    -4.7870490000     0.7813460000
    8      C       1.0977470000    -5.1628010000    -0.6645420000
    9      C       0.6249930000    -3.8748170000    -0.3578540000
   10      C      -0.6139700000    -3.6839520000     0.3522780000
   11      O       2.2263000000    -5.4997720000    -1.3487090000
   12      O      -2.5388270000    -4.4590550000     1.4696580000
   13      C      -3.6631020000    -5.3290630000     1.4193190000
   14      H      -4.5167560000    -4.7556940000     1.8282370000
   15      H      -3.5207690000    -6.2380950000     2.0437930000
   16      H      -3.8955460000    -5.6372620000     0.3770210000
   17      C       3.2984920000    -4.5722610000    -1.4633510000
   18      H       4.1529450000    -5.1397430000    -1.8782370000
   19      H       3.5858040000    -4.1531310000    -0.4751760000
   20      H       3.0582300000    -3.7395310000    -2.1594690000
   21      C      -0.9357610000    -2.3066540000     0.5406640000
   22      S       1.3305500000    -2.3065010000    -0.7808080000
   23      C       0.0000000000    -1.4351850000     0.0000000000
   24      H      -1.8407800000    -1.9781380000     1.0669460000
   25      H      -0.2964940000    -9.6140330000     0.1275750000
   26      C       0.0000000000     0.0000000000     0.0000000000
   27      S       0.7837860000     0.4519720000     1.5075410000
   28      C       2.1452610000     1.2389080000     0.7188730000
   29      C       0.7836500000     0.4515720000    -1.0678720000
   30      C       1.9863960000     1.1486480000    -0.6864100000
   31      S       0.5741330000     0.3273170000    -2.8055160000
   32      C       2.0883630000     1.2079430000    -3.0545300000
   33      C       2.7005480000     1.5642210000    -1.8625510000
   34      F       3.8557180000     2.2367060000    -1.8190880000
   35      C       2.4773070000     1.4303180000    -4.4560840000
   36      O       1.8145920000     1.0384820000    -5.4065100000
   37      O       3.6431620000     2.1120420000    -4.5692250000
   38      C       4.0745300000     2.3550610000    -5.9162070000
   39      H       5.0245560000     2.9116270000    -5.8330640000
   40      H       3.3220100000     2.9518600000    -6.4701680000
   41      H       4.2294900000     1.4009100000    -6.4592930000
   42      H       2.9449860000     1.7022600000     1.3064860000
 ----------------------------------------------------------------

   10   -2754.2480518655      7.64e-07  Convergence criterion met
 Total energy in the final basis set =    -2754.2480518655
        RIMP2         total energy =     -2759.3146662689 a.u.

                    Orbital Energies (a.u.)
 --------------------------------------------------------------

 Alpha MOs
 -- Occupied --
-92.0157 -92.0087 -91.9833 -91.9817 -26.3465 -20.6160 -20.5905 -20.5876
-20.5625 -11.4111 -11.3872 -11.3358 -11.3193 -11.3160 -11.3111 -11.2996
-11.2902 -11.2897 -11.2896 -11.2860 -11.2840 -11.2807 -11.2789 -11.2757
-11.2679 -11.2555 -11.2533 -11.2476 -11.2388  -9.0149  -9.0084  -8.9833
 -8.9828  -6.6954  -6.6945  -6.6943  -6.6893  -6.6885  -6.6876  -6.6643
 -6.6638  -6.6636  -6.6630  -6.6628  -6.6621  -1.6636  -1.4686  -1.4144
 -1.4104  -1.3713  -1.2354  -1.1894  -1.1641  -1.1401  -1.0851  -1.0482
 -1.0444  -1.0277  -0.9972  -0.9868  -0.9659  -0.9568  -0.9484  -0.9394
 -0.8925  -0.8722  -0.8431  -0.8164  -0.7951  -0.7847  -0.7809  -0.7634
 -0.7561  -0.7302  -0.7283  -0.7128  -0.6983  -0.6869  -0.6838  -0.6785
 -0.6751  -0.6615  -0.6568  -0.6501  -0.6287  -0.6173  -0.6158  -0.6100
 -0.5992  -0.5866  -0.5746  -0.5702  -0.5648  -0.5612  -0.5528  -0.5361
 -0.5322  -0.5289  -0.5202  -0.5184  -0.5130  -0.5088  -0.5056  -0.4954
 -0.4884  -0.4833  -0.4762  -0.4739  -0.4660  -0.4622  -0.4572  -0.4055
 -0.3983  -0.3798  -0.3555  -0.3483  -0.3233  -0.2940  -0.2512

          Ground-State Mulliken Net Atomic Charges

     Atom                 Charge (a.u.)
  ----------------------------------------
      1 C                    -0.196768
      2 C                    -0.253297
      3 S                    -0.027924
      4 C                    -0.023801
      5 H                     0.195209
      6 C                    -0.024990
      7 C                     0.229903
      8 C                     0.243370
      9 C                    -0.046971
     10 C                     0.000703
     11 O                    -0.333493
     12 O                    -0.340833
     13 C                    -0.085567
     14 H                     0.121315
     15 H                     0.090109
     16 H                     0.093022
     17 C                    -0.087822
     18 H                     0.125063
     19 H                     0.093205
     20 H                     0.089656
     21 C                    -0.295922
     22 S                    -0.032054
     23 C                     0.011856
     24 H                     0.190948
     25 H                     0.204840
     26 C                    -0.170974
     27 S                     0.139032
     28 C                    -0.116320
     29 C                     0.035365
     30 C                    -0.115216
     31 S                     0.081400
     32 C                    -0.148965
     33 C                     0.399979
     34 F                    -0.204670
     35 C                     0.448061
     36 O                    -0.461429
     37 O                    -0.301121
     38 C                    -0.058087
     39 H                     0.121586
     40 H                     0.095509
     41 H                     0.095305
     42 H                     0.220788
  ----------------------------------------
  Sum of atomic charges =     0.000000

                    Cartesian Multipole Moments
 -----------------------------------------------------------------
    Charge (ESU x 10^10)
                -0.0000
    Dipole Moment (Debye)
         X       3.9904      Y       1.8951      Z       2.1474
       Tot       4.9118
    Quadrupole Moments (Debye-Ang)
        XX    -166.1412     XY       8.1041     YY    -180.4975
        XZ     -12.7400     YZ      -1.8958     ZZ    -201.7666

 Total job time:  317.21s(wall), 9707.46s(cpu)
        *  Thank you very much for using Q-Chem.  Have a nice day.  *
