 Q-Chem 5.4, Q-Chem, Inc., Pleasanton, CA (2021)
 Q-Chem 5.4.0 for Intel X86 EM64T Linux

User input:
--------------------------------------------------------------
$molecule
0 1
C	-0.070009	-8.517702	-0.313191
C	0.305494	-7.641575	0.694746
S	-0.614924	-7.638634	-1.762350
C	0.176768	-6.264785	0.340973
H	0.669571	-7.966081	1.677747
C	-0.309600	-6.072714	-1.000069
C	-0.525372	-4.787049	-1.520060
C	0.463825	-5.162801	1.196466
C	0.243888	-3.874817	0.677639
C	-0.240312	-3.683952	-0.665815
O	0.941626	-5.499772	2.426678
O	-1.006468	-4.459055	-2.755460
C	-0.761666	-5.329063	-3.853913
H	-1.016135	-4.755694	-4.765607
H	-1.401368	-6.238095	-3.822182
H	0.305161	-5.637262	-3.901833
C	0.868342	-4.572261	3.502489
H	1.128551	-5.139743	4.416005
H	-0.154712	-4.153131	3.613841
H	1.595605	-3.739531	3.386756
C	-0.369957	-2.306654	-1.015430
S	0.537898	-2.306501	1.445922
C	0.000000	-1.435185	0.000000
H	-0.731088	-1.978138	-1.998088
H	-0.074151	-9.614033	-0.314143
C	0.000000	0.000000	0.000000
S	0.000474	0.904764	1.507541
C	-0.000295	2.477305	0.718873
C	0.000752	0.904447	-1.067872
C	-0.001560	2.294593	-0.686410
S	0.003602	0.660872	-2.805516
C	-0.001928	2.412546	-3.054530
C	-0.004381	3.120854	-1.862551
F	-0.009185	4.457503	-1.819088
C	-0.000038	2.860570	-4.456084
O	0.007944	2.090724	-5.406510
O	-0.007501	4.211092	-4.569225
C	-0.002278	4.706177	-5.916207
H	-0.009265	5.807207	-5.833064
H	-0.895381	4.352875	-6.470168
H	0.901521	4.363301	-6.459293
H	-0.001708	3.401562	1.306486
$end

$rem
JOBTYPE		SP
EXCHANGE	HF
CORRELATION	pRIMP2
BASIS		cc-pvtz
METHOD		rimp2
AUX_BASIS	rimp2-cc-pvtz
SOLVENT_METHOD	PCM
PURECART	11111
SYMMETRY	false
MEM_TOTAL	110000
SCF_CONVERGENCE = 6
THRESH=10
GUI = 2
$end

$solvent
dielectric 4.90
$end
--------------------------------------------------------------

             Standard Nuclear Orientation (Angstroms)
    I     Atom           X                Y                Z
 ----------------------------------------------------------------
    1      C      -0.0700090000    -8.5177020000    -0.3131910000
    2      C       0.3054940000    -7.6415750000     0.6947460000
    3      S      -0.6149240000    -7.6386340000    -1.7623500000
    4      C       0.1767680000    -6.2647850000     0.3409730000
    5      H       0.6695710000    -7.9660810000     1.6777470000
    6      C      -0.3096000000    -6.0727140000    -1.0000690000
    7      C      -0.5253720000    -4.7870490000    -1.5200600000
    8      C       0.4638250000    -5.1628010000     1.1964660000
    9      C       0.2438880000    -3.8748170000     0.6776390000
   10      C      -0.2403120000    -3.6839520000    -0.6658150000
   11      O       0.9416260000    -5.4997720000     2.4266780000
   12      O      -1.0064680000    -4.4590550000    -2.7554600000
   13      C      -0.7616660000    -5.3290630000    -3.8539130000
   14      H      -1.0161350000    -4.7556940000    -4.7656070000
   15      H      -1.4013680000    -6.2380950000    -3.8221820000
   16      H       0.3051610000    -5.6372620000    -3.9018330000
   17      C       0.8683420000    -4.5722610000     3.5024890000
   18      H       1.1285510000    -5.1397430000     4.4160050000
   19      H      -0.1547120000    -4.1531310000     3.6138410000
   20      H       1.5956050000    -3.7395310000     3.3867560000
   21      C      -0.3699570000    -2.3066540000    -1.0154300000
   22      S       0.5378980000    -2.3065010000     1.4459220000
   23      C       0.0000000000    -1.4351850000     0.0000000000
   24      H      -0.7310880000    -1.9781380000    -1.9980880000
   25      H      -0.0741510000    -9.6140330000    -0.3141430000
   26      C       0.0000000000     0.0000000000     0.0000000000
   27      S       0.0004740000     0.9047640000     1.5075410000
   28      C      -0.0002950000     2.4773050000     0.7188730000
   29      C       0.0007520000     0.9044470000    -1.0678720000
   30      C      -0.0015600000     2.2945930000    -0.6864100000
   31      S       0.0036020000     0.6608720000    -2.8055160000
   32      C      -0.0019280000     2.4125460000    -3.0545300000
   33      C      -0.0043810000     3.1208540000    -1.8625510000
   34      F      -0.0091850000     4.4575030000    -1.8190880000
   35      C      -0.0000380000     2.8605700000    -4.4560840000
   36      O       0.0079440000     2.0907240000    -5.4065100000
   37      O      -0.0075010000     4.2110920000    -4.5692250000
   38      C      -0.0022780000     4.7061770000    -5.9162070000
   39      H      -0.0092650000     5.8072070000    -5.8330640000
   40      H      -0.8953810000     4.3528750000    -6.4701680000
   41      H       0.9015210000     4.3633010000    -6.4592930000
   42      H      -0.0017080000     3.4015620000     1.3064860000
 ----------------------------------------------------------------

   10   -2754.3169869267      7.55e-07  Convergence criterion met
 Total energy in the final basis set =    -2754.3169869267
        RIMP2         total energy =     -2759.3691499108 a.u.

                    Orbital Energies (a.u.)
 --------------------------------------------------------------

 Alpha MOs
 -- Occupied --
-92.0163 -91.9991 -91.9916 -91.9865 -26.3434 -20.6148 -20.5932 -20.5911
-20.5614 -11.4095 -11.3826 -11.3203 -11.3178 -11.3096 -11.3021 -11.2994
-11.2978 -11.2974 -11.2888 -11.2879 -11.2873 -11.2858 -11.2855 -11.2845
-11.2797 -11.2624 -11.2590 -11.2566 -11.2502  -9.0149  -8.9990  -8.9922
 -8.9864  -6.6957  -6.6951  -6.6945  -6.6800  -6.6793  -6.6782  -6.6732
 -6.6725  -6.6715  -6.6674  -6.6668  -6.6659  -1.6604  -1.4673  -1.4172
 -1.4139  -1.3700  -1.2219  -1.1953  -1.1666  -1.1367  -1.0859  -1.0526
 -1.0419  -1.0236  -1.0023  -0.9888  -0.9641  -0.9600  -0.9507  -0.9395
 -0.8968  -0.8681  -0.8527  -0.8083  -0.7992  -0.7883  -0.7865  -0.7646
 -0.7554  -0.7347  -0.7253  -0.7099  -0.7022  -0.6858  -0.6838  -0.6809
 -0.6739  -0.6596  -0.6587  -0.6526  -0.6310  -0.6201  -0.6172  -0.6027
 -0.5982  -0.5852  -0.5793  -0.5710  -0.5655  -0.5602  -0.5549  -0.5513
 -0.5360  -0.5306  -0.5227  -0.5197  -0.5172  -0.5116  -0.5053  -0.4955
 -0.4875  -0.4809  -0.4774  -0.4742  -0.4698  -0.4665  -0.4610  -0.4251
 -0.3966  -0.3850  -0.3607  -0.3492  -0.3271  -0.2898  -0.2511

          Ground-State Mulliken Net Atomic Charges

     Atom                 Charge (a.u.)
  ----------------------------------------
      1 C                    -0.188943
      2 C                    -0.254354
      3 S                    -0.021146
      4 C                    -0.015755
      5 H                     0.196197
      6 C                    -0.027392
      7 C                     0.244868
      8 C                     0.240673
      9 C                    -0.040698
     10 C                    -0.031065
     11 O                    -0.332915
     12 O                    -0.340222
     13 C                    -0.086263
     14 H                     0.123613
     15 H                     0.091374
     16 H                     0.093994
     17 C                    -0.088043
     18 H                     0.125817
     19 H                     0.094901
     20 H                     0.089681
     21 C                    -0.219166
     22 S                    -0.034725
     23 C                    -0.013634
     24 H                     0.192017
     25 H                     0.206419
     26 C                    -0.003877
     27 S                     0.081788
     28 C                    -0.188541
     29 C                     0.030841
     30 C                    -0.123383
     31 S                     0.005226
     32 C                    -0.159333
     33 C                     0.403400
     34 F                    -0.206821
     35 C                     0.443893
     36 O                    -0.460987
     37 O                    -0.300535
     38 C                    -0.058704
     39 H                     0.121487
     40 H                     0.095185
     41 H                     0.095135
     42 H                     0.219992
  ----------------------------------------
  Sum of atomic charges =     0.000000

                    Cartesian Multipole Moments
 -----------------------------------------------------------------
    Charge (ESU x 10^10)
                 0.0000
    Dipole Moment (Debye)
         X       0.2573      Y       1.0455      Z       3.0186
       Tot       3.2049
    Quadrupole Moments (Debye-Ang)
        XX    -201.9488     XY      -1.2209     YY    -158.9402
        XZ       2.9547     YZ      -6.8853     ZZ    -181.3168

 Total job time:  450.85s(wall), 10291.49s(cpu)
        *  Thank you very much for using Q-Chem.  Have a nice day.  *
