 Q-Chem 5.4, Q-Chem, Inc., Pleasanton, CA (2021)
 Q-Chem 5.4.0 for Intel X86 EM64T Linux

User input:
--------------------------------------------------------------
$molecule
0 1
C	0.236226	-8.517702	-0.217225
C	-0.448921	-7.641575	0.611939
S	1.218777	-7.638634	-1.413715
C	-0.206907	-6.264785	0.323572
H	-1.118185	-7.966081	1.418739
C	0.711285	-6.072714	-0.768156
C	1.053725	-4.787049	-1.215016
C	-0.804258	-5.162801	0.999917
C	-0.464908	-3.874817	0.550033
C	0.456457	-3.683952	-0.541024
O	-1.630752	-5.499772	2.028811
O	1.883064	-4.459055	-2.249357
C	2.956754	-5.329063	-2.586579
H	3.619069	-4.755694	-3.262802
H	2.609423	-6.238095	-3.124711
H	3.531667	-5.637262	-1.686639
C	-2.599073	-4.572261	2.503251
H	-3.260097	-5.139743	3.185356
H	-3.207034	-4.153131	1.672937
H	-2.135214	-3.739531	3.075213
C	0.694410	-2.306654	-0.828107
S	-0.983256	-2.306501	1.188794
C	-0.000000	-1.435185	-0.000000
H	1.364851	-1.978138	-1.632185
H	0.234980	-9.614033	-0.221288
C	0.000000	0.000000	0.000000
S	0.079327	0.901280	1.507541
C	0.215617	2.467903	0.718873
C	0.079577	0.900940	-1.067872
C	0.198433	2.285998	-0.686410
S	0.061187	0.658044	-2.805516
C	0.208347	2.403534	-3.054530
C	0.267636	3.109360	-1.862551
F	0.379347	4.441341	-1.819088
C	0.249278	2.849688	-4.456084
O	0.190132	2.082076	-5.406510
O	0.359548	4.195721	-4.569225
C	0.407901	4.688467	-5.916207
H	0.496901	5.785916	-5.833064
H	-0.512596	4.414348	-6.470168
H	1.278377	4.268124	-6.459293
H	0.294764	3.388767	1.306486
$end

$rem
JOBTYPE		SP
EXCHANGE	HF
CORRELATION	pRIMP2
BASIS		cc-pvtz
METHOD		rimp2
AUX_BASIS	rimp2-cc-pvtz
SOLVENT_METHOD	PCM
PURECART	11111
SYMMETRY	false
MEM_TOTAL	110000
SCF_CONVERGENCE = 6
THRESH=10
GUI = 2
$end

$solvent
dielectric 4.90
$end
--------------------------------------------------------------

             Standard Nuclear Orientation (Angstroms)
    I     Atom           X                Y                Z
 ----------------------------------------------------------------
    1      C       0.2362260000    -8.5177020000    -0.2172250000
    2      C      -0.4489210000    -7.6415750000     0.6119390000
    3      S       1.2187770000    -7.6386340000    -1.4137150000
    4      C      -0.2069070000    -6.2647850000     0.3235720000
    5      H      -1.1181850000    -7.9660810000     1.4187390000
    6      C       0.7112850000    -6.0727140000    -0.7681560000
    7      C       1.0537250000    -4.7870490000    -1.2150160000
    8      C      -0.8042580000    -5.1628010000     0.9999170000
    9      C      -0.4649080000    -3.8748170000     0.5500330000
   10      C       0.4564570000    -3.6839520000    -0.5410240000
   11      O      -1.6307520000    -5.4997720000     2.0288110000
   12      O       1.8830640000    -4.4590550000    -2.2493570000
   13      C       2.9567540000    -5.3290630000    -2.5865790000
   14      H       3.6190690000    -4.7556940000    -3.2628020000
   15      H       2.6094230000    -6.2380950000    -3.1247110000
   16      H       3.5316670000    -5.6372620000    -1.6866390000
   17      C      -2.5990730000    -4.5722610000     2.5032510000
   18      H      -3.2600970000    -5.1397430000     3.1853560000
   19      H      -3.2070340000    -4.1531310000     1.6729370000
   20      H      -2.1352140000    -3.7395310000     3.0752130000
   21      C       0.6944100000    -2.3066540000    -0.8281070000
   22      S      -0.9832560000    -2.3065010000     1.1887940000
   23      C       0.0000000000    -1.4351850000     0.0000000000
   24      H       1.3648510000    -1.9781380000    -1.6321850000
   25      H       0.2349800000    -9.6140330000    -0.2212880000
   26      C       0.0000000000     0.0000000000     0.0000000000
   27      S       0.0793270000     0.9012800000     1.5075410000
   28      C       0.2156170000     2.4679030000     0.7188730000
   29      C       0.0795770000     0.9009400000    -1.0678720000
   30      C       0.1984330000     2.2859980000    -0.6864100000
   31      S       0.0611870000     0.6580440000    -2.8055160000
   32      C       0.2083470000     2.4035340000    -3.0545300000
   33      C       0.2676360000     3.1093600000    -1.8625510000
   34      F       0.3793470000     4.4413410000    -1.8190880000
   35      C       0.2492780000     2.8496880000    -4.4560840000
   36      O       0.1901320000     2.0820760000    -5.4065100000
   37      O       0.3595480000     4.1957210000    -4.5692250000
   38      C       0.4079010000     4.6884670000    -5.9162070000
   39      H       0.4969010000     5.7859160000    -5.8330640000
   40      H      -0.5125960000     4.4143480000    -6.4701680000
   41      H       1.2783770000     4.2681240000    -6.4592930000
   42      H       0.2947640000     3.3887670000     1.3064860000
 ----------------------------------------------------------------

   10   -2754.3164609239      7.24e-07  Convergence criterion met
 Total energy in the final basis set =    -2754.3164609239
        RIMP2         total energy =     -2759.3674132060 a.u.

                    Orbital Energies (a.u.)
 --------------------------------------------------------------

 Alpha MOs
 -- Occupied --
-92.0155 -91.9975 -91.9909 -91.9866 -26.3428 -20.6145 -20.5929 -20.5913
-20.5609 -11.4090 -11.3817 -11.3199 -11.3181 -11.3089 -11.3006 -11.2993
-11.2971 -11.2957 -11.2886 -11.2876 -11.2869 -11.2858 -11.2848 -11.2844
-11.2799 -11.2618 -11.2592 -11.2570 -11.2501  -9.0140  -8.9975  -8.9914
 -8.9865  -6.6948  -6.6942  -6.6937  -6.6785  -6.6778  -6.6766  -6.6723
 -6.6717  -6.6707  -6.6674  -6.6668  -6.6660  -1.6599  -1.4670  -1.4170
 -1.4141  -1.3696  -1.2210  -1.1950  -1.1661  -1.1359  -1.0853  -1.0524
 -1.0413  -1.0227  -1.0021  -0.9883  -0.9632  -0.9600  -0.9506  -0.9390
 -0.8965  -0.8673  -0.8521  -0.8078  -0.7982  -0.7874  -0.7870  -0.7646
 -0.7551  -0.7344  -0.7248  -0.7094  -0.7020  -0.6850  -0.6834  -0.6804
 -0.6736  -0.6595  -0.6578  -0.6527  -0.6307  -0.6201  -0.6173  -0.6036
 -0.5975  -0.5841  -0.5787  -0.5707  -0.5657  -0.5620  -0.5537  -0.5498
 -0.5347  -0.5304  -0.5247  -0.5168  -0.5163  -0.5078  -0.5068  -0.4961
 -0.4884  -0.4805  -0.4758  -0.4735  -0.4684  -0.4678  -0.4606  -0.4198
 -0.3961  -0.3857  -0.3591  -0.3499  -0.3241  -0.2908  -0.2536

          Ground-State Mulliken Net Atomic Charges

     Atom                 Charge (a.u.)
  ----------------------------------------
      1 C                    -0.188576
      2 C                    -0.253757
      3 S                    -0.021270
      4 C                    -0.015631
      5 H                     0.196342
      6 C                    -0.028461
      7 C                     0.243377
      8 C                     0.240288
      9 C                    -0.045099
     10 C                    -0.027090
     11 O                    -0.333168
     12 O                    -0.339178
     13 C                    -0.085979
     14 H                     0.123159
     15 H                     0.091201
     16 H                     0.093740
     17 C                    -0.087312
     18 H                     0.125436
     19 H                     0.095344
     20 H                     0.089343
     21 C                    -0.230302
     22 S                    -0.019789
     23 C                    -0.011690
     24 H                     0.200738
     25 H                     0.206467
     26 C                    -0.012793
     27 S                     0.097052
     28 C                    -0.192373
     29 C                    -0.000171
     30 C                    -0.108750
     31 S                     0.009561
     32 C                    -0.154157
     33 C                     0.396598
     34 F                    -0.207281
     35 C                     0.444032
     36 O                    -0.460749
     37 O                    -0.300553
     38 C                    -0.058661
     39 H                     0.121322
     40 H                     0.095210
     41 H                     0.094997
     42 H                     0.218584
  ----------------------------------------
  Sum of atomic charges =     0.000000

                    Cartesian Multipole Moments
 -----------------------------------------------------------------
    Charge (ESU x 10^10)
                 0.0000
    Dipole Moment (Debye)
         X       0.3772      Y       0.9108      Z       3.2132
       Tot       3.3610
    Quadrupole Moments (Debye-Ang)
        XX    -185.7228     XY       0.1052     YY    -159.1883
        XZ     -12.7485     YZ      -8.0634     ZZ    -197.5750

 Total job time:  283.41s(wall), 9475.76s(cpu)
        *  Thank you very much for using Q-Chem.  Have a nice day.  *
