 Q-Chem 5.4, Q-Chem, Inc., Pleasanton, CA (2021)
 Q-Chem 5.4.0 for Intel X86 EM64T Linux

User input:
--------------------------------------------------------------
$molecule
0 1
C	0.320589	-8.517702	-0.014560
C	-0.737240	-7.641575	0.180211
S	1.842356	-7.638634	-0.299553
C	-0.366488	-6.264785	0.114873
H	-1.768528	-7.966081	0.368061
C	1.038637	-6.072714	-0.131236
C	1.588197	-4.787049	-0.253435
C	-1.258831	-5.162801	0.249014
C	-0.709695	-3.874817	0.122513
C	0.697430	-3.683952	-0.121043
O	-2.553323	-5.499772	0.505933
O	2.888369	-4.459055	-0.512697
C	3.927625	-5.329063	-0.080869
H	4.869656	-4.755694	-0.173159
H	4.007459	-6.238095	-0.716363
H	3.789565	-5.637262	0.978072
C	-3.600064	-4.572261	0.246949
H	-4.544887	-5.139743	0.344574
H	-3.532074	-4.153131	-0.779898
H	-3.612378	-3.739531	0.983261
C	1.064246	-2.306654	-0.188009
S	-1.517360	-2.306501	0.278644
C	-0.000000	-1.435185	-0.000000
H	2.094685	-1.978138	-0.373017
H	0.322246	-9.614033	-0.018474
C	0.000000	0.000000	0.000000
S	0.309893	0.850039	1.507541
C	0.847011	2.328006	0.718873
C	0.310046	0.849645	-1.067872
C	0.783331	2.156746	-0.686410
S	0.229416	0.619785	-2.805516
C	0.823328	2.267711	-3.054530
C	1.063278	2.934142	-1.862551
F	1.515925	4.191824	-1.819088
C	0.978337	2.688069	-4.456084
O	0.722535	1.961921	-5.406510
O	1.433229	3.959697	-4.569225
C	1.607467	4.423139	-5.916207
H	1.977475	5.460158	-5.833064
H	0.647388	4.396602	-6.470168
H	2.339490	3.791823	-6.459293
H	1.161798	3.197007	1.306486
$end

$rem
JOBTYPE		SP
EXCHANGE	HF
CORRELATION	pRIMP2
BASIS		cc-pvtz
METHOD		rimp2
AUX_BASIS	rimp2-cc-pvtz
SOLVENT_METHOD	PCM
PURECART	11111
SYMMETRY	false
MEM_TOTAL	110000
SCF_CONVERGENCE = 6
THRESH=10
GUI = 2
$end

$solvent
dielectric 4.90
$end
--------------------------------------------------------------

             Standard Nuclear Orientation (Angstroms)
    I     Atom           X                Y                Z
 ----------------------------------------------------------------
    1      C       0.3205890000    -8.5177020000    -0.0145600000
    2      C      -0.7372400000    -7.6415750000     0.1802110000
    3      S       1.8423560000    -7.6386340000    -0.2995530000
    4      C      -0.3664880000    -6.2647850000     0.1148730000
    5      H      -1.7685280000    -7.9660810000     0.3680610000
    6      C       1.0386370000    -6.0727140000    -0.1312360000
    7      C       1.5881970000    -4.7870490000    -0.2534350000
    8      C      -1.2588310000    -5.1628010000     0.2490140000
    9      C      -0.7096950000    -3.8748170000     0.1225130000
   10      C       0.6974300000    -3.6839520000    -0.1210430000
   11      O      -2.5533230000    -5.4997720000     0.5059330000
   12      O       2.8883690000    -4.4590550000    -0.5126970000
   13      C       3.9276250000    -5.3290630000    -0.0808690000
   14      H       4.8696560000    -4.7556940000    -0.1731590000
   15      H       4.0074590000    -6.2380950000    -0.7163630000
   16      H       3.7895650000    -5.6372620000     0.9780720000
   17      C      -3.6000640000    -4.5722610000     0.2469490000
   18      H      -4.5448870000    -5.1397430000     0.3445740000
   19      H      -3.5320740000    -4.1531310000    -0.7798980000
   20      H      -3.6123780000    -3.7395310000     0.9832610000
   21      C       1.0642460000    -2.3066540000    -0.1880090000
   22      S      -1.5173600000    -2.3065010000     0.2786440000
   23      C       0.0000000000    -1.4351850000     0.0000000000
   24      H       2.0946850000    -1.9781380000    -0.3730170000
   25      H       0.3222460000    -9.6140330000    -0.0184740000
   26      C       0.0000000000     0.0000000000     0.0000000000
   27      S       0.3098930000     0.8500390000     1.5075410000
   28      C       0.8470110000     2.3280060000     0.7188730000
   29      C       0.3100460000     0.8496450000    -1.0678720000
   30      C       0.7833310000     2.1567460000    -0.6864100000
   31      S       0.2294160000     0.6197850000    -2.8055160000
   32      C       0.8233280000     2.2677110000    -3.0545300000
   33      C       1.0632780000     2.9341420000    -1.8625510000
   34      F       1.5159250000     4.1918240000    -1.8190880000
   35      C       0.9783370000     2.6880690000    -4.4560840000
   36      O       0.7225350000     1.9619210000    -5.4065100000
   37      O       1.4332290000     3.9596970000    -4.5692250000
   38      C       1.6074670000     4.4231390000    -5.9162070000
   39      H       1.9774750000     5.4601580000    -5.8330640000
   40      H       0.6473880000     4.3966020000    -6.4701680000
   41      H       2.3394900000     3.7918230000    -6.4592930000
   42      H       1.1617980000     3.1970070000     1.3064860000
 ----------------------------------------------------------------

   10   -2754.3071372423      7.38e-07  Convergence criterion met
 Total energy in the final basis set =    -2754.3071372423
        RIMP2         total energy =     -2759.3582309603 a.u.

                    Orbital Energies (a.u.)
 --------------------------------------------------------------

 Alpha MOs
 -- Occupied --
-92.0141 -91.9975 -91.9873 -91.9862 -26.3428 -20.6142 -20.5921 -20.5914
-20.5605 -11.4086 -11.3818 -11.3187 -11.3179 -11.3116 -11.3022 -11.2963
-11.2931 -11.2913 -11.2885 -11.2867 -11.2861 -11.2853 -11.2837 -11.2836
-11.2798 -11.2602 -11.2588 -11.2572 -11.2498  -9.0126  -8.9975  -8.9877
 -8.9861  -6.6933  -6.6927  -6.6922  -6.6785  -6.6777  -6.6766  -6.6687
 -6.6680  -6.6671  -6.6670  -6.6664  -6.6656  -1.6599  -1.4666  -1.4162
 -1.4141  -1.3693  -1.2207  -1.1938  -1.1648  -1.1352  -1.0840  -1.0515
 -1.0409  -1.0219  -1.0009  -0.9874  -0.9611  -0.9605  -0.9500  -0.9387
 -0.8952  -0.8669  -0.8501  -0.8090  -0.7944  -0.7883  -0.7860  -0.7644
 -0.7548  -0.7335  -0.7248  -0.7092  -0.7008  -0.6845  -0.6828  -0.6801
 -0.6734  -0.6590  -0.6570  -0.6525  -0.6299  -0.6199  -0.6169  -0.6050
 -0.5972  -0.5848  -0.5761  -0.5703  -0.5666  -0.5615  -0.5532  -0.5520
 -0.5305  -0.5292  -0.5235  -0.5160  -0.5144  -0.5084  -0.5038  -0.4944
 -0.4890  -0.4794  -0.4748  -0.4729  -0.4692  -0.4658  -0.4606  -0.4053
 -0.3965  -0.3869  -0.3578  -0.3475  -0.3148  -0.2986  -0.2582

          Ground-State Mulliken Net Atomic Charges

     Atom                 Charge (a.u.)
  ----------------------------------------
      1 C                    -0.188402
      2 C                    -0.254164
      3 S                    -0.022363
      4 C                    -0.015239
      5 H                     0.196325
      6 C                    -0.028995
      7 C                     0.241262
      8 C                     0.243317
      9 C                    -0.053819
     10 C                    -0.020521
     11 O                    -0.333648
     12 O                    -0.339785
     13 C                    -0.085712
     14 H                     0.122580
     15 H                     0.091238
     16 H                     0.093748
     17 C                    -0.086172
     18 H                     0.124495
     19 H                     0.094919
     20 H                     0.089441
     21 C                    -0.200389
     22 S                     0.000426
     23 C                    -0.034120
     24 H                     0.199034
     25 H                     0.206390
     26 C                    -0.057767
     27 S                     0.109791
     28 C                    -0.183247
     29 C                    -0.016597
     30 C                    -0.090586
     31 S                     0.014961
     32 C                    -0.154961
     33 C                     0.390827
     34 F                    -0.206827
     35 C                     0.446453
     36 O                    -0.461370
     37 O                    -0.300890
     38 C                    -0.058415
     39 H                     0.121144
     40 H                     0.095041
     41 H                     0.094991
     42 H                     0.217605
  ----------------------------------------
  Sum of atomic charges =     0.000000

                    Cartesian Multipole Moments
 -----------------------------------------------------------------
    Charge (ESU x 10^10)
                -0.0000
    Dipole Moment (Debye)
         X       1.0293      Y       0.9768      Z       3.2517
       Tot       3.5479
    Quadrupole Moments (Debye-Ang)
        XX    -175.1914     XY       4.4008     YY    -161.9094
        XZ      -0.8880     YZ      -8.1122     ZZ    -206.5581

 Total job time:  290.20s(wall), 8951.17s(cpu)
        *  Thank you very much for using Q-Chem.  Have a nice day.  *
