 Q-Chem 5.4, Q-Chem, Inc., Pleasanton, CA (2021)
 Q-Chem 5.4.0 for Intel X86 EM64T Linux

User input:
--------------------------------------------------------------
$molecule
0 1
C	-0.306235	-8.517702	-0.095966
C	0.754415	-7.641575	0.082807
S	-1.833702	-7.638634	-0.348635
C	0.383675	-6.264785	0.017401
H	1.787757	-7.966081	0.259008
C	-1.020885	-6.072714	-0.231913
C	-1.579097	-4.787049	-0.305044
C	1.268082	-5.162801	0.196549
C	0.708796	-3.874817	0.127606
C	-0.696769	-3.683952	-0.124792
O	2.572378	-5.499772	0.397867
O	-2.889532	-4.459055	-0.506103
C	-3.718420	-5.329063	-1.267335
H	-4.635204	-4.755694	-1.502804
H	-4.010790	-6.238095	-0.697471
H	-3.226506	-5.637262	-2.215194
C	3.467415	-4.572261	0.999238
H	4.388648	-5.139743	1.230649
H	3.052323	-4.153131	1.940905
H	3.730819	-3.739531	0.311543
C	-1.064366	-2.306654	-0.187323
S	1.521154	-2.306501	0.257128
C	-0.000000	-1.435185	-0.000000
H	-2.095939	-1.978138	-0.365903
H	-0.309131	-9.614033	-0.092855
C	0.000000	0.000000	0.000000
S	0.157577	0.890937	1.507541
C	0.429889	2.439720	0.718873
C	0.157797	0.890576	-1.067872
C	0.396915	2.260004	-0.686410
S	0.118307	0.650207	-2.805516
C	0.417036	2.376229	-3.054530
C	0.537616	3.074202	-1.862551
F	0.764992	4.391378	-1.819088
C	0.496696	2.817118	-4.456084
O	0.370874	2.057582	-5.406510
O	0.723861	4.148418	-4.569225
C	0.814976	4.635075	-5.916207
H	0.999286	5.720591	-5.833064
H	-0.125909	4.442226	-6.470168
H	1.645504	4.140465	-6.459293
H	0.588993	3.350182	1.306486
$end

$rem
JOBTYPE		SP
EXCHANGE	HF
CORRELATION	pRIMP2
BASIS		cc-pvtz
METHOD		rimp2
AUX_BASIS	rimp2-cc-pvtz
SOLVENT_METHOD	PCM
PURECART	11111
SYMMETRY	false
MEM_TOTAL	110000
SCF_CONVERGENCE = 6
THRESH=10
GUI = 2
$end

$solvent
dielectric 4.90
$end
--------------------------------------------------------------

             Standard Nuclear Orientation (Angstroms)
    I     Atom           X                Y                Z
 ----------------------------------------------------------------
    1      C      -0.3062350000    -8.5177020000    -0.0959660000
    2      C       0.7544150000    -7.6415750000     0.0828070000
    3      S      -1.8337020000    -7.6386340000    -0.3486350000
    4      C       0.3836750000    -6.2647850000     0.0174010000
    5      H       1.7877570000    -7.9660810000     0.2590080000
    6      C      -1.0208850000    -6.0727140000    -0.2319130000
    7      C      -1.5790970000    -4.7870490000    -0.3050440000
    8      C       1.2680820000    -5.1628010000     0.1965490000
    9      C       0.7087960000    -3.8748170000     0.1276060000
   10      C      -0.6967690000    -3.6839520000    -0.1247920000
   11      O       2.5723780000    -5.4997720000     0.3978670000
   12      O      -2.8895320000    -4.4590550000    -0.5061030000
   13      C      -3.7184200000    -5.3290630000    -1.2673350000
   14      H      -4.6352040000    -4.7556940000    -1.5028040000
   15      H      -4.0107900000    -6.2380950000    -0.6974710000
   16      H      -3.2265060000    -5.6372620000    -2.2151940000
   17      C       3.4674150000    -4.5722610000     0.9992380000
   18      H       4.3886480000    -5.1397430000     1.2306490000
   19      H       3.0523230000    -4.1531310000     1.9409050000
   20      H       3.7308190000    -3.7395310000     0.3115430000
   21      C      -1.0643660000    -2.3066540000    -0.1873230000
   22      S       1.5211540000    -2.3065010000     0.2571280000
   23      C       0.0000000000    -1.4351850000     0.0000000000
   24      H      -2.0959390000    -1.9781380000    -0.3659030000
   25      H      -0.3091310000    -9.6140330000    -0.0928550000
   26      C       0.0000000000     0.0000000000     0.0000000000
   27      S       0.1575770000     0.8909370000     1.5075410000
   28      C       0.4298890000     2.4397200000     0.7188730000
   29      C       0.1577970000     0.8905760000    -1.0678720000
   30      C       0.3969150000     2.2600040000    -0.6864100000
   31      S       0.1183070000     0.6502070000    -2.8055160000
   32      C       0.4170360000     2.3762290000    -3.0545300000
   33      C       0.5376160000     3.0742020000    -1.8625510000
   34      F       0.7649920000     4.3913780000    -1.8190880000
   35      C       0.4966960000     2.8171180000    -4.4560840000
   36      O       0.3708740000     2.0575820000    -5.4065100000
   37      O       0.7238610000     4.1484180000    -4.5692250000
   38      C       0.8149760000     4.6350750000    -5.9162070000
   39      H       0.9992860000     5.7205910000    -5.8330640000
   40      H      -0.1259090000     4.4422260000    -6.4701680000
   41      H       1.6455040000     4.1404650000    -6.4592930000
   42      H       0.5889930000     3.3501820000     1.3064860000
 ----------------------------------------------------------------

   10   -2754.3126823720      6.98e-07  Convergence criterion met
 Total energy in the final basis set =    -2754.3126823720
        RIMP2         total energy =     -2759.3621672459 a.u.

                    Orbital Energies (a.u.)
 --------------------------------------------------------------

 Alpha MOs
 -- Occupied --
-92.0142 -91.9966 -91.9891 -91.9866 -26.3425 -20.6142 -20.5924 -20.5918
-20.5605 -11.4086 -11.3814 -11.3192 -11.3186 -11.3092 -11.3004 -11.2962
-11.2959 -11.2913 -11.2884 -11.2872 -11.2864 -11.2861 -11.2840 -11.2833
-11.2803 -11.2603 -11.2596 -11.2580 -11.2501  -9.0127  -8.9966  -8.9894
 -8.9865  -6.6934  -6.6928  -6.6923  -6.6776  -6.6769  -6.6758  -6.6704
 -6.6697  -6.6687  -6.6675  -6.6668  -6.6660  -1.6596  -1.4666  -1.4166
 -1.4145  -1.3692  -1.2199  -1.1944  -1.1653  -1.1349  -1.0842  -1.0521
 -1.0405  -1.0216  -1.0017  -0.9876  -0.9611  -0.9609  -0.9504  -0.9384
 -0.8959  -0.8666  -0.8513  -0.8088  -0.7939  -0.7884  -0.7864  -0.7649
 -0.7548  -0.7339  -0.7245  -0.7089  -0.7009  -0.6845  -0.6833  -0.6799
 -0.6733  -0.6592  -0.6570  -0.6527  -0.6305  -0.6202  -0.6174  -0.6049
 -0.5969  -0.5856  -0.5773  -0.5692  -0.5664  -0.5598  -0.5554  -0.5488
 -0.5334  -0.5304  -0.5235  -0.5160  -0.5152  -0.5090  -0.5037  -0.4943
 -0.4897  -0.4791  -0.4747  -0.4729  -0.4695  -0.4669  -0.4615  -0.4059
 -0.3968  -0.3873  -0.3570  -0.3490  -0.3142  -0.2984  -0.2592

          Ground-State Mulliken Net Atomic Charges

     Atom                 Charge (a.u.)
  ----------------------------------------
      1 C                    -0.187257
      2 C                    -0.254518
      3 S                    -0.021801
      4 C                    -0.012770
      5 H                     0.196454
      6 C                    -0.028013
      7 C                     0.246388
      8 C                     0.238393
      9 C                    -0.043304
     10 C                    -0.030844
     11 O                    -0.333228
     12 O                    -0.339811
     13 C                    -0.085814
     14 H                     0.122847
     15 H                     0.090969
     16 H                     0.094498
     17 C                    -0.086393
     18 H                     0.124770
     19 H                     0.094173
     20 H                     0.090251
     21 C                    -0.213376
     22 S                     0.000136
     23 C                    -0.067007
     24 H                     0.197794
     25 H                     0.206592
     26 C                    -0.017829
     27 S                     0.107979
     28 C                    -0.186304
     29 C                     0.009346
     30 C                    -0.102615
     31 S                     0.006792
     32 C                    -0.153766
     33 C                     0.391084
     34 F                    -0.207048
     35 C                     0.445407
     36 O                    -0.461308
     37 O                    -0.300705
     38 C                    -0.058587
     39 H                     0.121170
     40 H                     0.094987
     41 H                     0.094994
     42 H                     0.217275
  ----------------------------------------
  Sum of atomic charges =     0.000000

                    Cartesian Multipole Moments
 -----------------------------------------------------------------
    Charge (ESU x 10^10)
                 0.0000
    Dipole Moment (Debye)
         X       0.5468      Y       0.8008      Z       2.8086
       Tot       2.9713
    Quadrupole Moments (Debye-Ang)
        XX    -180.3294     XY       3.0073     YY    -159.4717
        XZ       8.0228     YZ      -5.6618     ZZ    -202.8340

 Total job time:  315.16s(wall), 10033.22s(cpu)
        *  Thank you very much for using Q-Chem.  Have a nice day.  *
