 Q-Chem 5.4, Q-Chem, Inc., Pleasanton, CA (2021)
 Q-Chem 5.4.0 for Intel X86 EM64T Linux

User input:
--------------------------------------------------------------
$molecule
0 1
C	0.306235	-8.517702	0.095966
C	-0.754415	-7.641575	-0.082807
S	1.833702	-7.638634	0.348635
C	-0.383675	-6.264785	-0.017401
H	-1.787757	-7.966081	-0.259008
C	1.020885	-6.072714	0.231913
C	1.579097	-4.787049	0.305044
C	-1.268082	-5.162801	-0.196549
C	-0.708796	-3.874817	-0.127606
C	0.696769	-3.683952	0.124792
O	-2.572378	-5.499772	-0.397867
O	2.889532	-4.459055	0.506103
C	3.718420	-5.329063	1.267335
H	4.635204	-4.755694	1.502804
H	4.010790	-6.238095	0.697471
H	3.226506	-5.637262	2.215194
C	-3.467415	-4.572261	-0.999238
H	-4.388648	-5.139743	-1.230649
H	-3.052323	-4.153131	-1.940905
H	-3.730819	-3.739531	-0.311543
C	1.064366	-2.306654	0.187323
S	-1.521154	-2.306501	-0.257128
C	-0.000000	-1.435185	-0.000000
H	2.095939	-1.978138	0.365903
H	0.309131	-9.614033	0.092855
C	0.000000	0.000000	0.000000
S	0.382799	0.819795	1.507541
C	1.046687	2.245325	0.718873
C	0.382918	0.819389	-1.067872
C	0.968323	2.080267	-0.686410
S	0.282561	0.597432	-2.805516
C	1.017839	2.187324	-3.054530
C	1.314960	2.830306	-1.862551
F	1.875498	4.043751	-1.819088
C	1.208895	2.592573	-4.456084
O	0.890778	1.891482	-5.406510
O	1.772886	3.819715	-4.569225
C	1.986852	4.266207	-5.916207
H	2.445834	5.267032	-5.833064
H	1.028114	4.323448	-6.470168
H	2.661066	3.573494	-6.459293
H	1.436015	3.083584	1.306486
$end

$rem
JOBTYPE		SP
EXCHANGE	HF
CORRELATION	pRIMP2
BASIS		cc-pvtz
METHOD		rimp2
AUX_BASIS	rimp2-cc-pvtz
SOLVENT_METHOD	PCM
PURECART	11111
SYMMETRY	false
MEM_TOTAL	110000
SCF_CONVERGENCE = 6
THRESH=10
GUI = 2
$end

$solvent
dielectric 4.90
$end
--------------------------------------------------------------

             Standard Nuclear Orientation (Angstroms)
    I     Atom           X                Y                Z
 ----------------------------------------------------------------
    1      C       0.3062350000    -8.5177020000     0.0959660000
    2      C      -0.7544150000    -7.6415750000    -0.0828070000
    3      S       1.8337020000    -7.6386340000     0.3486350000
    4      C      -0.3836750000    -6.2647850000    -0.0174010000
    5      H      -1.7877570000    -7.9660810000    -0.2590080000
    6      C       1.0208850000    -6.0727140000     0.2319130000
    7      C       1.5790970000    -4.7870490000     0.3050440000
    8      C      -1.2680820000    -5.1628010000    -0.1965490000
    9      C      -0.7087960000    -3.8748170000    -0.1276060000
   10      C       0.6967690000    -3.6839520000     0.1247920000
   11      O      -2.5723780000    -5.4997720000    -0.3978670000
   12      O       2.8895320000    -4.4590550000     0.5061030000
   13      C       3.7184200000    -5.3290630000     1.2673350000
   14      H       4.6352040000    -4.7556940000     1.5028040000
   15      H       4.0107900000    -6.2380950000     0.6974710000
   16      H       3.2265060000    -5.6372620000     2.2151940000
   17      C      -3.4674150000    -4.5722610000    -0.9992380000
   18      H      -4.3886480000    -5.1397430000    -1.2306490000
   19      H      -3.0523230000    -4.1531310000    -1.9409050000
   20      H      -3.7308190000    -3.7395310000    -0.3115430000
   21      C       1.0643660000    -2.3066540000     0.1873230000
   22      S      -1.5211540000    -2.3065010000    -0.2571280000
   23      C       0.0000000000    -1.4351850000     0.0000000000
   24      H       2.0959390000    -1.9781380000     0.3659030000
   25      H       0.3091310000    -9.6140330000     0.0928550000
   26      C       0.0000000000     0.0000000000     0.0000000000
   27      S       0.3827990000     0.8197950000     1.5075410000
   28      C       1.0466870000     2.2453250000     0.7188730000
   29      C       0.3829180000     0.8193890000    -1.0678720000
   30      C       0.9683230000     2.0802670000    -0.6864100000
   31      S       0.2825610000     0.5974320000    -2.8055160000
   32      C       1.0178390000     2.1873240000    -3.0545300000
   33      C       1.3149600000     2.8303060000    -1.8625510000
   34      F       1.8754980000     4.0437510000    -1.8190880000
   35      C       1.2088950000     2.5925730000    -4.4560840000
   36      O       0.8907780000     1.8914820000    -5.4065100000
   37      O       1.7728860000     3.8197150000    -4.5692250000
   38      C       1.9868520000     4.2662070000    -5.9162070000
   39      H       2.4458340000     5.2670320000    -5.8330640000
   40      H       1.0281140000     4.3234480000    -6.4701680000
   41      H       2.6610660000     3.5734940000    -6.4592930000
   42      H       1.4360150000     3.0835840000     1.3064860000
 ----------------------------------------------------------------

   10   -2754.3030587467      7.54e-07  Convergence criterion met
 Total energy in the final basis set =    -2754.3030587467
        RIMP2         total energy =     -2759.3553707106 a.u.

                    Orbital Energies (a.u.)
 --------------------------------------------------------------

 Alpha MOs
 -- Occupied --
-92.0145 -91.9985 -91.9868 -91.9859 -26.3431 -20.6143 -20.5918 -20.5912
-20.5605 -11.4087 -11.3822 -11.3184 -11.3173 -11.3130 -11.3037 -11.2963
-11.2920 -11.2909 -11.2885 -11.2864 -11.2861 -11.2847 -11.2839 -11.2834
-11.2794 -11.2600 -11.2582 -11.2560 -11.2496  -9.0129  -8.9985  -8.9872
 -8.9859  -6.6936  -6.6930  -6.6925  -6.6795  -6.6788  -6.6777  -6.6682
 -6.6675  -6.6668  -6.6666  -6.6662  -6.6654  -1.6602  -1.4667  -1.4159
 -1.4139  -1.3694  -1.2214  -1.1935  -1.1646  -1.1355  -1.0839  -1.0512
 -1.0413  -1.0222  -1.0006  -0.9872  -0.9618  -0.9597  -0.9498  -0.9390
 -0.8948  -0.8672  -0.8494  -0.8107  -0.7926  -0.7886  -0.7858  -0.7643
 -0.7549  -0.7331  -0.7250  -0.7095  -0.7001  -0.6846  -0.6827  -0.6803
 -0.6734  -0.6588  -0.6570  -0.6523  -0.6297  -0.6197  -0.6165  -0.6050
 -0.5976  -0.5863  -0.5753  -0.5699  -0.5666  -0.5622  -0.5532  -0.5529
 -0.5306  -0.5274  -0.5226  -0.5158  -0.5142  -0.5090  -0.5037  -0.4938
 -0.4892  -0.4798  -0.4747  -0.4730  -0.4697  -0.4648  -0.4604  -0.4047
 -0.3972  -0.3864  -0.3590  -0.3459  -0.3136  -0.3001  -0.2578

          Ground-State Mulliken Net Atomic Charges

     Atom                 Charge (a.u.)
  ----------------------------------------
      1 C                    -0.189219
      2 C                    -0.254061
      3 S                    -0.023137
      4 C                    -0.015961
      5 H                     0.196272
      6 C                    -0.028908
      7 C                     0.240433
      8 C                     0.243940
      9 C                    -0.051084
     10 C                    -0.019070
     11 O                    -0.333665
     12 O                    -0.340267
     13 C                    -0.085654
     14 H                     0.122334
     15 H                     0.091207
     16 H                     0.093672
     17 C                    -0.086063
     18 H                     0.124434
     19 H                     0.094973
     20 H                     0.089479
     21 C                    -0.206653
     22 S                     0.000372
     23 C                    -0.040634
     24 H                     0.199240
     25 H                     0.206242
     26 C                    -0.063466
     27 S                     0.110357
     28 C                    -0.180584
     29 C                    -0.000209
     30 C                    -0.093249
     31 S                     0.014887
     32 C                    -0.154239
     33 C                     0.390581
     34 F                    -0.206395
     35 C                     0.446510
     36 O                    -0.461584
     37 O                    -0.301013
     38 C                    -0.058447
     39 H                     0.121181
     40 H                     0.095037
     41 H                     0.095034
     42 H                     0.217379
  ----------------------------------------
  Sum of atomic charges =     0.000000

                    Cartesian Multipole Moments
 -----------------------------------------------------------------
    Charge (ESU x 10^10)
                -0.0000
    Dipole Moment (Debye)
         X       1.1710      Y       1.1114      Z       3.2097
       Tot       3.5928
    Quadrupole Moments (Debye-Ang)
        XX    -178.1951     XY       6.0998     YY    -163.7307
        XZ       6.1727     YZ      -7.9916     ZZ    -202.4873

 Total job time:  301.69s(wall), 9982.03s(cpu)
        *  Thank you very much for using Q-Chem.  Have a nice day.  *
