 Q-Chem 5.4, Q-Chem, Inc., Pleasanton, CA (2021)
 Q-Chem 5.4.0 for Intel X86 EM64T Linux

User input:
--------------------------------------------------------------
$molecule
0 1
C	0.217225	-8.517702	0.236226
C	-0.611939	-7.641575	-0.448921
S	1.413715	-7.638634	1.218777
C	-0.323572	-6.264785	-0.206907
H	-1.418739	-7.966081	-1.118185
C	0.768156	-6.072714	0.711285
C	1.215016	-4.787049	1.053725
C	-0.999917	-5.162801	-0.804258
C	-0.550033	-3.874817	-0.464908
C	0.541024	-3.683952	0.456457
O	-2.028811	-5.499772	-1.630752
O	2.249357	-4.459055	1.883064
C	2.586579	-5.329063	2.956754
H	3.262802	-4.755694	3.619069
H	3.124711	-6.238095	2.609423
H	1.686639	-5.637262	3.531667
C	-2.503251	-4.572261	-2.599073
H	-3.185356	-5.139743	-3.260097
H	-1.672937	-4.153131	-3.207034
H	-3.075213	-3.739531	-2.135214
C	0.828107	-2.306654	0.694410
S	-1.188794	-2.306501	-0.983256
C	-0.000000	-1.435185	-0.000000
H	1.632185	-1.978138	1.364851
H	0.221288	-9.614033	0.234980
C	0.000000	0.000000	0.000000
S	0.452792	0.783312	1.507541
C	1.238397	2.145556	0.718873
C	0.452875	0.782898	-1.067872
C	1.145945	1.987956	-0.686410
S	0.333556	0.570531	-2.805516
C	1.204604	2.090290	-3.054530
C	1.556633	2.704929	-1.862551
F	2.220797	3.864903	-1.819088
C	1.430252	2.477345	-4.456084
O	1.052242	1.806648	-5.406510
O	2.099050	3.650663	-4.569225
C	2.351116	4.076808	-5.916207
H	2.895579	5.033821	-5.833064
H	1.401015	4.217390	-6.470168
H	2.962391	3.327969	-6.459293
H	1.699302	2.946693	1.306486
$end

$rem
JOBTYPE		SP
EXCHANGE	HF
CORRELATION	pRIMP2
BASIS		cc-pvtz
METHOD		rimp2
AUX_BASIS	rimp2-cc-pvtz
SOLVENT_METHOD	PCM
PURECART	11111
SYMMETRY	false
MEM_TOTAL	110000
SCF_CONVERGENCE = 6
THRESH=10
GUI = 2
$end

$solvent
dielectric 4.90
$end
--------------------------------------------------------------

             Standard Nuclear Orientation (Angstroms)
    I     Atom           X                Y                Z
 ----------------------------------------------------------------
    1      C       0.2172250000    -8.5177020000     0.2362260000
    2      C      -0.6119390000    -7.6415750000    -0.4489210000
    3      S       1.4137150000    -7.6386340000     1.2187770000
    4      C      -0.3235720000    -6.2647850000    -0.2069070000
    5      H      -1.4187390000    -7.9660810000    -1.1181850000
    6      C       0.7681560000    -6.0727140000     0.7112850000
    7      C       1.2150160000    -4.7870490000     1.0537250000
    8      C      -0.9999170000    -5.1628010000    -0.8042580000
    9      C      -0.5500330000    -3.8748170000    -0.4649080000
   10      C       0.5410240000    -3.6839520000     0.4564570000
   11      O      -2.0288110000    -5.4997720000    -1.6307520000
   12      O       2.2493570000    -4.4590550000     1.8830640000
   13      C       2.5865790000    -5.3290630000     2.9567540000
   14      H       3.2628020000    -4.7556940000     3.6190690000
   15      H       3.1247110000    -6.2380950000     2.6094230000
   16      H       1.6866390000    -5.6372620000     3.5316670000
   17      C      -2.5032510000    -4.5722610000    -2.5990730000
   18      H      -3.1853560000    -5.1397430000    -3.2600970000
   19      H      -1.6729370000    -4.1531310000    -3.2070340000
   20      H      -3.0752130000    -3.7395310000    -2.1352140000
   21      C       0.8281070000    -2.3066540000     0.6944100000
   22      S      -1.1887940000    -2.3065010000    -0.9832560000
   23      C       0.0000000000    -1.4351850000     0.0000000000
   24      H       1.6321850000    -1.9781380000     1.3648510000
   25      H       0.2212880000    -9.6140330000     0.2349800000
   26      C       0.0000000000     0.0000000000     0.0000000000
   27      S       0.4527920000     0.7833120000     1.5075410000
   28      C       1.2383970000     2.1455560000     0.7188730000
   29      C       0.4528750000     0.7828980000    -1.0678720000
   30      C       1.1459450000     1.9879560000    -0.6864100000
   31      S       0.3335560000     0.5705310000    -2.8055160000
   32      C       1.2046040000     2.0902900000    -3.0545300000
   33      C       1.5566330000     2.7049290000    -1.8625510000
   34      F       2.2207970000     3.8649030000    -1.8190880000
   35      C       1.4302520000     2.4773450000    -4.4560840000
   36      O       1.0522420000     1.8066480000    -5.4065100000
   37      O       2.0990500000     3.6506630000    -4.5692250000
   38      C       2.3511160000     4.0768080000    -5.9162070000
   39      H       2.8955790000     5.0338210000    -5.8330640000
   40      H       1.4010150000     4.2173900000    -6.4701680000
   41      H       2.9623910000     3.3279690000    -6.4592930000
   42      H       1.6993020000     2.9466930000     1.3064860000
 ----------------------------------------------------------------

   10   -2754.3007858782      7.14e-07  Convergence criterion met
 Total energy in the final basis set =    -2754.3007858782
        RIMP2         total energy =     -2759.3553153641 a.u.

                    Orbital Energies (a.u.)
 --------------------------------------------------------------

 Alpha MOs
 -- Occupied --
-92.0153 -92.0004 -91.9881 -91.9855 -26.3437 -20.6147 -20.5918 -20.5905
-20.5610 -11.4093 -11.3831 -11.3187 -11.3158 -11.3153 -11.3062 -11.2970
-11.2958 -11.2922 -11.2888 -11.2863 -11.2858 -11.2855 -11.2842 -11.2833
-11.2784 -11.2602 -11.2570 -11.2523 -11.2493  -9.0138  -9.0004  -8.9886
 -8.9855  -6.6945  -6.6939  -6.6934  -6.6813  -6.6806  -6.6795  -6.6696
 -6.6689  -6.6680  -6.6665  -6.6658  -6.6650  -1.6608  -1.4671  -1.4158
 -1.4133  -1.3698  -1.2237  -1.1933  -1.1650  -1.1368  -1.0846  -1.0508
 -1.0423  -1.0238  -1.0004  -0.9875  -0.9636  -0.9586  -0.9494  -0.9401
 -0.8946  -0.8683  -0.8491  -0.8138  -0.7921  -0.7872  -0.7861  -0.7643
 -0.7553  -0.7328  -0.7256  -0.7104  -0.6991  -0.6853  -0.6826  -0.6811
 -0.6738  -0.6588  -0.6576  -0.6520  -0.6298  -0.6193  -0.6160  -0.6044
 -0.5990  -0.5882  -0.5756  -0.5686  -0.5666  -0.5638  -0.5542  -0.5522
 -0.5311  -0.5268  -0.5218  -0.5156  -0.5152  -0.5104  -0.5049  -0.4938
 -0.4887  -0.4800  -0.4755  -0.4734  -0.4700  -0.4643  -0.4597  -0.4156
 -0.3943  -0.3857  -0.3604  -0.3473  -0.3205  -0.2945  -0.2537

          Ground-State Mulliken Net Atomic Charges

     Atom                 Charge (a.u.)
  ----------------------------------------
      1 C                    -0.191604
      2 C                    -0.253424
      3 S                    -0.024160
      4 C                    -0.017826
      5 H                     0.196161
      6 C                    -0.027594
      7 C                     0.237396
      8 C                     0.245384
      9 C                    -0.044161
     10 C                    -0.018129
     11 O                    -0.333451
     12 O                    -0.340809
     13 C                    -0.085637
     14 H                     0.121999
     15 H                     0.090971
     16 H                     0.093542
     17 C                    -0.087236
     18 H                     0.124755
     19 H                     0.095520
     20 H                     0.089699
     21 C                    -0.249136
     22 S                    -0.012002
     23 C                    -0.020503
     24 H                     0.198481
     25 H                     0.205899
     26 C                    -0.051799
     27 S                     0.097529
     28 C                    -0.168732
     29 C                     0.024903
     30 C                    -0.103984
     31 S                     0.019232
     32 C                    -0.151991
     33 C                     0.391641
     34 F                    -0.205934
     35 C                     0.446131
     36 O                    -0.461320
     37 O                    -0.301055
     38 C                    -0.058421
     39 H                     0.121336
     40 H                     0.095043
     41 H                     0.095134
     42 H                     0.218151
  ----------------------------------------
  Sum of atomic charges =     0.000000

                    Cartesian Multipole Moments
 -----------------------------------------------------------------
    Charge (ESU x 10^10)
                 0.0000
    Dipole Moment (Debye)
         X       1.2590      Y       1.4099      Z       2.9417
       Tot       3.4967
    Quadrupole Moments (Debye-Ang)
        XX    -189.2479     XY       8.2318     YY    -166.2938
        XZ       8.3390     YZ      -7.1920     ZZ    -189.9524

 Total job time:  273.23s(wall), 8527.36s(cpu)
        *  Thank you very much for using Q-Chem.  Have a nice day.  *
