 Q-Chem 5.4, Q-Chem, Inc., Pleasanton, CA (2021)
 Q-Chem 5.4.0 for Intel X86 EM64T Linux

User input:
--------------------------------------------------------------
$molecule
0 1
C	-0.194917	-8.517702	0.254945
C	0.335839	-7.641575	-0.680596
S	-0.954772	-7.638634	1.603876
C	0.147576	-6.264785	-0.354585
H	0.854836	-7.966081	-1.591356
C	-0.567090	-6.072714	0.879999
C	-0.826731	-4.787049	1.379534
C	0.618405	-5.162801	-1.124384
C	0.362333	-3.874817	-0.622407
C	-0.355575	-3.683952	0.612067
O	1.253677	-5.499772	-2.281166
O	-1.463859	-4.459055	2.542174
C	-2.462679	-5.329063	3.060718
H	-2.997507	-4.755694	3.841678
H	-2.027179	-6.238095	3.530361
H	-3.185132	-5.637262	2.274283
C	2.124902	-4.572261	-2.916545
H	2.657438	-5.139743	-3.703073
H	2.867810	-4.153131	-2.204417
H	1.568770	-3.739531	-3.399269
C	-0.540061	-2.306654	0.936109
S	0.761887	-2.306501	-1.341474
C	-0.000000	-1.435185	-0.000000
H	-1.060690	-1.978138	1.844392
H	-0.192984	-9.614033	0.258730
C	0.000000	0.000000	0.000000
S	0.309893	0.850039	1.507541
C	0.847011	2.328006	0.718873
C	0.310046	0.849645	-1.067872
C	0.783331	2.156746	-0.686410
S	0.229416	0.619785	-2.805516
C	0.823328	2.267711	-3.054530
C	1.063278	2.934142	-1.862551
F	1.515925	4.191824	-1.819088
C	0.978337	2.688069	-4.456084
O	0.722535	1.961921	-5.406510
O	1.433229	3.959697	-4.569225
C	1.607467	4.423139	-5.916207
H	1.977475	5.460158	-5.833064
H	0.647388	4.396602	-6.470168
H	2.339490	3.791823	-6.459293
H	1.161798	3.197007	1.306486
$end

$rem
JOBTYPE		SP
EXCHANGE	HF
CORRELATION	pRIMP2
BASIS		cc-pvtz
METHOD		rimp2
AUX_BASIS	rimp2-cc-pvtz
SOLVENT_METHOD	PCM
PURECART	11111
SYMMETRY	false
MEM_TOTAL	110000
SCF_CONVERGENCE = 6
THRESH=10
GUI = 2
$end

$solvent
dielectric 4.90
$end
--------------------------------------------------------------

             Standard Nuclear Orientation (Angstroms)
    I     Atom           X                Y                Z
 ----------------------------------------------------------------
    1      C      -0.1949170000    -8.5177020000     0.2549450000
    2      C       0.3358390000    -7.6415750000    -0.6805960000
    3      S      -0.9547720000    -7.6386340000     1.6038760000
    4      C       0.1475760000    -6.2647850000    -0.3545850000
    5      H       0.8548360000    -7.9660810000    -1.5913560000
    6      C      -0.5670900000    -6.0727140000     0.8799990000
    7      C      -0.8267310000    -4.7870490000     1.3795340000
    8      C       0.6184050000    -5.1628010000    -1.1243840000
    9      C       0.3623330000    -3.8748170000    -0.6224070000
   10      C      -0.3555750000    -3.6839520000     0.6120670000
   11      O       1.2536770000    -5.4997720000    -2.2811660000
   12      O      -1.4638590000    -4.4590550000     2.5421740000
   13      C      -2.4626790000    -5.3290630000     3.0607180000
   14      H      -2.9975070000    -4.7556940000     3.8416780000
   15      H      -2.0271790000    -6.2380950000     3.5303610000
   16      H      -3.1851320000    -5.6372620000     2.2742830000
   17      C       2.1249020000    -4.5722610000    -2.9165450000
   18      H       2.6574380000    -5.1397430000    -3.7030730000
   19      H       2.8678100000    -4.1531310000    -2.2044170000
   20      H       1.5687700000    -3.7395310000    -3.3992690000
   21      C      -0.5400610000    -2.3066540000     0.9361090000
   22      S       0.7618870000    -2.3065010000    -1.3414740000
   23      C       0.0000000000    -1.4351850000     0.0000000000
   24      H      -1.0606900000    -1.9781380000     1.8443920000
   25      H      -0.1929840000    -9.6140330000     0.2587300000
   26      C       0.0000000000     0.0000000000     0.0000000000
   27      S       0.3098930000     0.8500390000     1.5075410000
   28      C       0.8470110000     2.3280060000     0.7188730000
   29      C       0.3100460000     0.8496450000    -1.0678720000
   30      C       0.7833310000     2.1567460000    -0.6864100000
   31      S       0.2294160000     0.6197850000    -2.8055160000
   32      C       0.8233280000     2.2677110000    -3.0545300000
   33      C       1.0632780000     2.9341420000    -1.8625510000
   34      F       1.5159250000     4.1918240000    -1.8190880000
   35      C       0.9783370000     2.6880690000    -4.4560840000
   36      O       0.7225350000     1.9619210000    -5.4065100000
   37      O       1.4332290000     3.9596970000    -4.5692250000
   38      C       1.6074670000     4.4231390000    -5.9162070000
   39      H       1.9774750000     5.4601580000    -5.8330640000
   40      H       0.6473880000     4.3966020000    -6.4701680000
   41      H       2.3394900000     3.7918230000    -6.4592930000
   42      H       1.1617980000     3.1970070000     1.3064860000
 ----------------------------------------------------------------

   10   -2754.3086809043      7.53e-07  Convergence criterion met
 Total energy in the final basis set =    -2754.3086809043
        RIMP2         total energy =     -2759.3631157857 a.u.

                    Orbital Energies (a.u.)
 --------------------------------------------------------------

 Alpha MOs
 -- Occupied --
-92.0151 -91.9990 -91.9896 -91.9859 -26.3434 -20.6148 -20.5921 -20.5909
-20.5612 -11.4094 -11.3826 -11.3193 -11.3164 -11.3122 -11.3021 -11.2979
-11.2972 -11.2958 -11.2888 -11.2865 -11.2859 -11.2856 -11.2850 -11.2838
-11.2788 -11.2611 -11.2577 -11.2534 -11.2496  -9.0137  -8.9991  -8.9901
 -8.9858  -6.6944  -6.6938  -6.6933  -6.6801  -6.6793  -6.6782  -6.6711
 -6.6704  -6.6694  -6.6668  -6.6662  -6.6653  -1.6605  -1.4672  -1.4161
 -1.4137  -1.3699  -1.2229  -1.1940  -1.1654  -1.1365  -1.0855  -1.0516
 -1.0416  -1.0240  -1.0015  -0.9877  -0.9641  -0.9583  -0.9497  -0.9405
 -0.8955  -0.8681  -0.8507  -0.8145  -0.7921  -0.7872  -0.7855  -0.7649
 -0.7553  -0.7335  -0.7253  -0.7101  -0.6988  -0.6855  -0.6831  -0.6815
 -0.6738  -0.6589  -0.6580  -0.6522  -0.6304  -0.6196  -0.6166  -0.6043
 -0.5977  -0.5834  -0.5787  -0.5690  -0.5668  -0.5586  -0.5577  -0.5525
 -0.5324  -0.5297  -0.5242  -0.5176  -0.5163  -0.5103  -0.5066  -0.4958
 -0.4875  -0.4794  -0.4763  -0.4742  -0.4700  -0.4639  -0.4591  -0.4218
 -0.3955  -0.3846  -0.3580  -0.3513  -0.3252  -0.2895  -0.2508

          Ground-State Mulliken Net Atomic Charges

     Atom                 Charge (a.u.)
  ----------------------------------------
      1 C                    -0.190741
      2 C                    -0.253750
      3 S                    -0.023385
      4 C                    -0.018187
      5 H                     0.196272
      6 C                    -0.025832
      7 C                     0.235666
      8 C                     0.243016
      9 C                    -0.043787
     10 C                    -0.006401
     11 O                    -0.332993
     12 O                    -0.340562
     13 C                    -0.085623
     14 H                     0.122075
     15 H                     0.090965
     16 H                     0.094025
     17 C                    -0.089447
     18 H                     0.125790
     19 H                     0.094624
     20 H                     0.091287
     21 C                    -0.272244
     22 S                    -0.024599
     23 C                     0.012936
     24 H                     0.191510
     25 H                     0.206105
     26 C                     0.038637
     27 S                     0.111878
     28 C                    -0.193569
     29 C                    -0.073233
     30 C                    -0.090032
     31 S                     0.019650
     32 C                    -0.162007
     33 C                     0.406934
     34 F                    -0.207003
     35 C                     0.443117
     36 O                    -0.461038
     37 O                    -0.300820
     38 C                    -0.058425
     39 H                     0.121400
     40 H                     0.095209
     41 H                     0.095015
     42 H                     0.217565
  ----------------------------------------
  Sum of atomic charges =     0.000000

                    Cartesian Multipole Moments
 -----------------------------------------------------------------
    Charge (ESU x 10^10)
                -0.0000
    Dipole Moment (Debye)
         X       0.9358      Y       1.2653      Z       2.6256
       Tot       3.0611
    Quadrupole Moments (Debye-Ang)
        XX    -188.4002     XY       6.2714     YY    -163.0161
        XZ     -15.1190     YZ      -6.0027     ZZ    -192.8234

 Total job time:  289.22s(wall), 9073.28s(cpu)
        *  Thank you very much for using Q-Chem.  Have a nice day.  *
