 Q-Chem 5.4, Q-Chem, Inc., Pleasanton, CA (2021)
 Q-Chem 5.4.0 for Intel X86 EM64T Linux

User input:
--------------------------------------------------------------
$molecule
0 1
C	0.147685	-8.517702	-0.284919
C	-0.212552	-7.641575	0.728574
S	0.661757	-7.638634	-1.745304
C	-0.083761	-6.264785	0.374824
H	-0.565513	-7.966081	1.715621
C	0.405665	-6.072714	-0.965104
C	0.574617	-4.787049	-1.502136
C	-0.413763	-5.162801	1.214687
C	-0.248748	-3.874817	0.675870
C	0.243888	-3.683952	-0.664513
O	-0.838511	-5.499772	2.464209
O	1.000176	-4.459055	-2.757750
C	1.893778	-5.329063	-3.441858
H	2.284868	-4.755694	-4.303826
H	1.383341	-6.238095	-3.828743
H	2.741817	-5.637262	-2.792824
C	-1.586168	-4.572261	3.241222
H	-1.974033	-5.139743	4.108274
H	-2.441448	-4.153131	2.668916
H	-0.954660	-3.739531	3.620041
C	0.369302	-2.306654	-1.015668
S	-0.517367	-2.306501	1.453394
C	-0.000000	-1.435185	-0.000000
H	0.724300	-1.978138	-2.000559
H	0.145124	-9.614033	-0.288311
C	0.000000	0.000000	0.000000
S	0.382799	0.819795	1.507541
C	1.046687	2.245325	0.718873
C	0.382918	0.819389	-1.067872
C	0.968323	2.080267	-0.686410
S	0.282561	0.597432	-2.805516
C	1.017839	2.187324	-3.054530
C	1.314960	2.830306	-1.862551
F	1.875498	4.043751	-1.819088
C	1.208895	2.592573	-4.456084
O	0.890778	1.891482	-5.406510
O	1.772886	3.819715	-4.569225
C	1.986852	4.266207	-5.916207
H	2.445834	5.267032	-5.833064
H	1.028114	4.323448	-6.470168
H	2.661066	3.573494	-6.459293
H	1.436015	3.083584	1.306486
$end

$rem
JOBTYPE		SP
EXCHANGE	HF
CORRELATION	pRIMP2
BASIS		cc-pvtz
METHOD		rimp2
AUX_BASIS	rimp2-cc-pvtz
SOLVENT_METHOD	PCM
PURECART	11111
SYMMETRY	false
MEM_TOTAL	110000
SCF_CONVERGENCE = 6
THRESH=10
GUI = 2
$end

$solvent
dielectric 4.90
$end
--------------------------------------------------------------

             Standard Nuclear Orientation (Angstroms)
    I     Atom           X                Y                Z
 ----------------------------------------------------------------
    1      C       0.1476850000    -8.5177020000    -0.2849190000
    2      C      -0.2125520000    -7.6415750000     0.7285740000
    3      S       0.6617570000    -7.6386340000    -1.7453040000
    4      C      -0.0837610000    -6.2647850000     0.3748240000
    5      H      -0.5655130000    -7.9660810000     1.7156210000
    6      C       0.4056650000    -6.0727140000    -0.9651040000
    7      C       0.5746170000    -4.7870490000    -1.5021360000
    8      C      -0.4137630000    -5.1628010000     1.2146870000
    9      C      -0.2487480000    -3.8748170000     0.6758700000
   10      C       0.2438880000    -3.6839520000    -0.6645130000
   11      O      -0.8385110000    -5.4997720000     2.4642090000
   12      O       1.0001760000    -4.4590550000    -2.7577500000
   13      C       1.8937780000    -5.3290630000    -3.4418580000
   14      H       2.2848680000    -4.7556940000    -4.3038260000
   15      H       1.3833410000    -6.2380950000    -3.8287430000
   16      H       2.7418170000    -5.6372620000    -2.7928240000
   17      C      -1.5861680000    -4.5722610000     3.2412220000
   18      H      -1.9740330000    -5.1397430000     4.1082740000
   19      H      -2.4414480000    -4.1531310000     2.6689160000
   20      H      -0.9546600000    -3.7395310000     3.6200410000
   21      C       0.3693020000    -2.3066540000    -1.0156680000
   22      S      -0.5173670000    -2.3065010000     1.4533940000
   23      C       0.0000000000    -1.4351850000     0.0000000000
   24      H       0.7243000000    -1.9781380000    -2.0005590000
   25      H       0.1451240000    -9.6140330000    -0.2883110000
   26      C       0.0000000000     0.0000000000     0.0000000000
   27      S       0.3827990000     0.8197950000     1.5075410000
   28      C       1.0466870000     2.2453250000     0.7188730000
   29      C       0.3829180000     0.8193890000    -1.0678720000
   30      C       0.9683230000     2.0802670000    -0.6864100000
   31      S       0.2825610000     0.5974320000    -2.8055160000
   32      C       1.0178390000     2.1873240000    -3.0545300000
   33      C       1.3149600000     2.8303060000    -1.8625510000
   34      F       1.8754980000     4.0437510000    -1.8190880000
   35      C       1.2088950000     2.5925730000    -4.4560840000
   36      O       0.8907780000     1.8914820000    -5.4065100000
   37      O       1.7728860000     3.8197150000    -4.5692250000
   38      C       1.9868520000     4.2662070000    -5.9162070000
   39      H       2.4458340000     5.2670320000    -5.8330640000
   40      H       1.0281140000     4.3234480000    -6.4701680000
   41      H       2.6610660000     3.5734940000    -6.4592930000
   42      H       1.4360150000     3.0835840000     1.3064860000
 ----------------------------------------------------------------

   10   -2754.3051991209      7.37e-07  Convergence criterion met
 Total energy in the final basis set =    -2754.3051991209
        RIMP2         total energy =     -2759.3604161783 a.u.

                    Orbital Energies (a.u.)
 --------------------------------------------------------------

 Alpha MOs
 -- Occupied --
-92.0160 -92.0012 -91.9892 -91.9858 -26.3440 -20.6150 -20.5925 -20.5901
-20.5615 -11.4098 -11.3835 -11.3194 -11.3161 -11.3146 -11.3034 -11.2981
-11.2974 -11.2965 -11.2890 -11.2874 -11.2866 -11.2855 -11.2851 -11.2836
-11.2786 -11.2611 -11.2575 -11.2522 -11.2495  -9.0148  -9.0011  -8.9899
 -8.9857  -6.6955  -6.6949  -6.6944  -6.6821  -6.6813  -6.6802  -6.6710
 -6.6703  -6.6693  -6.6666  -6.6660  -6.6652  -1.6611  -1.4675  -1.4165
 -1.4129  -1.3702  -1.2240  -1.1940  -1.1657  -1.1375  -1.0854  -1.0515
 -1.0429  -1.0244  -1.0009  -0.9882  -0.9642  -0.9596  -0.9501  -0.9397
 -0.8959  -0.8689  -0.8507  -0.8090  -0.7988  -0.7880  -0.7857  -0.7638
 -0.7556  -0.7337  -0.7259  -0.7107  -0.7016  -0.6858  -0.6830  -0.6812
 -0.6741  -0.6590  -0.6589  -0.6519  -0.6304  -0.6193  -0.6166  -0.6035
 -0.5991  -0.5818  -0.5798  -0.5711  -0.5648  -0.5614  -0.5564  -0.5484
 -0.5346  -0.5305  -0.5240  -0.5178  -0.5160  -0.5096  -0.5060  -0.4959
 -0.4872  -0.4816  -0.4770  -0.4742  -0.4694  -0.4652  -0.4594  -0.4250
 -0.3953  -0.3841  -0.3606  -0.3492  -0.3272  -0.2894  -0.2499

          Ground-State Mulliken Net Atomic Charges

     Atom                 Charge (a.u.)
  ----------------------------------------
      1 C                    -0.191392
      2 C                    -0.253972
      3 S                    -0.022639
      4 C                    -0.018875
      5 H                     0.195924
      6 C                    -0.026986
      7 C                     0.240340
      8 C                     0.244902
      9 C                    -0.041823
     10 C                    -0.021617
     11 O                    -0.333222
     12 O                    -0.340239
     13 C                    -0.086156
     14 H                     0.123136
     15 H                     0.091133
     16 H                     0.093457
     17 C                    -0.088041
     18 H                     0.125903
     19 H                     0.095161
     20 H                     0.089191
     21 C                    -0.236830
     22 S                    -0.037913
     23 C                    -0.002066
     24 H                     0.192263
     25 H                     0.206010
     26 C                     0.007746
     27 S                     0.104638
     28 C                    -0.194493
     29 C                    -0.038629
     30 C                    -0.094457
     31 S                     0.025874
     32 C                    -0.162731
     33 C                     0.406979
     34 F                    -0.206112
     35 C                     0.444027
     36 O                    -0.460781
     37 O                    -0.300909
     38 C                    -0.058419
     39 H                     0.121496
     40 H                     0.095302
     41 H                     0.095122
     42 H                     0.219704
  ----------------------------------------
  Sum of atomic charges =     0.000000

                    Cartesian Multipole Moments
 -----------------------------------------------------------------
    Charge (ESU x 10^10)
                -0.0000
    Dipole Moment (Debye)
         X       1.4925      Y       1.4325      Z       3.1186
       Tot       3.7424
    Quadrupole Moments (Debye-Ang)
        XX    -191.5979     XY       5.0532     YY    -164.0561
        XZ     -14.6677     YZ      -7.2943     ZZ    -188.4927

 Total job time:  15893.60s(wall), 10165.91s(cpu)
        *  Thank you very much for using Q-Chem.  Have a nice day.  *
