 Q-Chem 5.4, Q-Chem, Inc., Pleasanton, CA (2021)
 Q-Chem 5.4.0 for Intel X86 EM64T Linux

User input:
--------------------------------------------------------------
$molecule
0 1
C	0.041330	-8.517702	-0.318247
C	0.049453	-7.641575	0.757333
S	0.024919	-7.638634	-1.866383
C	0.049488	-6.264785	0.380867
H	0.055368	-7.966081	1.805573
C	0.051115	-6.072714	-1.045647
C	0.026203	-4.787049	-1.608077
C	0.026637	-5.162801	1.282948
C	-0.002586	-3.874817	0.720187
C	0.001903	-3.683952	-0.707853
O	0.054867	-5.499772	2.602386
O	-0.003348	-4.459055	-2.933517
C	0.602384	-5.329063	-3.881999
H	0.675079	-4.755694	-4.825744
H	-0.009592	-6.238095	-4.070972
H	1.621263	-5.637262	-3.562152
C	-0.381947	-4.572261	3.588253
H	-0.449872	-5.139743	4.535674
H	-1.381388	-4.153131	3.342986
H	0.341040	-3.739531	3.728239
C	-0.000348	-2.306654	-1.080725
S	0.010924	-2.306501	1.542694
C	-0.000000	-1.435185	-0.000000
H	-0.003612	-1.978138	-2.127635
H	0.037764	-9.614033	-0.320559
C	0.000000	0.000000	0.000000
S	0.783786	0.451972	1.507541
C	2.145261	1.238908	0.718873
C	0.783650	0.451572	-1.067872
C	1.986396	1.148648	-0.686410
S	0.574133	0.327317	-2.805516
C	2.088363	1.207943	-3.054530
C	2.700548	1.564221	-1.862551
F	3.855718	2.236706	-1.819088
C	2.477307	1.430318	-4.456084
O	1.814592	1.038482	-5.406510
O	3.643162	2.112042	-4.569225
C	4.074530	2.355061	-5.916207
H	5.024556	2.911627	-5.833064
H	3.322010	2.951860	-6.470168
H	4.229490	1.400910	-6.459293
H	2.944986	1.702260	1.306486
$end

$rem
JOBTYPE		SP
EXCHANGE	HF
CORRELATION	pRIMP2
BASIS		cc-pvtz
METHOD		rimp2
AUX_BASIS	rimp2-cc-pvtz
SOLVENT_METHOD	PCM
PURECART	11111
SYMMETRY	false
MEM_TOTAL	110000
SCF_CONVERGENCE = 6
THRESH=10
GUI = 2
$end

$solvent
dielectric 4.90
$end
--------------------------------------------------------------

             Standard Nuclear Orientation (Angstroms)
    I     Atom           X                Y                Z
 ----------------------------------------------------------------
    1      C       0.0413300000    -8.5177020000    -0.3182470000
    2      C       0.0494530000    -7.6415750000     0.7573330000
    3      S       0.0249190000    -7.6386340000    -1.8663830000
    4      C       0.0494880000    -6.2647850000     0.3808670000
    5      H       0.0553680000    -7.9660810000     1.8055730000
    6      C       0.0511150000    -6.0727140000    -1.0456470000
    7      C       0.0262030000    -4.7870490000    -1.6080770000
    8      C       0.0266370000    -5.1628010000     1.2829480000
    9      C      -0.0025860000    -3.8748170000     0.7201870000
   10      C       0.0019030000    -3.6839520000    -0.7078530000
   11      O       0.0548670000    -5.4997720000     2.6023860000
   12      O      -0.0033480000    -4.4590550000    -2.9335170000
   13      C       0.6023840000    -5.3290630000    -3.8819990000
   14      H       0.6750790000    -4.7556940000    -4.8257440000
   15      H      -0.0095920000    -6.2380950000    -4.0709720000
   16      H       1.6212630000    -5.6372620000    -3.5621520000
   17      C      -0.3819470000    -4.5722610000     3.5882530000
   18      H      -0.4498720000    -5.1397430000     4.5356740000
   19      H      -1.3813880000    -4.1531310000     3.3429860000
   20      H       0.3410400000    -3.7395310000     3.7282390000
   21      C      -0.0003480000    -2.3066540000    -1.0807250000
   22      S       0.0109240000    -2.3065010000     1.5426940000
   23      C       0.0000000000    -1.4351850000     0.0000000000
   24      H      -0.0036120000    -1.9781380000    -2.1276350000
   25      H       0.0377640000    -9.6140330000    -0.3205590000
   26      C       0.0000000000     0.0000000000     0.0000000000
   27      S       0.7837860000     0.4519720000     1.5075410000
   28      C       2.1452610000     1.2389080000     0.7188730000
   29      C       0.7836500000     0.4515720000    -1.0678720000
   30      C       1.9863960000     1.1486480000    -0.6864100000
   31      S       0.5741330000     0.3273170000    -2.8055160000
   32      C       2.0883630000     1.2079430000    -3.0545300000
   33      C       2.7005480000     1.5642210000    -1.8625510000
   34      F       3.8557180000     2.2367060000    -1.8190880000
   35      C       2.4773070000     1.4303180000    -4.4560840000
   36      O       1.8145920000     1.0384820000    -5.4065100000
   37      O       3.6431620000     2.1120420000    -4.5692250000
   38      C       4.0745300000     2.3550610000    -5.9162070000
   39      H       5.0245560000     2.9116270000    -5.8330640000
   40      H       3.3220100000     2.9518600000    -6.4701680000
   41      H       4.2294900000     1.4009100000    -6.4592930000
   42      H       2.9449860000     1.7022600000     1.3064860000
 ----------------------------------------------------------------

   10   -2754.2417083438      9.05e-07  Convergence criterion met
 Total energy in the final basis set =    -2754.2417083438
        RIMP2         total energy =     -2759.3091999867 a.u.

                    Orbital Energies (a.u.)
 --------------------------------------------------------------

 Alpha MOs
 -- Occupied --
-92.0163 -92.0130 -91.9838 -91.9816 -26.3478 -20.6164 -20.5903 -20.5848
-20.5630 -11.4118 -11.3891 -11.3400 -11.3255 -11.3158 -11.3064 -11.3001
-11.2982 -11.2915 -11.2899 -11.2861 -11.2824 -11.2795 -11.2756 -11.2748
-11.2725 -11.2559 -11.2493 -11.2463 -11.2300  -9.0162  -9.0127  -8.9850
 -8.9816  -6.6968  -6.6959  -6.6957  -6.6935  -6.6928  -6.6918  -6.6660
 -6.6652  -6.6642  -6.6626  -6.6620  -6.6611  -1.6647  -1.4690  -1.4141
 -1.4077  -1.3718  -1.2378  -1.1888  -1.1655  -1.1409  -1.0862  -1.0482
 -1.0452  -1.0297  -0.9958  -0.9881  -0.9675  -0.9571  -0.9476  -0.9388
 -0.8928  -0.8738  -0.8445  -0.8129  -0.7993  -0.7867  -0.7811  -0.7608
 -0.7565  -0.7296  -0.7293  -0.7156  -0.6990  -0.6876  -0.6839  -0.6791
 -0.6755  -0.6614  -0.6563  -0.6486  -0.6294  -0.6161  -0.6156  -0.6051
 -0.6032  -0.5833  -0.5801  -0.5702  -0.5631  -0.5612  -0.5555  -0.5415
 -0.5352  -0.5311  -0.5221  -0.5157  -0.5139  -0.5093  -0.5027  -0.4953
 -0.4880  -0.4807  -0.4773  -0.4744  -0.4672  -0.4570  -0.4549  -0.4265
 -0.3920  -0.3784  -0.3633  -0.3425  -0.3298  -0.2897  -0.2434

          Ground-State Mulliken Net Atomic Charges

     Atom                 Charge (a.u.)
  ----------------------------------------
      1 C                    -0.203555
      2 C                    -0.253058
      3 S                    -0.030580
      4 C                    -0.029192
      5 H                     0.194501
      6 C                    -0.021844
      7 C                     0.225755
      8 C                     0.248371
      9 C                    -0.054875
     10 C                    -0.004658
     11 O                    -0.333353
     12 O                    -0.343532
     13 C                    -0.086258
     14 H                     0.121726
     15 H                     0.090223
     16 H                     0.091407
     17 C                    -0.088136
     18 H                     0.125238
     19 H                     0.094384
     20 H                     0.088498
     21 C                    -0.287246
     22 S                    -0.044868
     23 C                     0.003276
     24 H                     0.185760
     25 H                     0.203696
     26 C                    -0.136394
     27 S                     0.113702
     28 C                    -0.112753
     29 C                     0.086535
     30 C                    -0.120653
     31 S                     0.074347
     32 C                    -0.159362
     33 C                     0.399398
     34 F                    -0.203168
     35 C                     0.450689
     36 O                    -0.461637
     37 O                    -0.301224
     38 C                    -0.058051
     39 H                     0.121766
     40 H                     0.095452
     41 H                     0.095432
     42 H                     0.224241
  ----------------------------------------
  Sum of atomic charges =     0.000000

                    Cartesian Multipole Moments
 -----------------------------------------------------------------
    Charge (ESU x 10^10)
                -0.0000
    Dipole Moment (Debye)
         X       4.2757      Y       3.0153      Z       3.0747
       Tot       6.0686
    Quadrupole Moments (Debye-Ang)
        XX    -186.3986     XY       6.9997     YY    -186.6632
        XZ     -11.7849     YZ      -5.6269     ZZ    -180.9027

 Total job time:  295.65s(wall), 9698.65s(cpu)
        *  Thank you very much for using Q-Chem.  Have a nice day.  *
