 Q-Chem 5.4, Q-Chem, Inc., Pleasanton, CA (2021)
 Q-Chem 5.4.0 for Intel X86 EM64T Linux

User input:
--------------------------------------------------------------
$molecule
0 1
C	-0.194917	-8.517702	0.254945
C	0.335839	-7.641575	-0.680596
S	-0.954772	-7.638634	1.603876
C	0.147576	-6.264785	-0.354585
H	0.854836	-7.966081	-1.591356
C	-0.567090	-6.072714	0.879999
C	-0.826731	-4.787049	1.379534
C	0.618405	-5.162801	-1.124384
C	0.362333	-3.874817	-0.622407
C	-0.355575	-3.683952	0.612067
O	1.253677	-5.499772	-2.281166
O	-1.463859	-4.459055	2.542174
C	-2.462679	-5.329063	3.060718
H	-2.997507	-4.755694	3.841678
H	-2.027179	-6.238095	3.530361
H	-3.185132	-5.637262	2.274283
C	2.124902	-4.572261	-2.916545
H	2.657438	-5.139743	-3.703073
H	2.867810	-4.153131	-2.204417
H	1.568770	-3.739531	-3.399269
C	-0.540061	-2.306654	0.936109
S	0.761887	-2.306501	-1.341474
C	0.000000	-1.435185	0.000000
H	-1.060690	-1.978138	1.844392
H	-0.192984	-9.614033	0.258730
C	0.000000	0.000000	0.000000
S	0.234628	0.873813	1.507541
C	0.640889	2.392969	0.718873
C	0.234815	0.873434	-1.067872
C	0.592377	2.216811	-0.686410
S	0.174526	0.637422	-2.805516
C	0.622551	2.330840	-3.054530
C	0.803505	3.015647	-1.862551
F	1.144815	4.307994	-1.819088
C	0.740334	2.763108	-4.456084
O	0.548793	2.017428	-5.406510
O	1.082665	4.069544	-4.569225
C	1.215848	4.546407	-5.916207
H	1.494066	5.611729	-5.833064
H	0.261736	4.436296	-6.470168
H	2.000108	3.981294	-6.459293
H	0.878739	3.286099	1.306486
$end

$rem
JOBTYPE		SP
EXCHANGE	HF
CORRELATION	pRIMP2
BASIS		cc-pvtz
METHOD		rimp2
AUX_BASIS	rimp2-cc-pvtz
SOLVENT_METHOD	PCM
PURECART	11111
SYMMETRY	false
MEM_TOTAL	110000
SCF_CONVERGENCE = 6
THRESH=10
GUI = 2
$end

$solvent
dielectric 4.90
$end
--------------------------------------------------------------

             Standard Nuclear Orientation (Angstroms)
    I     Atom           X                Y                Z
 ----------------------------------------------------------------
    1      C      -0.1949170000    -8.5177020000     0.2549450000
    2      C       0.3358390000    -7.6415750000    -0.6805960000
    3      S      -0.9547720000    -7.6386340000     1.6038760000
    4      C       0.1475760000    -6.2647850000    -0.3545850000
    5      H       0.8548360000    -7.9660810000    -1.5913560000
    6      C      -0.5670900000    -6.0727140000     0.8799990000
    7      C      -0.8267310000    -4.7870490000     1.3795340000
    8      C       0.6184050000    -5.1628010000    -1.1243840000
    9      C       0.3623330000    -3.8748170000    -0.6224070000
   10      C      -0.3555750000    -3.6839520000     0.6120670000
   11      O       1.2536770000    -5.4997720000    -2.2811660000
   12      O      -1.4638590000    -4.4590550000     2.5421740000
   13      C      -2.4626790000    -5.3290630000     3.0607180000
   14      H      -2.9975070000    -4.7556940000     3.8416780000
   15      H      -2.0271790000    -6.2380950000     3.5303610000
   16      H      -3.1851320000    -5.6372620000     2.2742830000
   17      C       2.1249020000    -4.5722610000    -2.9165450000
   18      H       2.6574380000    -5.1397430000    -3.7030730000
   19      H       2.8678100000    -4.1531310000    -2.2044170000
   20      H       1.5687700000    -3.7395310000    -3.3992690000
   21      C      -0.5400610000    -2.3066540000     0.9361090000
   22      S       0.7618870000    -2.3065010000    -1.3414740000
   23      C       0.0000000000    -1.4351850000     0.0000000000
   24      H      -1.0606900000    -1.9781380000     1.8443920000
   25      H      -0.1929840000    -9.6140330000     0.2587300000
   26      C       0.0000000000     0.0000000000     0.0000000000
   27      S       0.2346280000     0.8738130000     1.5075410000
   28      C       0.6408890000     2.3929690000     0.7188730000
   29      C       0.2348150000     0.8734340000    -1.0678720000
   30      C       0.5923770000     2.2168110000    -0.6864100000
   31      S       0.1745260000     0.6374220000    -2.8055160000
   32      C       0.6225510000     2.3308400000    -3.0545300000
   33      C       0.8035050000     3.0156470000    -1.8625510000
   34      F       1.1448150000     4.3079940000    -1.8190880000
   35      C       0.7403340000     2.7631080000    -4.4560840000
   36      O       0.5487930000     2.0174280000    -5.4065100000
   37      O       1.0826650000     4.0695440000    -4.5692250000
   38      C       1.2158480000     4.5464070000    -5.9162070000
   39      H       1.4940660000     5.6117290000    -5.8330640000
   40      H       0.2617360000     4.4362960000    -6.4701680000
   41      H       2.0001080000     3.9812940000    -6.4592930000
   42      H       0.8787390000     3.2860990000     1.3064860000
 ----------------------------------------------------------------

   10   -2754.3121696608      7.56e-07  Convergence criterion met
 Total energy in the final basis set =    -2754.3121696608
        RIMP2         total energy =     -2759.3656550953 a.u.

                    Orbital Energies (a.u.)
 --------------------------------------------------------------

 Alpha MOs
 -- Occupied --
-92.0152 -91.9984 -91.9902 -91.9862 -26.3432 -20.6147 -20.5922 -20.5912
-20.5611 -11.4093 -11.3823 -11.3196 -11.3170 -11.3108 -11.3012 -11.2991
-11.2971 -11.2961 -11.2888 -11.2866 -11.2861 -11.2857 -11.2853 -11.2841
-11.2792 -11.2615 -11.2582 -11.2546 -11.2498  -9.0137  -8.9985  -8.9907
 -8.9861  -6.6945  -6.6939  -6.6933  -6.6795  -6.6788  -6.6777  -6.6716
 -6.6710  -6.6700  -6.6671  -6.6664  -6.6656  -1.6603  -1.4672  -1.4163
 -1.4140  -1.3698  -1.2223  -1.1944  -1.1656  -1.1362  -1.0856  -1.0519
 -1.0414  -1.0237  -1.0019  -0.9879  -0.9640  -0.9585  -0.9499  -0.9404
 -0.8958  -0.8679  -0.8513  -0.8143  -0.7920  -0.7874  -0.7859  -0.7651
 -0.7553  -0.7338  -0.7252  -0.7100  -0.6989  -0.6855  -0.6833  -0.6815
 -0.6738  -0.6590  -0.6580  -0.6524  -0.6306  -0.6198  -0.6167  -0.6040
 -0.5975  -0.5838  -0.5786  -0.5693  -0.5671  -0.5585  -0.5580  -0.5529
 -0.5324  -0.5297  -0.5245  -0.5178  -0.5165  -0.5103  -0.5067  -0.4958
 -0.4877  -0.4790  -0.4765  -0.4742  -0.4700  -0.4643  -0.4594  -0.4223
 -0.3955  -0.3850  -0.3586  -0.3510  -0.3251  -0.2897  -0.2511

          Ground-State Mulliken Net Atomic Charges

     Atom                 Charge (a.u.)
  ----------------------------------------
      1 C                    -0.190043
      2 C                    -0.253738
      3 S                    -0.022957
      4 C                    -0.017607
      5 H                     0.196367
      6 C                    -0.026382
      7 C                     0.238133
      8 C                     0.242816
      9 C                    -0.042365
     10 C                    -0.008481
     11 O                    -0.332960
     12 O                    -0.340471
     13 C                    -0.085649
     14 H                     0.122188
     15 H                     0.091055
     16 H                     0.094123
     17 C                    -0.089318
     18 H                     0.125816
     19 H                     0.094747
     20 H                     0.091296
     21 C                    -0.270295
     22 S                    -0.025707
     23 C                     0.013764
     24 H                     0.191549
     25 H                     0.206229
     26 C                     0.041764
     27 S                     0.108496
     28 C                    -0.194338
     29 C                    -0.067167
     30 C                    -0.094649
     31 S                     0.014601
     32 C                    -0.161558
     33 C                     0.406132
     34 F                    -0.207135
     35 C                     0.442810
     36 O                    -0.461015
     37 O                    -0.300734
     38 C                    -0.058479
     39 H                     0.121394
     40 H                     0.095173
     41 H                     0.095007
     42 H                     0.217585
  ----------------------------------------
  Sum of atomic charges =     0.000000

                    Cartesian Multipole Moments
 -----------------------------------------------------------------
    Charge (ESU x 10^10)
                 0.0000
    Dipole Moment (Debye)
         X       0.6510      Y       1.1484      Z       2.6748
       Tot       2.9828
    Quadrupole Moments (Debye-Ang)
        XX    -189.2035     XY       5.1358     YY    -161.5301
        XZ     -14.5418     YZ      -6.2934     ZZ    -192.9216

 Total job time:  313.39s(wall), 10233.74s(cpu)
        *  Thank you very much for using Q-Chem.  Have a nice day.  *
