 Q-Chem 5.4, Q-Chem, Inc., Pleasanton, CA (2021)
 Q-Chem 5.4.0 for Intel X86 EM64T Linux

User input:
--------------------------------------------------------------
$molecule
0 1
C	-0.172904	-8.517702	-0.270358
C	0.524688	-7.641575	0.548363
S	-1.180599	-7.638634	-1.445750
C	0.282727	-6.264785	0.259951
H	1.203014	-7.966081	1.347559
C	-0.632972	-6.072714	-0.833868
C	-1.013580	-4.787049	-1.248701
C	0.845068	-5.162801	0.965673
C	0.460946	-3.874817	0.553357
C	-0.453541	-3.683952	-0.543470
O	1.714812	-5.499772	1.958276
O	-1.888193	-4.459055	-2.245053
C	-2.033848	-5.329063	-3.360989
H	-2.584788	-4.755694	-4.130667
H	-2.624118	-6.238095	-3.112380
H	-1.047748	-5.637262	-3.770895
C	2.013896	-4.572261	2.994272
H	2.570853	-5.139743	3.763700
H	1.090625	-4.153131	3.448815
H	2.657717	-3.739531	2.636780
C	-0.694943	-2.306654	-0.827659
S	0.999993	-2.306501	1.174750
C	-0.000000	-1.435185	-0.000000
H	-1.370385	-1.978138	-1.627541
H	-0.177122	-9.614033	-0.269836
C	0.000000	0.000000	0.000000
S	0.157577	0.890937	1.507541
C	0.429889	2.439720	0.718873
C	0.157797	0.890576	-1.067872
C	0.396915	2.260004	-0.686410
S	0.118307	0.650207	-2.805516
C	0.417036	2.376229	-3.054530
C	0.537616	3.074202	-1.862551
F	0.764992	4.391378	-1.819088
C	0.496696	2.817118	-4.456084
O	0.370874	2.057582	-5.406510
O	0.723861	4.148418	-4.569225
C	0.814976	4.635075	-5.916207
H	0.999286	5.720591	-5.833064
H	-0.125909	4.442226	-6.470168
H	1.645504	4.140465	-6.459293
H	0.588993	3.350182	1.306486
$end

$rem
JOBTYPE		SP
EXCHANGE	HF
CORRELATION	pRIMP2
BASIS		cc-pvtz
METHOD		rimp2
AUX_BASIS	rimp2-cc-pvtz
SOLVENT_METHOD	PCM
PURECART	11111
SYMMETRY	false
MEM_TOTAL	110000
SCF_CONVERGENCE = 6
THRESH=10
GUI = 2
$end

$solvent
dielectric 4.90
$end
--------------------------------------------------------------

             Standard Nuclear Orientation (Angstroms)
    I     Atom           X                Y                Z
 ----------------------------------------------------------------
    1      C      -0.1729040000    -8.5177020000    -0.2703580000
    2      C       0.5246880000    -7.6415750000     0.5483630000
    3      S      -1.1805990000    -7.6386340000    -1.4457500000
    4      C       0.2827270000    -6.2647850000     0.2599510000
    5      H       1.2030140000    -7.9660810000     1.3475590000
    6      C      -0.6329720000    -6.0727140000    -0.8338680000
    7      C      -1.0135800000    -4.7870490000    -1.2487010000
    8      C       0.8450680000    -5.1628010000     0.9656730000
    9      C       0.4609460000    -3.8748170000     0.5533570000
   10      C      -0.4535410000    -3.6839520000    -0.5434700000
   11      O       1.7148120000    -5.4997720000     1.9582760000
   12      O      -1.8881930000    -4.4590550000    -2.2450530000
   13      C      -2.0338480000    -5.3290630000    -3.3609890000
   14      H      -2.5847880000    -4.7556940000    -4.1306670000
   15      H      -2.6241180000    -6.2380950000    -3.1123800000
   16      H      -1.0477480000    -5.6372620000    -3.7708950000
   17      C       2.0138960000    -4.5722610000     2.9942720000
   18      H       2.5708530000    -5.1397430000     3.7637000000
   19      H       1.0906250000    -4.1531310000     3.4488150000
   20      H       2.6577170000    -3.7395310000     2.6367800000
   21      C      -0.6949430000    -2.3066540000    -0.8276590000
   22      S       0.9999930000    -2.3065010000     1.1747500000
   23      C       0.0000000000    -1.4351850000     0.0000000000
   24      H      -1.3703850000    -1.9781380000    -1.6275410000
   25      H      -0.1771220000    -9.6140330000    -0.2698360000
   26      C       0.0000000000     0.0000000000     0.0000000000
   27      S       0.1575770000     0.8909370000     1.5075410000
   28      C       0.4298890000     2.4397200000     0.7188730000
   29      C       0.1577970000     0.8905760000    -1.0678720000
   30      C       0.3969150000     2.2600040000    -0.6864100000
   31      S       0.1183070000     0.6502070000    -2.8055160000
   32      C       0.4170360000     2.3762290000    -3.0545300000
   33      C       0.5376160000     3.0742020000    -1.8625510000
   34      F       0.7649920000     4.3913780000    -1.8190880000
   35      C       0.4966960000     2.8171180000    -4.4560840000
   36      O       0.3708740000     2.0575820000    -5.4065100000
   37      O       0.7238610000     4.1484180000    -4.5692250000
   38      C       0.8149760000     4.6350750000    -5.9162070000
   39      H       0.9992860000     5.7205910000    -5.8330640000
   40      H      -0.1259090000     4.4422260000    -6.4701680000
   41      H       1.6455040000     4.1404650000    -6.4592930000
   42      H       0.5889930000     3.3501820000     1.3064860000
 ----------------------------------------------------------------

   10   -2754.3150285598      7.16e-07  Convergence criterion met
 Total energy in the final basis set =    -2754.3150285598
        RIMP2         total energy =     -2759.3663729613 a.u.

                    Orbital Energies (a.u.)
 --------------------------------------------------------------

 Alpha MOs
 -- Occupied --
-92.0156 -91.9980 -91.9914 -91.9863 -26.3430 -20.6146 -20.5929 -20.5910
-20.5611 -11.4092 -11.3820 -11.3199 -11.3175 -11.3096 -11.3008 -11.2995
-11.2972 -11.2957 -11.2887 -11.2877 -11.2864 -11.2855 -11.2850 -11.2842
-11.2796 -11.2615 -11.2588 -11.2558 -11.2500  -9.0141  -8.9980  -8.9918
 -8.9862  -6.6949  -6.6943  -6.6938  -6.6790  -6.6782  -6.6771  -6.6728
 -6.6721  -6.6711  -6.6672  -6.6666  -6.6657  -1.6601  -1.4671  -1.4169
 -1.4138  -1.3698  -1.2214  -1.1948  -1.1660  -1.1362  -1.0851  -1.0521
 -1.0414  -1.0230  -1.0019  -0.9882  -0.9633  -0.9600  -0.9505  -0.9390
 -0.8964  -0.8676  -0.8520  -0.8081  -0.7978  -0.7874  -0.7868  -0.7645
 -0.7552  -0.7341  -0.7250  -0.7095  -0.7018  -0.6851  -0.6832  -0.6805
 -0.6737  -0.6593  -0.6579  -0.6524  -0.6306  -0.6199  -0.6172  -0.6037
 -0.5978  -0.5861  -0.5780  -0.5702  -0.5659  -0.5599  -0.5553  -0.5486
 -0.5354  -0.5306  -0.5224  -0.5175  -0.5165  -0.5107  -0.5049  -0.4950
 -0.4880  -0.4801  -0.4759  -0.4739  -0.4690  -0.4683  -0.4616  -0.4189
 -0.3963  -0.3854  -0.3587  -0.3500  -0.3235  -0.2916  -0.2533

          Ground-State Mulliken Net Atomic Charges

     Atom                 Charge (a.u.)
  ----------------------------------------
      1 C                    -0.188980
      2 C                    -0.254409
      3 S                    -0.021662
      4 C                    -0.014957
      5 H                     0.196248
      6 C                    -0.026522
      7 C                     0.242157
      8 C                     0.239935
      9 C                    -0.044707
     10 C                    -0.024232
     11 O                    -0.332866
     12 O                    -0.340071
     13 C                    -0.086028
     14 H                     0.123166
     15 H                     0.091096
     16 H                     0.094124
     17 C                    -0.087599
     18 H                     0.125332
     19 H                     0.094545
     20 H                     0.089878
     21 C                    -0.243142
     22 S                    -0.017119
     23 C                    -0.034100
     24 H                     0.199994
     25 H                     0.206344
     26 C                    -0.000822
     27 S                     0.087551
     28 C                    -0.182396
     29 C                     0.025913
     30 C                    -0.113039
     31 S                     0.007267
     32 C                    -0.152141
     33 C                     0.392627
     34 F                    -0.206752
     35 C                     0.445143
     36 O                    -0.460791
     37 O                    -0.300644
     38 C                    -0.058589
     39 H                     0.121334
     40 H                     0.095070
     41 H                     0.095097
     42 H                     0.218749
  ----------------------------------------
  Sum of atomic charges =     0.000000

                    Cartesian Multipole Moments
 -----------------------------------------------------------------
    Charge (ESU x 10^10)
                 0.0000
    Dipole Moment (Debye)
         X       0.7440      Y       1.0166      Z       2.9272
       Tot       3.1868
    Quadrupole Moments (Debye-Ang)
        XX    -196.6612     XY       1.7930     YY    -160.0498
        XZ       8.9171     YZ      -6.2835     ZZ    -186.2408

 Total job time:  287.18s(wall), 9161.82s(cpu)
        *  Thank you very much for using Q-Chem.  Have a nice day.  *
