 Q-Chem 5.4, Q-Chem, Inc., Pleasanton, CA (2021)
 Q-Chem 5.4.0 for Intel X86 EM64T Linux

User input:
--------------------------------------------------------------
$molecule
0 1
C	-0.236226	-8.517702	0.217225
C	0.448921	-7.641575	-0.611939
S	-1.218777	-7.638634	1.413715
C	0.206907	-6.264785	-0.323572
H	1.118185	-7.966081	-1.418739
C	-0.711285	-6.072714	0.768156
C	-1.053725	-4.787049	1.215016
C	0.804258	-5.162801	-0.999917
C	0.464908	-3.874817	-0.550033
C	-0.456457	-3.683952	0.541024
O	1.630752	-5.499772	-2.028811
O	-1.883064	-4.459055	2.249357
C	-2.956754	-5.329063	2.586579
H	-3.619069	-4.755694	3.262802
H	-2.609423	-6.238095	3.124711
H	-3.531667	-5.637262	1.686639
C	2.599073	-4.572261	-2.503251
H	3.260097	-5.139743	-3.185356
H	3.207034	-4.153131	-1.672937
H	2.135214	-3.739531	-3.075213
C	-0.694410	-2.306654	0.828107
S	0.983256	-2.306501	-1.188794
C	0.000000	-1.435185	0.000000
H	-1.364851	-1.978138	1.632185
H	-0.234980	-9.614033	0.221288
C	0.000000	0.000000	0.000000
S	0.234628	0.873813	1.507541
C	0.640889	2.392969	0.718873
C	0.234815	0.873434	-1.067872
C	0.592377	2.216811	-0.686410
S	0.174526	0.637422	-2.805516
C	0.622551	2.330840	-3.054530
C	0.803505	3.015647	-1.862551
F	1.144815	4.307994	-1.819088
C	0.740334	2.763108	-4.456084
O	0.548793	2.017428	-5.406510
O	1.082665	4.069544	-4.569225
C	1.215848	4.546407	-5.916207
H	1.494066	5.611729	-5.833064
H	0.261736	4.436296	-6.470168
H	2.000108	3.981294	-6.459293
H	0.878739	3.286099	1.306486
$end

$rem
JOBTYPE		SP
EXCHANGE	HF
CORRELATION	pRIMP2
BASIS		cc-pvtz
METHOD		rimp2
AUX_BASIS	rimp2-cc-pvtz
SOLVENT_METHOD	PCM
PURECART	11111
SYMMETRY	false
MEM_TOTAL	110000
SCF_CONVERGENCE = 6
THRESH=10
GUI = 2
$end

$solvent
dielectric 4.90
$end
--------------------------------------------------------------

             Standard Nuclear Orientation (Angstroms)
    I     Atom           X                Y                Z
 ----------------------------------------------------------------
    1      C      -0.2362260000    -8.5177020000     0.2172250000
    2      C       0.4489210000    -7.6415750000    -0.6119390000
    3      S      -1.2187770000    -7.6386340000     1.4137150000
    4      C       0.2069070000    -6.2647850000    -0.3235720000
    5      H       1.1181850000    -7.9660810000    -1.4187390000
    6      C      -0.7112850000    -6.0727140000     0.7681560000
    7      C      -1.0537250000    -4.7870490000     1.2150160000
    8      C       0.8042580000    -5.1628010000    -0.9999170000
    9      C       0.4649080000    -3.8748170000    -0.5500330000
   10      C      -0.4564570000    -3.6839520000     0.5410240000
   11      O       1.6307520000    -5.4997720000    -2.0288110000
   12      O      -1.8830640000    -4.4590550000     2.2493570000
   13      C      -2.9567540000    -5.3290630000     2.5865790000
   14      H      -3.6190690000    -4.7556940000     3.2628020000
   15      H      -2.6094230000    -6.2380950000     3.1247110000
   16      H      -3.5316670000    -5.6372620000     1.6866390000
   17      C       2.5990730000    -4.5722610000    -2.5032510000
   18      H       3.2600970000    -5.1397430000    -3.1853560000
   19      H       3.2070340000    -4.1531310000    -1.6729370000
   20      H       2.1352140000    -3.7395310000    -3.0752130000
   21      C      -0.6944100000    -2.3066540000     0.8281070000
   22      S       0.9832560000    -2.3065010000    -1.1887940000
   23      C       0.0000000000    -1.4351850000     0.0000000000
   24      H      -1.3648510000    -1.9781380000     1.6321850000
   25      H      -0.2349800000    -9.6140330000     0.2212880000
   26      C       0.0000000000     0.0000000000     0.0000000000
   27      S       0.2346280000     0.8738130000     1.5075410000
   28      C       0.6408890000     2.3929690000     0.7188730000
   29      C       0.2348150000     0.8734340000    -1.0678720000
   30      C       0.5923770000     2.2168110000    -0.6864100000
   31      S       0.1745260000     0.6374220000    -2.8055160000
   32      C       0.6225510000     2.3308400000    -3.0545300000
   33      C       0.8035050000     3.0156470000    -1.8625510000
   34      F       1.1448150000     4.3079940000    -1.8190880000
   35      C       0.7403340000     2.7631080000    -4.4560840000
   36      O       0.5487930000     2.0174280000    -5.4065100000
   37      O       1.0826650000     4.0695440000    -4.5692250000
   38      C       1.2158480000     4.5464070000    -5.9162070000
   39      H       1.4940660000     5.6117290000    -5.8330640000
   40      H       0.2617360000     4.4362960000    -6.4701680000
   41      H       2.0001080000     3.9812940000    -6.4592930000
   42      H       0.8787390000     3.2860990000     1.3064860000
 ----------------------------------------------------------------

   10   -2754.3122840788      7.43e-07  Convergence criterion met
 Total energy in the final basis set =    -2754.3122840788
        RIMP2         total energy =     -2759.3649598278 a.u.

                    Orbital Energies (a.u.)
 --------------------------------------------------------------

 Alpha MOs
 -- Occupied --
-92.0152 -91.9979 -91.9900 -91.9863 -26.3430 -20.6146 -20.5922 -20.5914
-20.5610 -11.4091 -11.3819 -11.3195 -11.3174 -11.3101 -11.3006 -11.2983
-11.2969 -11.2950 -11.2887 -11.2867 -11.2862 -11.2858 -11.2849 -11.2841
-11.2795 -11.2612 -11.2586 -11.2553 -11.2499  -9.0137  -8.9980  -8.9904
 -8.9862  -6.6944  -6.6938  -6.6933  -6.6790  -6.6782  -6.6771  -6.6713
 -6.6706  -6.6697  -6.6672  -6.6666  -6.6657  -1.6601  -1.4670  -1.4163
 -1.4142  -1.3697  -1.2217  -1.1944  -1.1656  -1.1359  -1.0853  -1.0520
 -1.0412  -1.0232  -1.0019  -0.9878  -0.9637  -0.9586  -0.9500  -0.9399
 -0.8958  -0.8675  -0.8512  -0.8135  -0.7918  -0.7871  -0.7864  -0.7651
 -0.7551  -0.7338  -0.7249  -0.7098  -0.6991  -0.6852  -0.6833  -0.6811
 -0.6737  -0.6591  -0.6577  -0.6526  -0.6305  -0.6199  -0.6169  -0.6043
 -0.5973  -0.5840  -0.5783  -0.5693  -0.5666  -0.5591  -0.5571  -0.5525
 -0.5323  -0.5299  -0.5244  -0.5170  -0.5158  -0.5089  -0.5071  -0.4962
 -0.4882  -0.4792  -0.4761  -0.4736  -0.4699  -0.4648  -0.4597  -0.4187
 -0.3969  -0.3849  -0.3575  -0.3504  -0.3245  -0.2897  -0.2532

          Ground-State Mulliken Net Atomic Charges

     Atom                 Charge (a.u.)
  ----------------------------------------
      1 C                    -0.189310
      2 C                    -0.253829
      3 S                    -0.022992
      4 C                    -0.016510
      5 H                     0.196458
      6 C                    -0.025944
      7 C                     0.238865
      8 C                     0.241436
      9 C                    -0.042080
     10 C                    -0.009357
     11 O                    -0.333088
     12 O                    -0.340235
     13 C                    -0.085703
     14 H                     0.122368
     15 H                     0.091019
     16 H                     0.094189
     17 C                    -0.088432
     18 H                     0.125529
     19 H                     0.094577
     20 H                     0.091077
     21 C                    -0.265399
     22 S                    -0.017332
     23 C                    -0.001268
     24 H                     0.194498
     25 H                     0.206338
     26 C                     0.033799
     27 S                     0.111087
     28 C                    -0.194169
     29 C                    -0.069650
     30 C                    -0.090416
     31 S                     0.016852
     32 C                    -0.157815
     33 C                     0.400468
     34 F                    -0.207251
     35 C                     0.443673
     36 O                    -0.460996
     37 O                    -0.300723
     38 C                    -0.058460
     39 H                     0.121335
     40 H                     0.095148
     41 H                     0.094974
     42 H                     0.217270
  ----------------------------------------
  Sum of atomic charges =     0.000000

                    Cartesian Multipole Moments
 -----------------------------------------------------------------
    Charge (ESU x 10^10)
                -0.0000
    Dipole Moment (Debye)
         X       0.6741      Y       1.0356      Z       2.6965
       Tot       2.9662
    Quadrupole Moments (Debye-Ang)
        XX    -184.8259     XY       5.0332     YY    -161.2111
        XZ     -14.0316     YZ      -6.1525     ZZ    -197.3735

 Total job time:  292.94s(wall), 9324.82s(cpu)
        *  Thank you very much for using Q-Chem.  Have a nice day.  *
