 Q-Chem 5.4, Q-Chem, Inc., Pleasanton, CA (2021)
 Q-Chem 5.4.0 for Intel X86 EM64T Linux

User input:
--------------------------------------------------------------
$molecule
0 1
C	-0.070009	-8.517702	-0.313191
C	0.305494	-7.641575	0.694746
S	-0.614924	-7.638634	-1.762350
C	0.176768	-6.264785	0.340973
H	0.669571	-7.966081	1.677747
C	-0.309600	-6.072714	-1.000069
C	-0.525372	-4.787049	-1.520060
C	0.463825	-5.162801	1.196466
C	0.243888	-3.874817	0.677639
C	-0.240312	-3.683952	-0.665815
O	0.941626	-5.499772	2.426678
O	-1.006468	-4.459055	-2.755460
C	-0.761666	-5.329063	-3.853913
H	-1.016135	-4.755694	-4.765607
H	-1.401368	-6.238095	-3.822182
H	0.305161	-5.637262	-3.901833
C	0.868342	-4.572261	3.502489
H	1.128551	-5.139743	4.416005
H	-0.154712	-4.153131	3.613841
H	1.595605	-3.739531	3.386756
C	-0.369957	-2.306654	-1.015430
S	0.537898	-2.306501	1.445922
C	0.000000	-1.435185	0.000000
H	-0.731088	-1.978138	-1.998088
H	-0.074151	-9.614033	-0.314143
C	0.000000	0.000000	0.000000
S	0.234628	0.873813	1.507541
C	0.640889	2.392969	0.718873
C	0.234815	0.873434	-1.067872
C	0.592377	2.216811	-0.686410
S	0.174526	0.637422	-2.805516
C	0.622551	2.330840	-3.054530
C	0.803505	3.015647	-1.862551
F	1.144815	4.307994	-1.819088
C	0.740334	2.763108	-4.456084
O	0.548793	2.017428	-5.406510
O	1.082665	4.069544	-4.569225
C	1.215848	4.546407	-5.916207
H	1.494066	5.611729	-5.833064
H	0.261736	4.436296	-6.470168
H	2.000108	3.981294	-6.459293
H	0.878739	3.286099	1.306486
$end

$rem
JOBTYPE		SP
EXCHANGE	HF
CORRELATION	pRIMP2
BASIS		cc-pvtz
METHOD		rimp2
AUX_BASIS	rimp2-cc-pvtz
SOLVENT_METHOD	PCM
PURECART	11111
SYMMETRY	false
MEM_TOTAL	110000
SCF_CONVERGENCE = 6
THRESH=10
GUI = 2
$end

$solvent
dielectric 4.90
$end
--------------------------------------------------------------

             Standard Nuclear Orientation (Angstroms)
    I     Atom           X                Y                Z
 ----------------------------------------------------------------
    1      C      -0.0700090000    -8.5177020000    -0.3131910000
    2      C       0.3054940000    -7.6415750000     0.6947460000
    3      S      -0.6149240000    -7.6386340000    -1.7623500000
    4      C       0.1767680000    -6.2647850000     0.3409730000
    5      H       0.6695710000    -7.9660810000     1.6777470000
    6      C      -0.3096000000    -6.0727140000    -1.0000690000
    7      C      -0.5253720000    -4.7870490000    -1.5200600000
    8      C       0.4638250000    -5.1628010000     1.1964660000
    9      C       0.2438880000    -3.8748170000     0.6776390000
   10      C      -0.2403120000    -3.6839520000    -0.6658150000
   11      O       0.9416260000    -5.4997720000     2.4266780000
   12      O      -1.0064680000    -4.4590550000    -2.7554600000
   13      C      -0.7616660000    -5.3290630000    -3.8539130000
   14      H      -1.0161350000    -4.7556940000    -4.7656070000
   15      H      -1.4013680000    -6.2380950000    -3.8221820000
   16      H       0.3051610000    -5.6372620000    -3.9018330000
   17      C       0.8683420000    -4.5722610000     3.5024890000
   18      H       1.1285510000    -5.1397430000     4.4160050000
   19      H      -0.1547120000    -4.1531310000     3.6138410000
   20      H       1.5956050000    -3.7395310000     3.3867560000
   21      C      -0.3699570000    -2.3066540000    -1.0154300000
   22      S       0.5378980000    -2.3065010000     1.4459220000
   23      C       0.0000000000    -1.4351850000     0.0000000000
   24      H      -0.7310880000    -1.9781380000    -1.9980880000
   25      H      -0.0741510000    -9.6140330000    -0.3141430000
   26      C       0.0000000000     0.0000000000     0.0000000000
   27      S       0.2346280000     0.8738130000     1.5075410000
   28      C       0.6408890000     2.3929690000     0.7188730000
   29      C       0.2348150000     0.8734340000    -1.0678720000
   30      C       0.5923770000     2.2168110000    -0.6864100000
   31      S       0.1745260000     0.6374220000    -2.8055160000
   32      C       0.6225510000     2.3308400000    -3.0545300000
   33      C       0.8035050000     3.0156470000    -1.8625510000
   34      F       1.1448150000     4.3079940000    -1.8190880000
   35      C       0.7403340000     2.7631080000    -4.4560840000
   36      O       0.5487930000     2.0174280000    -5.4065100000
   37      O       1.0826650000     4.0695440000    -4.5692250000
   38      C       1.2158480000     4.5464070000    -5.9162070000
   39      H       1.4940660000     5.6117290000    -5.8330640000
   40      H       0.2617360000     4.4362960000    -6.4701680000
   41      H       2.0001080000     3.9812940000    -6.4592930000
   42      H       0.8787390000     3.2860990000     1.3064860000
 ----------------------------------------------------------------

   10   -2754.3127369874      7.34e-07  Convergence criterion met
 Total energy in the final basis set =    -2754.3127369874
        RIMP2         total energy =     -2759.3660506495 a.u.

                    Orbital Energies (a.u.)
 --------------------------------------------------------------

 Alpha MOs
 -- Occupied --
-92.0162 -92.0000 -91.9915 -91.9861 -26.3437 -20.6149 -20.5930 -20.5906
-20.5615 -11.4096 -11.3831 -11.3200 -11.3168 -11.3116 -11.3017 -11.3001
-11.2979 -11.2973 -11.2889 -11.2878 -11.2862 -11.2862 -11.2852 -11.2841
-11.2791 -11.2619 -11.2582 -11.2545 -11.2498  -9.0150  -9.0000  -8.9920
 -8.9860  -6.6957  -6.6952  -6.6946  -6.6809  -6.6802  -6.6791  -6.6730
 -6.6723  -6.6713  -6.6670  -6.6664  -6.6655  -1.6608  -1.4674  -1.4170
 -1.4134  -1.3701  -1.2228  -1.1948  -1.1663  -1.1372  -1.0856  -1.0521
 -1.0423  -1.0241  -1.0019  -0.9885  -0.9642  -0.9599  -0.9505  -0.9394
 -0.8965  -0.8685  -0.8521  -0.8088  -0.7989  -0.7881  -0.7861  -0.7643
 -0.7556  -0.7342  -0.7256  -0.7103  -0.7019  -0.6857  -0.6834  -0.6811
 -0.6740  -0.6593  -0.6587  -0.6522  -0.6307  -0.6197  -0.6170  -0.6025
 -0.5987  -0.5863  -0.5789  -0.5710  -0.5653  -0.5603  -0.5560  -0.5487
 -0.5358  -0.5307  -0.5225  -0.5192  -0.5172  -0.5117  -0.5052  -0.4953
 -0.4875  -0.4812  -0.4770  -0.4744  -0.4696  -0.4659  -0.4609  -0.4254
 -0.3965  -0.3843  -0.3606  -0.3490  -0.3270  -0.2901  -0.2506

          Ground-State Mulliken Net Atomic Charges

     Atom                 Charge (a.u.)
  ----------------------------------------
      1 C                    -0.190122
      2 C                    -0.254424
      3 S                    -0.021967
      4 C                    -0.016380
      5 H                     0.196046
      6 C                    -0.026965
      7 C                     0.243376
      8 C                     0.240975
      9 C                    -0.042584
     10 C                    -0.024522
     11 O                    -0.332846
     12 O                    -0.340654
     13 C                    -0.086169
     14 H                     0.123430
     15 H                     0.091275
     16 H                     0.093828
     17 C                    -0.088341
     18 H                     0.125816
     19 H                     0.094869
     20 H                     0.089583
     21 C                    -0.236283
     22 S                    -0.032604
     23 C                    -0.029174
     24 H                     0.192455
     25 H                     0.206202
     26 C                     0.009936
     27 S                     0.078749
     28 C                    -0.178988
     29 C                     0.034145
     30 C                    -0.119442
     31 S                     0.007814
     32 C                    -0.158753
     33 C                     0.400294
     34 F                    -0.206041
     35 C                     0.445515
     36 O                    -0.460786
     37 O                    -0.300845
     38 C                    -0.058460
     39 H                     0.121448
     40 H                     0.095155
     41 H                     0.095154
     42 H                     0.220284
  ----------------------------------------
  Sum of atomic charges =     0.000000

                    Cartesian Multipole Moments
 -----------------------------------------------------------------
    Charge (ESU x 10^10)
                 0.0000
    Dipole Moment (Debye)
         X       1.0510      Y       1.2671      Z       3.0267
       Tot       3.4455
    Quadrupole Moments (Debye-Ang)
        XX    -200.8350     XY       2.8003     YY    -161.1672
        XZ       0.9598     YZ      -6.8350     ZZ    -181.2132

 Total job time:  303.83s(wall), 9112.24s(cpu)
        *  Thank you very much for using Q-Chem.  Have a nice day.  *
