 Q-Chem 5.4, Q-Chem, Inc., Pleasanton, CA (2021)
 Q-Chem 5.4.0 for Intel X86 EM64T Linux

User input:
--------------------------------------------------------------
$molecule
0 1
C	-0.270358	-8.517702	0.172904
C	0.548363	-7.641575	-0.524688
S	-1.445750	-7.638634	1.180599
C	0.259951	-6.264785	-0.282727
H	1.347559	-7.966081	-1.203014
C	-0.833868	-6.072714	0.632972
C	-1.248701	-4.787049	1.013580
C	0.965673	-5.162801	-0.845068
C	0.553357	-3.874817	-0.460946
C	-0.543470	-3.683952	0.453541
O	1.958276	-5.499772	-1.714812
O	-2.245053	-4.459055	1.888193
C	-3.360989	-5.329063	2.033848
H	-4.130667	-4.755694	2.584788
H	-3.112380	-6.238095	2.624118
H	-3.770895	-5.637262	1.047748
C	2.994272	-4.572261	-2.013896
H	3.763700	-5.139743	-2.570853
H	3.448815	-4.153131	-1.090625
H	2.636780	-3.739531	-2.657717
C	-0.827659	-2.306654	0.694943
S	1.174750	-2.306501	-0.999993
C	-0.000000	-1.435185	-0.000000
H	-1.627541	-1.978138	1.370385
H	-0.269836	-9.614033	0.177122
C	0.000000	0.000000	0.000000
S	0.079327	0.901280	1.507541
C	0.215617	2.467903	0.718873
C	0.079577	0.900940	-1.067872
C	0.198433	2.285998	-0.686410
S	0.061187	0.658044	-2.805516
C	0.208347	2.403534	-3.054530
C	0.267636	3.109360	-1.862551
F	0.379347	4.441341	-1.819088
C	0.249278	2.849688	-4.456084
O	0.190132	2.082076	-5.406510
O	0.359548	4.195721	-4.569225
C	0.407901	4.688467	-5.916207
H	0.496901	5.785916	-5.833064
H	-0.512596	4.414348	-6.470168
H	1.278377	4.268124	-6.459293
H	0.294764	3.388767	1.306486
$end

$rem
JOBTYPE		SP
EXCHANGE	HF
CORRELATION	pRIMP2
BASIS		cc-pvtz
METHOD		rimp2
AUX_BASIS	rimp2-cc-pvtz
SOLVENT_METHOD	PCM
PURECART	11111
SYMMETRY	false
MEM_TOTAL	110000
SCF_CONVERGENCE = 6
THRESH=10
GUI = 2
$end

$solvent
dielectric 4.90
$end
--------------------------------------------------------------

             Standard Nuclear Orientation (Angstroms)
    I     Atom           X                Y                Z
 ----------------------------------------------------------------
    1      C      -0.2703580000    -8.5177020000     0.1729040000
    2      C       0.5483630000    -7.6415750000    -0.5246880000
    3      S      -1.4457500000    -7.6386340000     1.1805990000
    4      C       0.2599510000    -6.2647850000    -0.2827270000
    5      H       1.3475590000    -7.9660810000    -1.2030140000
    6      C      -0.8338680000    -6.0727140000     0.6329720000
    7      C      -1.2487010000    -4.7870490000     1.0135800000
    8      C       0.9656730000    -5.1628010000    -0.8450680000
    9      C       0.5533570000    -3.8748170000    -0.4609460000
   10      C      -0.5434700000    -3.6839520000     0.4535410000
   11      O       1.9582760000    -5.4997720000    -1.7148120000
   12      O      -2.2450530000    -4.4590550000     1.8881930000
   13      C      -3.3609890000    -5.3290630000     2.0338480000
   14      H      -4.1306670000    -4.7556940000     2.5847880000
   15      H      -3.1123800000    -6.2380950000     2.6241180000
   16      H      -3.7708950000    -5.6372620000     1.0477480000
   17      C       2.9942720000    -4.5722610000    -2.0138960000
   18      H       3.7637000000    -5.1397430000    -2.5708530000
   19      H       3.4488150000    -4.1531310000    -1.0906250000
   20      H       2.6367800000    -3.7395310000    -2.6577170000
   21      C      -0.8276590000    -2.3066540000     0.6949430000
   22      S       1.1747500000    -2.3065010000    -0.9999930000
   23      C       0.0000000000    -1.4351850000     0.0000000000
   24      H      -1.6275410000    -1.9781380000     1.3703850000
   25      H      -0.2698360000    -9.6140330000     0.1771220000
   26      C       0.0000000000     0.0000000000     0.0000000000
   27      S       0.0793270000     0.9012800000     1.5075410000
   28      C       0.2156170000     2.4679030000     0.7188730000
   29      C       0.0795770000     0.9009400000    -1.0678720000
   30      C       0.1984330000     2.2859980000    -0.6864100000
   31      S       0.0611870000     0.6580440000    -2.8055160000
   32      C       0.2083470000     2.4035340000    -3.0545300000
   33      C       0.2676360000     3.1093600000    -1.8625510000
   34      F       0.3793470000     4.4413410000    -1.8190880000
   35      C       0.2492780000     2.8496880000    -4.4560840000
   36      O       0.1901320000     2.0820760000    -5.4065100000
   37      O       0.3595480000     4.1957210000    -4.5692250000
   38      C       0.4079010000     4.6884670000    -5.9162070000
   39      H       0.4969010000     5.7859160000    -5.8330640000
   40      H      -0.5125960000     4.4143480000    -6.4701680000
   41      H       1.2783770000     4.2681240000    -6.4592930000
   42      H       0.2947640000     3.3887670000     1.3064860000
 ----------------------------------------------------------------

   10   -2754.3158344289      7.19e-07  Convergence criterion met
 Total energy in the final basis set =    -2754.3158344289
        RIMP2         total energy =     -2759.3666413357 a.u.

                    Orbital Energies (a.u.)
 --------------------------------------------------------------

 Alpha MOs
 -- Occupied --
-92.0154 -91.9970 -91.9902 -91.9866 -26.3426 -20.6144 -20.5924 -20.5918
-20.5607 -11.4088 -11.3815 -11.3196 -11.3182 -11.3082 -11.2999 -11.2987
-11.2967 -11.2944 -11.2885 -11.2868 -11.2865 -11.2863 -11.2843 -11.2843
-11.2800 -11.2613 -11.2592 -11.2573 -11.2501  -9.0137  -8.9970  -8.9906
 -8.9865  -6.6944  -6.6938  -6.6933  -6.6780  -6.6773  -6.6762  -6.6716
 -6.6709  -6.6699  -6.6675  -6.6668  -6.6660  -1.6597  -1.4668  -1.4165
 -1.4145  -1.3695  -1.2206  -1.1948  -1.1657  -1.1353  -1.0851  -1.0523
 -1.0407  -1.0225  -1.0021  -0.9880  -0.9632  -0.9590  -0.9502  -0.9394
 -0.8960  -0.8670  -0.8517  -0.8124  -0.7916  -0.7877  -0.7870  -0.7652
 -0.7550  -0.7341  -0.7246  -0.7094  -0.6995  -0.6849  -0.6835  -0.6807
 -0.6734  -0.6592  -0.6575  -0.6528  -0.6306  -0.6202  -0.6170  -0.6043
 -0.5970  -0.5849  -0.5777  -0.5698  -0.5667  -0.5592  -0.5567  -0.5529
 -0.5318  -0.5299  -0.5245  -0.5167  -0.5155  -0.5077  -0.5070  -0.4963
 -0.4888  -0.4790  -0.4759  -0.4731  -0.4698  -0.4656  -0.4600  -0.4155
 -0.3974  -0.3855  -0.3579  -0.3494  -0.3227  -0.2910  -0.2556

          Ground-State Mulliken Net Atomic Charges

     Atom                 Charge (a.u.)
  ----------------------------------------
      1 C                    -0.188230
      2 C                    -0.253804
      3 S                    -0.022099
      4 C                    -0.014932
      5 H                     0.196576
      6 C                    -0.026815
      7 C                     0.243570
      8 C                     0.239803
      9 C                    -0.041555
     10 C                    -0.022401
     11 O                    -0.333073
     12 O                    -0.340073
     13 C                    -0.085832
     14 H                     0.122524
     15 H                     0.091203
     16 H                     0.094314
     17 C                    -0.087210
     18 H                     0.125217
     19 H                     0.094564
     20 H                     0.090774
     21 C                    -0.249136
     22 S                    -0.010343
     23 C                    -0.020621
     24 H                     0.197390
     25 H                     0.206485
     26 C                     0.011742
     27 S                     0.105871
     28 C                    -0.190842
     29 C                    -0.024153
     30 C                    -0.105605
     31 S                     0.010566
     32 C                    -0.154490
     33 C                     0.394909
     34 F                    -0.207298
     35 C                     0.444327
     36 O                    -0.460955
     37 O                    -0.300606
     38 C                    -0.058666
     39 H                     0.121269
     40 H                     0.095145
     41 H                     0.094944
     42 H                     0.217545
  ----------------------------------------
  Sum of atomic charges =     0.000000

                    Cartesian Multipole Moments
 -----------------------------------------------------------------
    Charge (ESU x 10^10)
                -0.0000
    Dipole Moment (Debye)
         X       0.1771      Y       0.8569      Z       2.7692
       Tot       2.9042
    Quadrupole Moments (Debye-Ang)
        XX    -181.7923     XY       2.4317     YY    -159.4023
        XZ     -10.7986     YZ      -6.3628     ZZ    -201.5357

 Total job time:  290.39s(wall), 9543.70s(cpu)
        *  Thank you very much for using Q-Chem.  Have a nice day.  *
