 Q-Chem 5.4, Q-Chem, Inc., Pleasanton, CA (2021)
 Q-Chem 5.4.0 for Intel X86 EM64T Linux

User input:
--------------------------------------------------------------
$molecule
0 1
C	0.172904	-8.517702	0.270358
C	-0.524688	-7.641575	-0.548363
S	1.180599	-7.638634	1.445750
C	-0.282727	-6.264785	-0.259951
H	-1.203014	-7.966081	-1.347559
C	0.632972	-6.072714	0.833868
C	1.013580	-4.787049	1.248701
C	-0.845068	-5.162801	-0.965673
C	-0.460946	-3.874817	-0.553357
C	0.453541	-3.683952	0.543470
O	-1.714812	-5.499772	-1.958276
O	1.888193	-4.459055	2.245053
C	2.033848	-5.329063	3.360989
H	2.584788	-4.755694	4.130667
H	2.624118	-6.238095	3.112380
H	1.047748	-5.637262	3.770895
C	-2.013896	-4.572261	-2.994272
H	-2.570853	-5.139743	-3.763700
H	-1.090625	-4.153131	-3.448815
H	-2.657717	-3.739531	-2.636780
C	0.694943	-2.306654	0.827659
S	-0.999993	-2.306501	-1.174750
C	0.000000	-1.435185	0.000000
H	1.370385	-1.978138	1.627541
H	0.177122	-9.614033	0.269836
C	0.000000	0.000000	0.000000
S	0.234628	0.873813	1.507541
C	0.640889	2.392969	0.718873
C	0.234815	0.873434	-1.067872
C	0.592377	2.216811	-0.686410
S	0.174526	0.637422	-2.805516
C	0.622551	2.330840	-3.054530
C	0.803505	3.015647	-1.862551
F	1.144815	4.307994	-1.819088
C	0.740334	2.763108	-4.456084
O	0.548793	2.017428	-5.406510
O	1.082665	4.069544	-4.569225
C	1.215848	4.546407	-5.916207
H	1.494066	5.611729	-5.833064
H	0.261736	4.436296	-6.470168
H	2.000108	3.981294	-6.459293
H	0.878739	3.286099	1.306486
$end

$rem
JOBTYPE		SP
EXCHANGE	HF
CORRELATION	pRIMP2
BASIS		cc-pvtz
METHOD		rimp2
AUX_BASIS	rimp2-cc-pvtz
SOLVENT_METHOD	PCM
PURECART	11111
SYMMETRY	false
MEM_TOTAL	110000
SCF_CONVERGENCE = 6
THRESH=10
GUI = 2
$end

$solvent
dielectric 4.90
$end
--------------------------------------------------------------

             Standard Nuclear Orientation (Angstroms)
    I     Atom           X                Y                Z
 ----------------------------------------------------------------
    1      C       0.1729040000    -8.5177020000     0.2703580000
    2      C      -0.5246880000    -7.6415750000    -0.5483630000
    3      S       1.1805990000    -7.6386340000     1.4457500000
    4      C      -0.2827270000    -6.2647850000    -0.2599510000
    5      H      -1.2030140000    -7.9660810000    -1.3475590000
    6      C       0.6329720000    -6.0727140000     0.8338680000
    7      C       1.0135800000    -4.7870490000     1.2487010000
    8      C      -0.8450680000    -5.1628010000    -0.9656730000
    9      C      -0.4609460000    -3.8748170000    -0.5533570000
   10      C       0.4535410000    -3.6839520000     0.5434700000
   11      O      -1.7148120000    -5.4997720000    -1.9582760000
   12      O       1.8881930000    -4.4590550000     2.2450530000
   13      C       2.0338480000    -5.3290630000     3.3609890000
   14      H       2.5847880000    -4.7556940000     4.1306670000
   15      H       2.6241180000    -6.2380950000     3.1123800000
   16      H       1.0477480000    -5.6372620000     3.7708950000
   17      C      -2.0138960000    -4.5722610000    -2.9942720000
   18      H      -2.5708530000    -5.1397430000    -3.7637000000
   19      H      -1.0906250000    -4.1531310000    -3.4488150000
   20      H      -2.6577170000    -3.7395310000    -2.6367800000
   21      C       0.6949430000    -2.3066540000     0.8276590000
   22      S      -0.9999930000    -2.3065010000    -1.1747500000
   23      C       0.0000000000    -1.4351850000     0.0000000000
   24      H       1.3703850000    -1.9781380000     1.6275410000
   25      H       0.1771220000    -9.6140330000     0.2698360000
   26      C       0.0000000000     0.0000000000     0.0000000000
   27      S       0.2346280000     0.8738130000     1.5075410000
   28      C       0.6408890000     2.3929690000     0.7188730000
   29      C       0.2348150000     0.8734340000    -1.0678720000
   30      C       0.5923770000     2.2168110000    -0.6864100000
   31      S       0.1745260000     0.6374220000    -2.8055160000
   32      C       0.6225510000     2.3308400000    -3.0545300000
   33      C       0.8035050000     3.0156470000    -1.8625510000
   34      F       1.1448150000     4.3079940000    -1.8190880000
   35      C       0.7403340000     2.7631080000    -4.4560840000
   36      O       0.5487930000     2.0174280000    -5.4065100000
   37      O       1.0826650000     4.0695440000    -4.5692250000
   38      C       1.2158480000     4.5464070000    -5.9162070000
   39      H       1.4940660000     5.6117290000    -5.8330640000
   40      H       0.2617360000     4.4362960000    -6.4701680000
   41      H       2.0001080000     3.9812940000    -6.4592930000
   42      H       0.8787390000     3.2860990000     1.3064860000
 ----------------------------------------------------------------

   10   -2754.3130508509      7.04e-07  Convergence criterion met
 Total energy in the final basis set =    -2754.3130508509
        RIMP2         total energy =     -2759.3653379977 a.u.

                    Orbital Energies (a.u.)
 --------------------------------------------------------------

 Alpha MOs
 -- Occupied --
-92.0155 -91.9983 -91.9903 -91.9862 -26.3431 -20.6146 -20.5923 -20.5913
-20.5610 -11.4091 -11.3821 -11.3196 -11.3173 -11.3104 -11.3017 -11.2987
-11.2969 -11.2965 -11.2887 -11.2866 -11.2862 -11.2861 -11.2851 -11.2841
-11.2793 -11.2615 -11.2584 -11.2554 -11.2499  -9.0139  -8.9983  -8.9908
 -8.9862  -6.6947  -6.6941  -6.6936  -6.6793  -6.6785  -6.6774  -6.6717
 -6.6711  -6.6701  -6.6671  -6.6665  -6.6657  -1.6602  -1.4670  -1.4164
 -1.4141  -1.3697  -1.2219  -1.1946  -1.1657  -1.1361  -1.0854  -1.0520
 -1.0414  -1.0233  -1.0018  -0.9880  -0.9637  -0.9588  -0.9500  -0.9402
 -0.8956  -0.8676  -0.8513  -0.8137  -0.7918  -0.7873  -0.7871  -0.7650
 -0.7552  -0.7338  -0.7250  -0.7100  -0.6992  -0.6853  -0.6833  -0.6812
 -0.6737  -0.6592  -0.6577  -0.6526  -0.6305  -0.6199  -0.6167  -0.6037
 -0.5978  -0.5869  -0.5768  -0.5692  -0.5675  -0.5628  -0.5552  -0.5532
 -0.5314  -0.5290  -0.5225  -0.5173  -0.5167  -0.5102  -0.5057  -0.4945
 -0.4886  -0.4787  -0.4768  -0.4735  -0.4703  -0.4654  -0.4604  -0.4192
 -0.3951  -0.3860  -0.3597  -0.3494  -0.3230  -0.2919  -0.2530

          Ground-State Mulliken Net Atomic Charges

     Atom                 Charge (a.u.)
  ----------------------------------------
      1 C                    -0.189878
      2 C                    -0.253355
      3 S                    -0.022536
      4 C                    -0.016295
      5 H                     0.196428
      6 C                    -0.027757
      7 C                     0.238907
      8 C                     0.244124
      9 C                    -0.044244
     10 C                    -0.025002
     11 O                    -0.333233
     12 O                    -0.340483
     13 C                    -0.085741
     14 H                     0.122297
     15 H                     0.091262
     16 H                     0.093776
     17 C                    -0.087932
     18 H                     0.125121
     19 H                     0.095854
     20 H                     0.089946
     21 C                    -0.246542
     22 S                    -0.012966
     23 C                    -0.010231
     24 H                     0.196929
     25 H                     0.206239
     26 C                    -0.019847
     27 S                     0.093552
     28 C                    -0.179126
     29 C                     0.018400
     30 C                    -0.115950
     31 S                     0.009506
     32 C                    -0.155464
     33 C                     0.396228
     34 F                    -0.206611
     35 C                     0.445251
     36 O                    -0.460936
     37 O                    -0.300765
     38 C                    -0.058493
     39 H                     0.121300
     40 H                     0.095008
     41 H                     0.095074
     42 H                     0.218188
  ----------------------------------------
  Sum of atomic charges =     0.000000

                    Cartesian Multipole Moments
 -----------------------------------------------------------------
    Charge (ESU x 10^10)
                 0.0000
    Dipole Moment (Debye)
         X       0.4347      Y       1.0972      Z       2.9979
       Tot       3.2219
    Quadrupole Moments (Debye-Ang)
        XX    -196.0803     XY       5.1469     YY    -161.3390
        XZ       8.2726     YZ      -7.9471     ZZ    -186.2360

 Total job time:  312.33s(wall), 9885.50s(cpu)
        *  Thank you very much for using Q-Chem.  Have a nice day.  *
