 Q-Chem 5.4, Q-Chem, Inc., Pleasanton, CA (2021)
 Q-Chem 5.4.0 for Intel X86 EM64T Linux

User input:
--------------------------------------------------------------
$molecule
0 1
C	0.041330	-8.517702	-0.318247
C	0.049453	-7.641575	0.757333
S	0.024919	-7.638634	-1.866383
C	0.049488	-6.264785	0.380867
H	0.055368	-7.966081	1.805573
C	0.051115	-6.072714	-1.045647
C	0.026203	-4.787049	-1.608077
C	0.026637	-5.162801	1.282948
C	-0.002586	-3.874817	0.720187
C	0.001903	-3.683952	-0.707853
O	0.054867	-5.499772	2.602386
O	-0.003348	-4.459055	-2.933517
C	0.602384	-5.329063	-3.881999
H	0.675079	-4.755694	-4.825744
H	-0.009592	-6.238095	-4.070972
H	1.621263	-5.637262	-3.562152
C	-0.381947	-4.572261	3.588253
H	-0.449872	-5.139743	4.535674
H	-1.381388	-4.153131	3.342986
H	0.341040	-3.739531	3.728239
C	-0.000348	-2.306654	-1.080725
S	0.010924	-2.306501	1.542694
C	-0.000000	-1.435185	-0.000000
H	-0.003612	-1.978138	-2.127635
H	0.037764	-9.614033	-0.320559
C	0.000000	0.000000	0.000000
S	0.157577	0.890937	1.507541
C	0.429889	2.439720	0.718873
C	0.157797	0.890576	-1.067872
C	0.396915	2.260004	-0.686410
S	0.118307	0.650207	-2.805516
C	0.417036	2.376229	-3.054530
C	0.537616	3.074202	-1.862551
F	0.764992	4.391378	-1.819088
C	0.496696	2.817118	-4.456084
O	0.370874	2.057582	-5.406510
O	0.723861	4.148418	-4.569225
C	0.814976	4.635075	-5.916207
H	0.999286	5.720591	-5.833064
H	-0.125909	4.442226	-6.470168
H	1.645504	4.140465	-6.459293
H	0.588993	3.350182	1.306486
$end

$rem
JOBTYPE		SP
EXCHANGE	HF
CORRELATION	pRIMP2
BASIS		cc-pvtz
METHOD		rimp2
AUX_BASIS	rimp2-cc-pvtz
SOLVENT_METHOD	PCM
PURECART	11111
SYMMETRY	false
MEM_TOTAL	110000
SCF_CONVERGENCE = 6
THRESH=10
GUI = 2
$end

$solvent
dielectric 4.90
$end
--------------------------------------------------------------

             Standard Nuclear Orientation (Angstroms)
    I     Atom           X                Y                Z
 ----------------------------------------------------------------
    1      C       0.0413300000    -8.5177020000    -0.3182470000
    2      C       0.0494530000    -7.6415750000     0.7573330000
    3      S       0.0249190000    -7.6386340000    -1.8663830000
    4      C       0.0494880000    -6.2647850000     0.3808670000
    5      H       0.0553680000    -7.9660810000     1.8055730000
    6      C       0.0511150000    -6.0727140000    -1.0456470000
    7      C       0.0262030000    -4.7870490000    -1.6080770000
    8      C       0.0266370000    -5.1628010000     1.2829480000
    9      C      -0.0025860000    -3.8748170000     0.7201870000
   10      C       0.0019030000    -3.6839520000    -0.7078530000
   11      O       0.0548670000    -5.4997720000     2.6023860000
   12      O      -0.0033480000    -4.4590550000    -2.9335170000
   13      C       0.6023840000    -5.3290630000    -3.8819990000
   14      H       0.6750790000    -4.7556940000    -4.8257440000
   15      H      -0.0095920000    -6.2380950000    -4.0709720000
   16      H       1.6212630000    -5.6372620000    -3.5621520000
   17      C      -0.3819470000    -4.5722610000     3.5882530000
   18      H      -0.4498720000    -5.1397430000     4.5356740000
   19      H      -1.3813880000    -4.1531310000     3.3429860000
   20      H       0.3410400000    -3.7395310000     3.7282390000
   21      C      -0.0003480000    -2.3066540000    -1.0807250000
   22      S       0.0109240000    -2.3065010000     1.5426940000
   23      C       0.0000000000    -1.4351850000     0.0000000000
   24      H      -0.0036120000    -1.9781380000    -2.1276350000
   25      H       0.0377640000    -9.6140330000    -0.3205590000
   26      C       0.0000000000     0.0000000000     0.0000000000
   27      S       0.1575770000     0.8909370000     1.5075410000
   28      C       0.4298890000     2.4397200000     0.7188730000
   29      C       0.1577970000     0.8905760000    -1.0678720000
   30      C       0.3969150000     2.2600040000    -0.6864100000
   31      S       0.1183070000     0.6502070000    -2.8055160000
   32      C       0.4170360000     2.3762290000    -3.0545300000
   33      C       0.5376160000     3.0742020000    -1.8625510000
   34      F       0.7649920000     4.3913780000    -1.8190880000
   35      C       0.4966960000     2.8171180000    -4.4560840000
   36      O       0.3708740000     2.0575820000    -5.4065100000
   37      O       0.7238610000     4.1484180000    -4.5692250000
   38      C       0.8149760000     4.6350750000    -5.9162070000
   39      H       0.9992860000     5.7205910000    -5.8330640000
   40      H      -0.1259090000     4.4422260000    -6.4701680000
   41      H       1.6455040000     4.1404650000    -6.4592930000
   42      H       0.5889930000     3.3501820000     1.3064860000
 ----------------------------------------------------------------

   10   -2754.3146051921      7.60e-07  Convergence criterion met
 Total energy in the final basis set =    -2754.3146051921
        RIMP2         total energy =     -2759.3678908448 a.u.

                    Orbital Energies (a.u.)
 --------------------------------------------------------------

 Alpha MOs
 -- Occupied --
-92.0165 -92.0002 -91.9912 -91.9864 -26.3438 -20.6149 -20.5931 -20.5909
-20.5615 -11.4097 -11.3833 -11.3202 -11.3174 -11.3110 -11.3018 -11.3000
-11.2981 -11.2978 -11.2889 -11.2878 -11.2871 -11.2863 -11.2853 -11.2843
-11.2794 -11.2624 -11.2587 -11.2558 -11.2500  -9.0152  -9.0002  -8.9919
 -8.9863  -6.6960  -6.6954  -6.6949  -6.6812  -6.6804  -6.6793  -6.6729
 -6.6722  -6.6713  -6.6672  -6.6666  -6.6658  -1.6608  -1.4674  -1.4171
 -1.4136  -1.3701  -1.2227  -1.1952  -1.1665  -1.1372  -1.0860  -1.0524
 -1.0424  -1.0242  -1.0021  -0.9889  -0.9645  -0.9600  -0.9506  -0.9397
 -0.8968  -0.8686  -0.8525  -0.8088  -0.7994  -0.7886  -0.7861  -0.7644
 -0.7556  -0.7346  -0.7256  -0.7104  -0.7022  -0.6862  -0.6838  -0.6811
 -0.6740  -0.6595  -0.6591  -0.6524  -0.6311  -0.6199  -0.6170  -0.6020
 -0.5986  -0.5849  -0.5799  -0.5714  -0.5649  -0.5611  -0.5559  -0.5502
 -0.5360  -0.5305  -0.5238  -0.5201  -0.5171  -0.5115  -0.5055  -0.4957
 -0.4874  -0.4815  -0.4777  -0.4742  -0.4699  -0.4652  -0.4601  -0.4280
 -0.3967  -0.3843  -0.3616  -0.3486  -0.3283  -0.2892  -0.2500

          Ground-State Mulliken Net Atomic Charges

     Atom                 Charge (a.u.)
  ----------------------------------------
      1 C                    -0.189534
      2 C                    -0.254624
      3 S                    -0.021714
      4 C                    -0.016969
      5 H                     0.196255
      6 C                    -0.027205
      7 C                     0.246899
      8 C                     0.242897
      9 C                    -0.038300
     10 C                    -0.029897
     11 O                    -0.332818
     12 O                    -0.340918
     13 C                    -0.086614
     14 H                     0.123709
     15 H                     0.091679
     16 H                     0.093842
     17 C                    -0.088908
     18 H                     0.126252
     19 H                     0.095088
     20 H                     0.089517
     21 C                    -0.217398
     22 S                    -0.043804
     23 C                    -0.019603
     24 H                     0.188440
     25 H                     0.206336
     26 C                     0.016953
     27 S                     0.080034
     28 C                    -0.189445
     29 C                     0.025384
     30 C                    -0.125781
     31 S                     0.005666
     32 C                    -0.163878
     33 C                     0.408807
     34 F                    -0.206294
     35 C                     0.443681
     36 O                    -0.461259
     37 O                    -0.300801
     38 C                    -0.058668
     39 H                     0.121526
     40 H                     0.095271
     41 H                     0.095178
     42 H                     0.221018
  ----------------------------------------
  Sum of atomic charges =     0.000000

                    Cartesian Multipole Moments
 -----------------------------------------------------------------
    Charge (ESU x 10^10)
                 0.0000
    Dipole Moment (Debye)
         X       0.7481      Y       1.1883      Z       3.1092
       Tot       3.4115
    Quadrupole Moments (Debye-Ang)
        XX    -200.4223     XY       1.3996     YY    -159.7893
        XZ      -6.9886     YZ      -7.3757     ZZ    -182.2371

 Total job time:  297.48s(wall), 8960.47s(cpu)
        *  Thank you very much for using Q-Chem.  Have a nice day.  *
