 Q-Chem 5.4, Q-Chem, Inc., Pleasanton, CA (2021)
 Q-Chem 5.4.0 for Intel X86 EM64T Linux

User input:
--------------------------------------------------------------
$molecule
0 1
C	0.070009	-8.517702	0.313191
C	-0.305494	-7.641575	-0.694746
S	0.614924	-7.638634	1.762350
C	-0.176768	-6.264785	-0.340973
H	-0.669571	-7.966081	-1.677747
C	0.309600	-6.072714	1.000069
C	0.525372	-4.787049	1.520060
C	-0.463825	-5.162801	-1.196466
C	-0.243888	-3.874817	-0.677639
C	0.240312	-3.683952	0.665815
O	-0.941626	-5.499772	-2.426678
O	1.006468	-4.459055	2.755460
C	0.761666	-5.329063	3.853913
H	1.016135	-4.755694	4.765607
H	1.401368	-6.238095	3.822182
H	-0.305161	-5.637262	3.901833
C	-0.868342	-4.572261	-3.502489
H	-1.128551	-5.139743	-4.416005
H	0.154712	-4.153131	-3.613841
H	-1.595605	-3.739531	-3.386756
C	0.369957	-2.306654	1.015430
S	-0.537898	-2.306501	-1.445922
C	0.000000	-1.435185	0.000000
H	0.731088	-1.978138	1.998088
H	0.074151	-9.614033	0.314143
C	0.000000	0.000000	0.000000
S	0.234628	0.873813	1.507541
C	0.640889	2.392969	0.718873
C	0.234815	0.873434	-1.067872
C	0.592377	2.216811	-0.686410
S	0.174526	0.637422	-2.805516
C	0.622551	2.330840	-3.054530
C	0.803505	3.015647	-1.862551
F	1.144815	4.307994	-1.819088
C	0.740334	2.763108	-4.456084
O	0.548793	2.017428	-5.406510
O	1.082665	4.069544	-4.569225
C	1.215848	4.546407	-5.916207
H	1.494066	5.611729	-5.833064
H	0.261736	4.436296	-6.470168
H	2.000108	3.981294	-6.459293
H	0.878739	3.286099	1.306486
$end

$rem
JOBTYPE		SP
EXCHANGE	HF
CORRELATION	pRIMP2
BASIS		cc-pvtz
METHOD		rimp2
AUX_BASIS	rimp2-cc-pvtz
SOLVENT_METHOD	PCM
PURECART	11111
SYMMETRY	false
MEM_TOTAL	110000
SCF_CONVERGENCE = 6
THRESH=10
GUI = 2
$end

$solvent
dielectric 4.90
$end
--------------------------------------------------------------

             Standard Nuclear Orientation (Angstroms)
    I     Atom           X                Y                Z
 ----------------------------------------------------------------
    1      C       0.0700090000    -8.5177020000     0.3131910000
    2      C      -0.3054940000    -7.6415750000    -0.6947460000
    3      S       0.6149240000    -7.6386340000     1.7623500000
    4      C      -0.1767680000    -6.2647850000    -0.3409730000
    5      H      -0.6695710000    -7.9660810000    -1.6777470000
    6      C       0.3096000000    -6.0727140000     1.0000690000
    7      C       0.5253720000    -4.7870490000     1.5200600000
    8      C      -0.4638250000    -5.1628010000    -1.1964660000
    9      C      -0.2438880000    -3.8748170000    -0.6776390000
   10      C       0.2403120000    -3.6839520000     0.6658150000
   11      O      -0.9416260000    -5.4997720000    -2.4266780000
   12      O       1.0064680000    -4.4590550000     2.7554600000
   13      C       0.7616660000    -5.3290630000     3.8539130000
   14      H       1.0161350000    -4.7556940000     4.7656070000
   15      H       1.4013680000    -6.2380950000     3.8221820000
   16      H      -0.3051610000    -5.6372620000     3.9018330000
   17      C      -0.8683420000    -4.5722610000    -3.5024890000
   18      H      -1.1285510000    -5.1397430000    -4.4160050000
   19      H       0.1547120000    -4.1531310000    -3.6138410000
   20      H      -1.5956050000    -3.7395310000    -3.3867560000
   21      C       0.3699570000    -2.3066540000     1.0154300000
   22      S      -0.5378980000    -2.3065010000    -1.4459220000
   23      C       0.0000000000    -1.4351850000     0.0000000000
   24      H       0.7310880000    -1.9781380000     1.9980880000
   25      H       0.0741510000    -9.6140330000     0.3141430000
   26      C       0.0000000000     0.0000000000     0.0000000000
   27      S       0.2346280000     0.8738130000     1.5075410000
   28      C       0.6408890000     2.3929690000     0.7188730000
   29      C       0.2348150000     0.8734340000    -1.0678720000
   30      C       0.5923770000     2.2168110000    -0.6864100000
   31      S       0.1745260000     0.6374220000    -2.8055160000
   32      C       0.6225510000     2.3308400000    -3.0545300000
   33      C       0.8035050000     3.0156470000    -1.8625510000
   34      F       1.1448150000     4.3079940000    -1.8190880000
   35      C       0.7403340000     2.7631080000    -4.4560840000
   36      O       0.5487930000     2.0174280000    -5.4065100000
   37      O       1.0826650000     4.0695440000    -4.5692250000
   38      C       1.2158480000     4.5464070000    -5.9162070000
   39      H       1.4940660000     5.6117290000    -5.8330640000
   40      H       0.2617360000     4.4362960000    -6.4701680000
   41      H       2.0001080000     3.9812940000    -6.4592930000
   42      H       0.8787390000     3.2860990000     1.3064860000
 ----------------------------------------------------------------

   10   -2754.3126802713      7.35e-07  Convergence criterion met
 Total energy in the final basis set =    -2754.3126802713
        RIMP2         total energy =     -2759.3664031686 a.u.

                    Orbital Energies (a.u.)
 --------------------------------------------------------------

 Alpha MOs
 -- Occupied --
-92.0153 -91.9992 -91.9909 -91.9860 -26.3436 -20.6148 -20.5924 -20.5910
-20.5613 -11.4095 -11.3829 -11.3199 -11.3165 -11.3121 -11.3025 -11.3002
-11.2981 -11.2974 -11.2889 -11.2866 -11.2861 -11.2861 -11.2859 -11.2841
-11.2788 -11.2620 -11.2578 -11.2538 -11.2498  -9.0139  -8.9993  -8.9915
 -8.9860  -6.6947  -6.6941  -6.6935  -6.6803  -6.6795  -6.6784  -6.6725
 -6.6718  -6.6708  -6.6669  -6.6663  -6.6655  -1.6606  -1.4673  -1.4164
 -1.4138  -1.3700  -1.2230  -1.1946  -1.1659  -1.1368  -1.0860  -1.0520
 -1.0419  -1.0243  -1.0020  -0.9882  -0.9644  -0.9585  -0.9498  -0.9411
 -0.8957  -0.8683  -0.8516  -0.8153  -0.7922  -0.7878  -0.7860  -0.7650
 -0.7555  -0.7339  -0.7255  -0.7105  -0.6990  -0.6858  -0.6834  -0.6818
 -0.6739  -0.6592  -0.6583  -0.6524  -0.6307  -0.6197  -0.6166  -0.6031
 -0.5982  -0.5866  -0.5779  -0.5690  -0.5682  -0.5625  -0.5558  -0.5534
 -0.5322  -0.5291  -0.5227  -0.5196  -0.5179  -0.5112  -0.5061  -0.4945
 -0.4875  -0.4790  -0.4771  -0.4744  -0.4699  -0.4650  -0.4596  -0.4256
 -0.3932  -0.3860  -0.3611  -0.3513  -0.3243  -0.2916  -0.2492

          Ground-State Mulliken Net Atomic Charges

     Atom                 Charge (a.u.)
  ----------------------------------------
      1 C                    -0.191032
      2 C                    -0.253079
      3 S                    -0.023201
      4 C                    -0.017143
      5 H                     0.196313
      6 C                    -0.026958
      7 C                     0.237141
      8 C                     0.243983
      9 C                    -0.039431
     10 C                    -0.019748
     11 O                    -0.332981
     12 O                    -0.340997
     13 C                    -0.085635
     14 H                     0.122141
     15 H                     0.091158
     16 H                     0.093773
     17 C                    -0.088648
     18 H                     0.125656
     19 H                     0.095843
     20 H                     0.090185
     21 C                    -0.263276
     22 S                    -0.030657
     23 C                     0.011366
     24 H                     0.189051
     25 H                     0.206091
     26 C                     0.003275
     27 S                     0.084956
     28 C                    -0.174430
     29 C                     0.022531
     30 C                    -0.124797
     31 S                     0.007599
     32 C                    -0.163506
     33 C                     0.404692
     34 F                    -0.206306
     35 C                     0.445228
     36 O                    -0.461015
     37 O                    -0.300837
     38 C                    -0.058513
     39 H                     0.121408
     40 H                     0.095099
     41 H                     0.095116
     42 H                     0.219587
  ----------------------------------------
  Sum of atomic charges =     0.000000

                    Cartesian Multipole Moments
 -----------------------------------------------------------------
    Charge (ESU x 10^10)
                 0.0000
    Dipole Moment (Debye)
         X       0.4623      Y       1.3270      Z       2.7860
       Tot       3.1204
    Quadrupole Moments (Debye-Ang)
        XX    -200.8278     XY       5.5112     YY    -161.9376
        XZ       0.9749     YZ      -7.2882     ZZ    -181.2753

 Total job time:  297.79s(wall), 9639.64s(cpu)
        *  Thank you very much for using Q-Chem.  Have a nice day.  *
