 Q-Chem 5.4, Q-Chem, Inc., Pleasanton, CA (2021)
 Q-Chem 5.4.0 for Intel X86 EM64T Linux

User input:
--------------------------------------------------------------
$molecule
0 1
C	-0.306235	-8.517702	-0.095966
C	0.754415	-7.641575	0.082807
S	-1.833702	-7.638634	-0.348635
C	0.383675	-6.264785	0.017401
H	1.787757	-7.966081	0.259008
C	-1.020885	-6.072714	-0.231913
C	-1.579097	-4.787049	-0.305044
C	1.268082	-5.162801	0.196549
C	0.708796	-3.874817	0.127606
C	-0.696769	-3.683952	-0.124792
O	2.572378	-5.499772	0.397867
O	-2.889532	-4.459055	-0.506103
C	-3.718420	-5.329063	-1.267335
H	-4.635204	-4.755694	-1.502804
H	-4.010790	-6.238095	-0.697471
H	-3.226506	-5.637262	-2.215194
C	3.467415	-4.572261	0.999238
H	4.388648	-5.139743	1.230649
H	3.052323	-4.153131	1.940905
H	3.730819	-3.739531	0.311543
C	-1.064366	-2.306654	-0.187323
S	1.521154	-2.306501	0.257128
C	-0.000000	-1.435185	-0.000000
H	-2.095939	-1.978138	-0.365903
H	-0.309131	-9.614033	-0.092855
C	0.000000	0.000000	0.000000
S	0.309893	0.850039	1.507541
C	0.847011	2.328006	0.718873
C	0.310046	0.849645	-1.067872
C	0.783331	2.156746	-0.686410
S	0.229416	0.619785	-2.805516
C	0.823328	2.267711	-3.054530
C	1.063278	2.934142	-1.862551
F	1.515925	4.191824	-1.819088
C	0.978337	2.688069	-4.456084
O	0.722535	1.961921	-5.406510
O	1.433229	3.959697	-4.569225
C	1.607467	4.423139	-5.916207
H	1.977475	5.460158	-5.833064
H	0.647388	4.396602	-6.470168
H	2.339490	3.791823	-6.459293
H	1.161798	3.197007	1.306486
$end

$rem
JOBTYPE		SP
EXCHANGE	HF
CORRELATION	pRIMP2
BASIS		cc-pvtz
METHOD		rimp2
AUX_BASIS	rimp2-cc-pvtz
SOLVENT_METHOD	PCM
PURECART	11111
SYMMETRY	false
MEM_TOTAL	110000
SCF_CONVERGENCE = 6
THRESH=10
GUI = 2
$end

$solvent
dielectric 4.90
$end
--------------------------------------------------------------

             Standard Nuclear Orientation (Angstroms)
    I     Atom           X                Y                Z
 ----------------------------------------------------------------
    1      C      -0.3062350000    -8.5177020000    -0.0959660000
    2      C       0.7544150000    -7.6415750000     0.0828070000
    3      S      -1.8337020000    -7.6386340000    -0.3486350000
    4      C       0.3836750000    -6.2647850000     0.0174010000
    5      H       1.7877570000    -7.9660810000     0.2590080000
    6      C      -1.0208850000    -6.0727140000    -0.2319130000
    7      C      -1.5790970000    -4.7870490000    -0.3050440000
    8      C       1.2680820000    -5.1628010000     0.1965490000
    9      C       0.7087960000    -3.8748170000     0.1276060000
   10      C      -0.6967690000    -3.6839520000    -0.1247920000
   11      O       2.5723780000    -5.4997720000     0.3978670000
   12      O      -2.8895320000    -4.4590550000    -0.5061030000
   13      C      -3.7184200000    -5.3290630000    -1.2673350000
   14      H      -4.6352040000    -4.7556940000    -1.5028040000
   15      H      -4.0107900000    -6.2380950000    -0.6974710000
   16      H      -3.2265060000    -5.6372620000    -2.2151940000
   17      C       3.4674150000    -4.5722610000     0.9992380000
   18      H       4.3886480000    -5.1397430000     1.2306490000
   19      H       3.0523230000    -4.1531310000     1.9409050000
   20      H       3.7308190000    -3.7395310000     0.3115430000
   21      C      -1.0643660000    -2.3066540000    -0.1873230000
   22      S       1.5211540000    -2.3065010000     0.2571280000
   23      C       0.0000000000    -1.4351850000     0.0000000000
   24      H      -2.0959390000    -1.9781380000    -0.3659030000
   25      H      -0.3091310000    -9.6140330000    -0.0928550000
   26      C       0.0000000000     0.0000000000     0.0000000000
   27      S       0.3098930000     0.8500390000     1.5075410000
   28      C       0.8470110000     2.3280060000     0.7188730000
   29      C       0.3100460000     0.8496450000    -1.0678720000
   30      C       0.7833310000     2.1567460000    -0.6864100000
   31      S       0.2294160000     0.6197850000    -2.8055160000
   32      C       0.8233280000     2.2677110000    -3.0545300000
   33      C       1.0632780000     2.9341420000    -1.8625510000
   34      F       1.5159250000     4.1918240000    -1.8190880000
   35      C       0.9783370000     2.6880690000    -4.4560840000
   36      O       0.7225350000     1.9619210000    -5.4065100000
   37      O       1.4332290000     3.9596970000    -4.5692250000
   38      C       1.6074670000     4.4231390000    -5.9162070000
   39      H       1.9774750000     5.4601580000    -5.8330640000
   40      H       0.6473880000     4.3966020000    -6.4701680000
   41      H       2.3394900000     3.7918230000    -6.4592930000
   42      H       1.1617980000     3.1970070000     1.3064860000
 ----------------------------------------------------------------

   10   -2754.3077074281      7.22e-07  Convergence criterion met
 Total energy in the final basis set =    -2754.3077074281
        RIMP2         total energy =     -2759.3584813553 a.u.

                    Orbital Energies (a.u.)
 --------------------------------------------------------------

 Alpha MOs
 -- Occupied --
-92.0140 -91.9977 -91.9885 -91.9863 -26.3428 -20.6142 -20.5923 -20.5914
-20.5605 -11.4087 -11.3818 -11.3189 -11.3181 -11.3114 -11.3021 -11.2964
-11.2934 -11.2907 -11.2885 -11.2871 -11.2859 -11.2859 -11.2837 -11.2837
-11.2800 -11.2597 -11.2591 -11.2564 -11.2499  -9.0125  -8.9976  -8.9889
 -8.9862  -6.6932  -6.6926  -6.6921  -6.6786  -6.6779  -6.6768  -6.6698
 -6.6692  -6.6682  -6.6672  -6.6666  -6.6657  -1.6599  -1.4667  -1.4164
 -1.4142  -1.3693  -1.2209  -1.1940  -1.1650  -1.1354  -1.0840  -1.0517
 -1.0409  -1.0219  -1.0013  -0.9873  -0.9612  -0.9608  -0.9503  -0.9383
 -0.8956  -0.8670  -0.8505  -0.8092  -0.7936  -0.7881  -0.7861  -0.7647
 -0.7549  -0.7336  -0.7248  -0.7092  -0.7008  -0.6846  -0.6829  -0.6801
 -0.6734  -0.6591  -0.6572  -0.6525  -0.6301  -0.6199  -0.6172  -0.6051
 -0.5974  -0.5861  -0.5770  -0.5690  -0.5659  -0.5605  -0.5553  -0.5462
 -0.5339  -0.5305  -0.5230  -0.5157  -0.5150  -0.5092  -0.5037  -0.4941
 -0.4895  -0.4796  -0.4744  -0.4730  -0.4691  -0.4668  -0.4615  -0.4058
 -0.3965  -0.3869  -0.3565  -0.3497  -0.3131  -0.2994  -0.2590

          Ground-State Mulliken Net Atomic Charges

     Atom                 Charge (a.u.)
  ----------------------------------------
      1 C                    -0.187794
      2 C                    -0.254643
      3 S                    -0.022233
      4 C                    -0.013157
      5 H                     0.196337
      6 C                    -0.028168
      7 C                     0.244371
      8 C                     0.239156
      9 C                    -0.041672
     10 C                    -0.026614
     11 O                    -0.333324
     12 O                    -0.339809
     13 C                    -0.085772
     14 H                     0.122739
     15 H                     0.090903
     16 H                     0.094396
     17 C                    -0.086419
     18 H                     0.124810
     19 H                     0.094148
     20 H                     0.090152
     21 C                    -0.214824
     22 S                     0.000036
     23 C                    -0.073578
     24 H                     0.197872
     25 H                     0.206476
     26 C                    -0.015450
     27 S                     0.108106
     28 C                    -0.182927
     29 C                    -0.005581
     30 C                    -0.092321
     31 S                     0.011061
     32 C                    -0.153168
     33 C                     0.389727
     34 F                    -0.206677
     35 C                     0.445959
     36 O                    -0.461305
     37 O                    -0.300911
     38 C                    -0.058392
     39 H                     0.121164
     40 H                     0.095002
     41 H                     0.095012
     42 H                     0.217315
  ----------------------------------------
  Sum of atomic charges =     0.000000

                    Cartesian Multipole Moments
 -----------------------------------------------------------------
    Charge (ESU x 10^10)
                -0.0000
    Dipole Moment (Debye)
         X       1.0916      Y       0.9097      Z       2.7678
       Tot       3.1113
    Quadrupole Moments (Debye-Ang)
        XX    -179.0082     XY       5.3610     YY    -161.3894
        XZ       6.7762     YZ      -5.3494     ZZ    -202.6178

 Total job time:  294.63s(wall), 9258.03s(cpu)
        *  Thank you very much for using Q-Chem.  Have a nice day.  *
