 Q-Chem 5.4, Q-Chem, Inc., Pleasanton, CA (2021)
 Q-Chem 5.4.0 for Intel X86 EM64T Linux

User input:
--------------------------------------------------------------
$molecule
0 1
C	0.014560	-8.517702	0.320589
C	-0.180211	-7.641575	-0.737240
S	0.299553	-7.638634	1.842356
C	-0.114873	-6.264785	-0.366488
H	-0.368061	-7.966081	-1.768528
C	0.131236	-6.072714	1.038637
C	0.253435	-4.787049	1.588197
C	-0.249014	-5.162801	-1.258831
C	-0.122513	-3.874817	-0.709695
C	0.121043	-3.683952	0.697430
O	-0.505933	-5.499772	-2.553323
O	0.512697	-4.459055	2.888369
C	0.080869	-5.329063	3.927625
H	0.173159	-4.755694	4.869656
H	0.716363	-6.238095	4.007459
H	-0.978072	-5.637262	3.789565
C	-0.246949	-4.572261	-3.600064
H	-0.344574	-5.139743	-4.544887
H	0.779898	-4.153131	-3.532074
H	-0.983261	-3.739531	-3.612378
C	0.188009	-2.306654	1.064246
S	-0.278644	-2.306501	-1.517360
C	-0.000000	-1.435185	-0.000000
H	0.373017	-1.978138	2.094685
H	0.018474	-9.614033	0.322246
C	0.000000	0.000000	0.000000
S	0.581934	0.692785	1.507541
C	1.592155	1.897915	0.718873
C	0.581944	0.692363	-1.067872
C	1.473741	1.758764	-0.686410
S	0.427560	0.503942	-2.805516
C	1.549278	1.849357	-3.054530
C	2.002690	2.393529	-1.862551
F	2.858191	3.420549	-1.819088
C	1.838710	2.191348	-4.456084
O	1.349977	1.596481	-5.406510
O	2.701091	3.230705	-4.569225
C	3.023327	3.606605	-5.916207
H	3.725703	4.454534	-5.833064
H	2.112072	3.910035	-6.470168
H	3.495281	2.762996	-6.459293
H	2.185174	2.606846	1.306486
$end

$rem
JOBTYPE		SP
EXCHANGE	HF
CORRELATION	pRIMP2
BASIS		cc-pvtz
METHOD		rimp2
AUX_BASIS	rimp2-cc-pvtz
SOLVENT_METHOD	PCM
PURECART	11111
SYMMETRY	false
MEM_TOTAL	110000
SCF_CONVERGENCE = 6
THRESH=10
GUI = 2
$end

$solvent
dielectric 4.90
$end
--------------------------------------------------------------

             Standard Nuclear Orientation (Angstroms)
    I     Atom           X                Y                Z
 ----------------------------------------------------------------
    1      C       0.0145600000    -8.5177020000     0.3205890000
    2      C      -0.1802110000    -7.6415750000    -0.7372400000
    3      S       0.2995530000    -7.6386340000     1.8423560000
    4      C      -0.1148730000    -6.2647850000    -0.3664880000
    5      H      -0.3680610000    -7.9660810000    -1.7685280000
    6      C       0.1312360000    -6.0727140000     1.0386370000
    7      C       0.2534350000    -4.7870490000     1.5881970000
    8      C      -0.2490140000    -5.1628010000    -1.2588310000
    9      C      -0.1225130000    -3.8748170000    -0.7096950000
   10      C       0.1210430000    -3.6839520000     0.6974300000
   11      O      -0.5059330000    -5.4997720000    -2.5533230000
   12      O       0.5126970000    -4.4590550000     2.8883690000
   13      C       0.0808690000    -5.3290630000     3.9276250000
   14      H       0.1731590000    -4.7556940000     4.8696560000
   15      H       0.7163630000    -6.2380950000     4.0074590000
   16      H      -0.9780720000    -5.6372620000     3.7895650000
   17      C      -0.2469490000    -4.5722610000    -3.6000640000
   18      H      -0.3445740000    -5.1397430000    -4.5448870000
   19      H       0.7798980000    -4.1531310000    -3.5320740000
   20      H      -0.9832610000    -3.7395310000    -3.6123780000
   21      C       0.1880090000    -2.3066540000     1.0642460000
   22      S      -0.2786440000    -2.3065010000    -1.5173600000
   23      C       0.0000000000    -1.4351850000     0.0000000000
   24      H       0.3730170000    -1.9781380000     2.0946850000
   25      H       0.0184740000    -9.6140330000     0.3222460000
   26      C       0.0000000000     0.0000000000     0.0000000000
   27      S       0.5819340000     0.6927850000     1.5075410000
   28      C       1.5921550000     1.8979150000     0.7188730000
   29      C       0.5819440000     0.6923630000    -1.0678720000
   30      C       1.4737410000     1.7587640000    -0.6864100000
   31      S       0.4275600000     0.5039420000    -2.8055160000
   32      C       1.5492780000     1.8493570000    -3.0545300000
   33      C       2.0026900000     2.3935290000    -1.8625510000
   34      F       2.8581910000     3.4205490000    -1.8190880000
   35      C       1.8387100000     2.1913480000    -4.4560840000
   36      O       1.3499770000     1.5964810000    -5.4065100000
   37      O       2.7010910000     3.2307050000    -4.5692250000
   38      C       3.0233270000     3.6066050000    -5.9162070000
   39      H       3.7257030000     4.4545340000    -5.8330640000
   40      H       2.1120720000     3.9100350000    -6.4701680000
   41      H       3.4952810000     2.7629960000    -6.4592930000
   42      H       2.1851740000     2.6068460000     1.3064860000
 ----------------------------------------------------------------

   10   -2754.2852432686      6.83e-07  Convergence criterion met
 Total energy in the final basis set =    -2754.2852432686
        RIMP2         total energy =     -2759.3451104781 a.u.

                    Orbital Energies (a.u.)
 --------------------------------------------------------------

 Alpha MOs
 -- Occupied --
-92.0146 -92.0049 -91.9868 -91.9837 -26.3455 -20.6156 -20.5911 -20.5881
-20.5622 -11.4106 -11.3857 -11.3250 -11.3179 -11.3130 -11.3114 -11.2988
-11.2987 -11.2901 -11.2894 -11.2884 -11.2858 -11.2846 -11.2818 -11.2813
-11.2755 -11.2591 -11.2534 -11.2480 -11.2426  -9.0137  -9.0050  -8.9878
 -8.9837  -6.6945  -6.6937  -6.6933  -6.6859  -6.6851  -6.6840  -6.6687
 -6.6680  -6.6671  -6.6647  -6.6641  -6.6632  -1.6625  -1.4682  -1.4150
 -1.4110  -1.3709  -1.2290  -1.1915  -1.1644  -1.1390  -1.0857  -1.0492
 -1.0437  -1.0270  -0.9991  -0.9873  -0.9657  -0.9567  -0.9483  -0.9419
 -0.8934  -0.8709  -0.8475  -0.8179  -0.7937  -0.7859  -0.7830  -0.7636
 -0.7559  -0.7312  -0.7273  -0.7121  -0.6980  -0.6866  -0.6833  -0.6809
 -0.6747  -0.6597  -0.6573  -0.6507  -0.6299  -0.6177  -0.6152  -0.6040
 -0.6009  -0.5858  -0.5791  -0.5686  -0.5657  -0.5625  -0.5543  -0.5508
 -0.5328  -0.5282  -0.5230  -0.5186  -0.5156  -0.5110  -0.5048  -0.4934
 -0.4857  -0.4812  -0.4772  -0.4741  -0.4691  -0.4621  -0.4569  -0.4270
 -0.3893  -0.3837  -0.3606  -0.3534  -0.3231  -0.2921  -0.2454

          Ground-State Mulliken Net Atomic Charges

     Atom                 Charge (a.u.)
  ----------------------------------------
      1 C                    -0.197643
      2 C                    -0.252521
      3 S                    -0.027632
      4 C                    -0.022868
      5 H                     0.195534
      6 C                    -0.023457
      7 C                     0.228519
      8 C                     0.245674
      9 C                    -0.039633
     10 C                    -0.009994
     11 O                    -0.333107
     12 O                    -0.342300
     13 C                    -0.085517
     14 H                     0.121127
     15 H                     0.090477
     16 H                     0.093022
     17 C                    -0.088360
     18 H                     0.125226
     19 H                     0.095063
     20 H                     0.089864
     21 C                    -0.285139
     22 S                    -0.040054
     23 C                     0.009402
     24 H                     0.184610
     25 H                     0.204898
     26 C                    -0.044223
     27 S                     0.096250
     28 C                    -0.146223
     29 C                     0.044534
     30 C                    -0.118386
     31 S                     0.034693
     32 C                    -0.163174
     33 C                     0.405441
     34 F                    -0.204715
     35 C                     0.447692
     36 O                    -0.461461
     37 O                    -0.301086
     38 C                    -0.058373
     39 H                     0.121594
     40 H                     0.095284
     41 H                     0.095246
     42 H                     0.221716
  ----------------------------------------
  Sum of atomic charges =     0.000000

                    Cartesian Multipole Moments
 -----------------------------------------------------------------
    Charge (ESU x 10^10)
                 0.0000
    Dipole Moment (Debye)
         X       2.1191      Y       2.4221      Z       2.2064
       Tot       3.9019
    Quadrupole Moments (Debye-Ang)
        XX    -194.8075     XY      10.1379     YY    -174.1333
        XZ      -6.3645     YZ      -4.4604     ZZ    -180.5164

 Total job time:  284.11s(wall), 9196.15s(cpu)
        *  Thank you very much for using Q-Chem.  Have a nice day.  *
