 Q-Chem 5.4, Q-Chem, Inc., Pleasanton, CA (2021)
 Q-Chem 5.4.0 for Intel X86 EM64T Linux

User input:
--------------------------------------------------------------
$molecule
0 1
C	0.147685	-8.517702	-0.284919
C	-0.212552	-7.641575	0.728574
S	0.661757	-7.638634	-1.745304
C	-0.083761	-6.264785	0.374824
H	-0.565513	-7.966081	1.715621
C	0.405665	-6.072714	-0.965104
C	0.574617	-4.787049	-1.502136
C	-0.413763	-5.162801	1.214687
C	-0.248748	-3.874817	0.675870
C	0.243888	-3.683952	-0.664513
O	-0.838511	-5.499772	2.464209
O	1.000176	-4.459055	-2.757750
C	1.893778	-5.329063	-3.441858
H	2.284868	-4.755694	-4.303826
H	1.383341	-6.238095	-3.828743
H	2.741817	-5.637262	-2.792824
C	-1.586168	-4.572261	3.241222
H	-1.974033	-5.139743	4.108274
H	-2.441448	-4.153131	2.668916
H	-0.954660	-3.739531	3.620041
C	0.369302	-2.306654	-1.015668
S	-0.517367	-2.306501	1.453394
C	-0.000000	-1.435185	-0.000000
H	0.724300	-1.978138	-2.000559
H	0.145124	-9.614033	-0.288311
C	0.000000	0.000000	0.000000
S	0.157577	0.890937	1.507541
C	0.429889	2.439720	0.718873
C	0.157797	0.890576	-1.067872
C	0.396915	2.260004	-0.686410
S	0.118307	0.650207	-2.805516
C	0.417036	2.376229	-3.054530
C	0.537616	3.074202	-1.862551
F	0.764992	4.391378	-1.819088
C	0.496696	2.817118	-4.456084
O	0.370874	2.057582	-5.406510
O	0.723861	4.148418	-4.569225
C	0.814976	4.635075	-5.916207
H	0.999286	5.720591	-5.833064
H	-0.125909	4.442226	-6.470168
H	1.645504	4.140465	-6.459293
H	0.588993	3.350182	1.306486
$end

$rem
JOBTYPE		SP
EXCHANGE	HF
CORRELATION	pRIMP2
BASIS		cc-pvtz
METHOD		rimp2
AUX_BASIS	rimp2-cc-pvtz
SOLVENT_METHOD	PCM
PURECART	11111
SYMMETRY	false
MEM_TOTAL	110000
SCF_CONVERGENCE = 6
THRESH=10
GUI = 2
$end

$solvent
dielectric 4.90
$end
--------------------------------------------------------------

             Standard Nuclear Orientation (Angstroms)
    I     Atom           X                Y                Z
 ----------------------------------------------------------------
    1      C       0.1476850000    -8.5177020000    -0.2849190000
    2      C      -0.2125520000    -7.6415750000     0.7285740000
    3      S       0.6617570000    -7.6386340000    -1.7453040000
    4      C      -0.0837610000    -6.2647850000     0.3748240000
    5      H      -0.5655130000    -7.9660810000     1.7156210000
    6      C       0.4056650000    -6.0727140000    -0.9651040000
    7      C       0.5746170000    -4.7870490000    -1.5021360000
    8      C      -0.4137630000    -5.1628010000     1.2146870000
    9      C      -0.2487480000    -3.8748170000     0.6758700000
   10      C       0.2438880000    -3.6839520000    -0.6645130000
   11      O      -0.8385110000    -5.4997720000     2.4642090000
   12      O       1.0001760000    -4.4590550000    -2.7577500000
   13      C       1.8937780000    -5.3290630000    -3.4418580000
   14      H       2.2848680000    -4.7556940000    -4.3038260000
   15      H       1.3833410000    -6.2380950000    -3.8287430000
   16      H       2.7418170000    -5.6372620000    -2.7928240000
   17      C      -1.5861680000    -4.5722610000     3.2412220000
   18      H      -1.9740330000    -5.1397430000     4.1082740000
   19      H      -2.4414480000    -4.1531310000     2.6689160000
   20      H      -0.9546600000    -3.7395310000     3.6200410000
   21      C       0.3693020000    -2.3066540000    -1.0156680000
   22      S      -0.5173670000    -2.3065010000     1.4533940000
   23      C       0.0000000000    -1.4351850000     0.0000000000
   24      H       0.7243000000    -1.9781380000    -2.0005590000
   25      H       0.1451240000    -9.6140330000    -0.2883110000
   26      C       0.0000000000     0.0000000000     0.0000000000
   27      S       0.1575770000     0.8909370000     1.5075410000
   28      C       0.4298890000     2.4397200000     0.7188730000
   29      C       0.1577970000     0.8905760000    -1.0678720000
   30      C       0.3969150000     2.2600040000    -0.6864100000
   31      S       0.1183070000     0.6502070000    -2.8055160000
   32      C       0.4170360000     2.3762290000    -3.0545300000
   33      C       0.5376160000     3.0742020000    -1.8625510000
   34      F       0.7649920000     4.3913780000    -1.8190880000
   35      C       0.4966960000     2.8171180000    -4.4560840000
   36      O       0.3708740000     2.0575820000    -5.4065100000
   37      O       0.7238610000     4.1484180000    -4.5692250000
   38      C       0.8149760000     4.6350750000    -5.9162070000
   39      H       0.9992860000     5.7205910000    -5.8330640000
   40      H      -0.1259090000     4.4422260000    -6.4701680000
   41      H       1.6455040000     4.1404650000    -6.4592930000
   42      H       0.5889930000     3.3501820000     1.3064860000
 ----------------------------------------------------------------

   10   -2754.3150653190      7.52e-07  Convergence criterion met
 Total energy in the final basis set =    -2754.3150653190
        RIMP2         total energy =     -2759.3677552426 a.u.

                    Orbital Energies (a.u.)
 --------------------------------------------------------------

 Alpha MOs
 -- Occupied --
-92.0162 -91.9994 -91.9910 -91.9864 -26.3435 -20.6148 -20.5930 -20.5910
-20.5613 -11.4095 -11.3827 -11.3201 -11.3176 -11.3104 -11.3014 -11.2998
-11.2978 -11.2973 -11.2888 -11.2877 -11.2871 -11.2859 -11.2855 -11.2844
-11.2796 -11.2622 -11.2588 -11.2561 -11.2501  -9.0149  -8.9993  -8.9916
 -8.9863  -6.6956  -6.6951  -6.6945  -6.6803  -6.6796  -6.6785  -6.6726
 -6.6720  -6.6710  -6.6673  -6.6667  -6.6658  -1.6605  -1.4673  -1.4171
 -1.4138  -1.3700  -1.2222  -1.1952  -1.1664  -1.1368  -1.0858  -1.0524
 -1.0421  -1.0237  -1.0021  -0.9887  -0.9641  -0.9599  -0.9506  -0.9395
 -0.8967  -0.8682  -0.8523  -0.8084  -0.7992  -0.7882  -0.7864  -0.7645
 -0.7554  -0.7346  -0.7254  -0.7100  -0.7022  -0.6857  -0.6837  -0.6809
 -0.6739  -0.6595  -0.6587  -0.6525  -0.6309  -0.6200  -0.6171  -0.6027
 -0.5983  -0.5837  -0.5798  -0.5712  -0.5650  -0.5619  -0.5550  -0.5501
 -0.5356  -0.5304  -0.5247  -0.5187  -0.5166  -0.5099  -0.5063  -0.4961
 -0.4878  -0.4813  -0.4770  -0.4740  -0.4694  -0.4662  -0.4601  -0.4258
 -0.3964  -0.3848  -0.3608  -0.3492  -0.3272  -0.2894  -0.2510

          Ground-State Mulliken Net Atomic Charges

     Atom                 Charge (a.u.)
  ----------------------------------------
      1 C                    -0.189417
      2 C                    -0.254000
      3 S                    -0.021217
      4 C                    -0.017439
      5 H                     0.196169
      6 C                    -0.028073
      7 C                     0.243834
      8 C                     0.242995
      9 C                    -0.041588
     10 C                    -0.027885
     11 O                    -0.333085
     12 O                    -0.339688
     13 C                    -0.086288
     14 H                     0.123392
     15 H                     0.091390
     16 H                     0.093792
     17 C                    -0.088254
     18 H                     0.126004
     19 H                     0.095297
     20 H                     0.089367
     21 C                    -0.220734
     22 S                    -0.035107
     23 C                    -0.003512
     24 H                     0.191819
     25 H                     0.206379
     26 C                     0.004791
     27 S                     0.091930
     28 C                    -0.197295
     29 C                    -0.008034
     30 C                    -0.109975
     31 S                     0.011646
     32 C                    -0.161593
     33 C                     0.406807
     34 F                    -0.206772
     35 C                     0.442925
     36 O                    -0.460859
     37 O                    -0.300652
     38 C                    -0.058626
     39 H                     0.121459
     40 H                     0.095269
     41 H                     0.095110
     42 H                     0.219716
  ----------------------------------------
  Sum of atomic charges =     0.000000

                    Cartesian Multipole Moments
 -----------------------------------------------------------------
    Charge (ESU x 10^10)
                 0.0000
    Dipole Moment (Debye)
         X       0.6815      Y       1.0924      Z       3.1599
       Tot       3.4122
    Quadrupole Moments (Debye-Ang)
        XX    -194.0757     XY       1.3841     YY    -159.6905
        XZ     -12.9066     YZ      -7.7274     ZZ    -188.6524

 Total job time:  298.05s(wall), 9279.85s(cpu)
        *  Thank you very much for using Q-Chem.  Have a nice day.  *
