 Q-Chem 5.4, Q-Chem, Inc., Pleasanton, CA (2021)
 Q-Chem 5.4.0 for Intel X86 EM64T Linux

User input:
--------------------------------------------------------------
$molecule
0 1
C	-0.014560	-8.517702	-0.320589
C	0.180211	-7.641575	0.737240
S	-0.299553	-7.638634	-1.842356
C	0.114873	-6.264785	0.366488
H	0.368061	-7.966081	1.768528
C	-0.131236	-6.072714	-1.038637
C	-0.253435	-4.787049	-1.588197
C	0.249014	-5.162801	1.258831
C	0.122513	-3.874817	0.709695
C	-0.121043	-3.683952	-0.697430
O	0.505933	-5.499772	2.553323
O	-0.512697	-4.459055	-2.888369
C	-0.080869	-5.329063	-3.927625
H	-0.173159	-4.755694	-4.869656
H	-0.716363	-6.238095	-4.007459
H	0.978072	-5.637262	-3.789565
C	0.246949	-4.572261	3.600064
H	0.344574	-5.139743	4.544887
H	-0.779898	-4.153131	3.532074
H	0.983261	-3.739531	3.612378
C	-0.188009	-2.306654	-1.064246
S	0.278644	-2.306501	1.517360
C	0.000000	-1.435185	0.000000
H	-0.373017	-1.978138	-2.094685
H	-0.018474	-9.614033	-0.322246
C	0.000000	0.000000	0.000000
S	0.000474	0.904764	1.507541
C	-0.000295	2.477305	0.718873
C	0.000752	0.904447	-1.067872
C	-0.001560	2.294593	-0.686410
S	0.003602	0.660872	-2.805516
C	-0.001928	2.412546	-3.054530
C	-0.004381	3.120854	-1.862551
F	-0.009185	4.457503	-1.819088
C	-0.000038	2.860570	-4.456084
O	0.007944	2.090724	-5.406510
O	-0.007501	4.211092	-4.569225
C	-0.002278	4.706177	-5.916207
H	-0.009265	5.807207	-5.833064
H	-0.895381	4.352875	-6.470168
H	0.901521	4.363301	-6.459293
H	-0.001708	3.401562	1.306486
$end

$rem
JOBTYPE		SP
EXCHANGE	HF
CORRELATION	pRIMP2
BASIS		cc-pvtz
METHOD		rimp2
AUX_BASIS	rimp2-cc-pvtz
SOLVENT_METHOD	PCM
PURECART	11111
SYMMETRY	false
MEM_TOTAL	110000
SCF_CONVERGENCE = 6
THRESH=10
GUI = 2
$end

$solvent
dielectric 4.90
$end
--------------------------------------------------------------

             Standard Nuclear Orientation (Angstroms)
    I     Atom           X                Y                Z
 ----------------------------------------------------------------
    1      C      -0.0145600000    -8.5177020000    -0.3205890000
    2      C       0.1802110000    -7.6415750000     0.7372400000
    3      S      -0.2995530000    -7.6386340000    -1.8423560000
    4      C       0.1148730000    -6.2647850000     0.3664880000
    5      H       0.3680610000    -7.9660810000     1.7685280000
    6      C      -0.1312360000    -6.0727140000    -1.0386370000
    7      C      -0.2534350000    -4.7870490000    -1.5881970000
    8      C       0.2490140000    -5.1628010000     1.2588310000
    9      C       0.1225130000    -3.8748170000     0.7096950000
   10      C      -0.1210430000    -3.6839520000    -0.6974300000
   11      O       0.5059330000    -5.4997720000     2.5533230000
   12      O      -0.5126970000    -4.4590550000    -2.8883690000
   13      C      -0.0808690000    -5.3290630000    -3.9276250000
   14      H      -0.1731590000    -4.7556940000    -4.8696560000
   15      H      -0.7163630000    -6.2380950000    -4.0074590000
   16      H       0.9780720000    -5.6372620000    -3.7895650000
   17      C       0.2469490000    -4.5722610000     3.6000640000
   18      H       0.3445740000    -5.1397430000     4.5448870000
   19      H      -0.7798980000    -4.1531310000     3.5320740000
   20      H       0.9832610000    -3.7395310000     3.6123780000
   21      C      -0.1880090000    -2.3066540000    -1.0642460000
   22      S       0.2786440000    -2.3065010000     1.5173600000
   23      C       0.0000000000    -1.4351850000     0.0000000000
   24      H      -0.3730170000    -1.9781380000    -2.0946850000
   25      H      -0.0184740000    -9.6140330000    -0.3222460000
   26      C       0.0000000000     0.0000000000     0.0000000000
   27      S       0.0004740000     0.9047640000     1.5075410000
   28      C      -0.0002950000     2.4773050000     0.7188730000
   29      C       0.0007520000     0.9044470000    -1.0678720000
   30      C      -0.0015600000     2.2945930000    -0.6864100000
   31      S       0.0036020000     0.6608720000    -2.8055160000
   32      C      -0.0019280000     2.4125460000    -3.0545300000
   33      C      -0.0043810000     3.1208540000    -1.8625510000
   34      F      -0.0091850000     4.4575030000    -1.8190880000
   35      C      -0.0000380000     2.8605700000    -4.4560840000
   36      O       0.0079440000     2.0907240000    -5.4065100000
   37      O      -0.0075010000     4.2110920000    -4.5692250000
   38      C      -0.0022780000     4.7061770000    -5.9162070000
   39      H      -0.0092650000     5.8072070000    -5.8330640000
   40      H      -0.8953810000     4.3528750000    -6.4701680000
   41      H       0.9015210000     4.3633010000    -6.4592930000
   42      H      -0.0017080000     3.4015620000     1.3064860000
 ----------------------------------------------------------------

   10   -2754.3166973020      7.64e-07  Convergence criterion met
 Total energy in the final basis set =    -2754.3166973020
        RIMP2         total energy =     -2759.3692871494 a.u.

                    Orbital Energies (a.u.)
 --------------------------------------------------------------

 Alpha MOs
 -- Occupied --
-92.0165 -91.9996 -91.9915 -91.9865 -26.3436 -20.6149 -20.5931 -20.5911
-20.5614 -11.4096 -11.3830 -11.3203 -11.3177 -11.3100 -11.3024 -11.2994
-11.2979 -11.2978 -11.2888 -11.2879 -11.2874 -11.2860 -11.2854 -11.2844
-11.2796 -11.2626 -11.2590 -11.2566 -11.2501  -9.0151  -8.9996  -8.9921
 -8.9864  -6.6959  -6.6953  -6.6948  -6.6806  -6.6799  -6.6788  -6.6732
 -6.6725  -6.6715  -6.6674  -6.6667  -6.6659  -1.6606  -1.4674  -1.4172
 -1.4138  -1.3701  -1.2222  -1.1954  -1.1666  -1.1370  -1.0860  -1.0526
 -1.0421  -1.0239  -1.0023  -0.9889  -0.9644  -0.9600  -0.9507  -0.9396
 -0.8969  -0.8683  -0.8528  -0.8085  -0.7994  -0.7885  -0.7863  -0.7645
 -0.7555  -0.7348  -0.7255  -0.7101  -0.7023  -0.6861  -0.6838  -0.6810
 -0.6739  -0.6596  -0.6589  -0.6525  -0.6311  -0.6200  -0.6171  -0.6021
 -0.5984  -0.5851  -0.5797  -0.5712  -0.5652  -0.5607  -0.5549  -0.5515
 -0.5361  -0.5305  -0.5231  -0.5204  -0.5173  -0.5117  -0.5054  -0.4956
 -0.4874  -0.4814  -0.4775  -0.4743  -0.4699  -0.4657  -0.4605  -0.4271
 -0.3968  -0.3846  -0.3613  -0.3488  -0.3280  -0.2893  -0.2504

          Ground-State Mulliken Net Atomic Charges

     Atom                 Charge (a.u.)
  ----------------------------------------
      1 C                    -0.189125
      2 C                    -0.254433
      3 S                    -0.021299
      4 C                    -0.016228
      5 H                     0.196199
      6 C                    -0.027091
      7 C                     0.246647
      8 C                     0.241492
      9 C                    -0.037842
     10 C                    -0.034416
     11 O                    -0.332916
     12 O                    -0.340659
     13 C                    -0.086522
     14 H                     0.123715
     15 H                     0.091676
     16 H                     0.093976
     17 C                    -0.088522
     18 H                     0.126024
     19 H                     0.095086
     20 H                     0.089607
     21 C                    -0.208360
     22 S                    -0.041891
     23 C                    -0.015831
     24 H                     0.188860
     25 H                     0.206421
     26 C                    -0.002338
     27 S                     0.076942
     28 C                    -0.187473
     29 C                     0.042382
     30 C                    -0.131842
     31 S                     0.003660
     32 C                    -0.162419
     33 C                     0.407809
     34 F                    -0.206756
     35 C                     0.443307
     36 O                    -0.461233
     37 O                    -0.300595
     38 C                    -0.058747
     39 H                     0.121536
     40 H                     0.095252
     41 H                     0.095153
     42 H                     0.220795
  ----------------------------------------
  Sum of atomic charges =     0.000000

                    Cartesian Multipole Moments
 -----------------------------------------------------------------
    Charge (ESU x 10^10)
                 0.0000
    Dipole Moment (Debye)
         X       0.2509      Y       1.0900      Z       3.0703
       Tot       3.2677
    Quadrupole Moments (Debye-Ang)
        XX    -202.2057     XY      -1.3314     YY    -158.8899
        XZ      -1.4526     YZ      -7.1637     ZZ    -181.0130

 Total job time:  2501.24s(wall), 89481.23s(cpu)
        *  Thank you very much for using Q-Chem.  Have a nice day.  *
