 Q-Chem 5.4, Q-Chem, Inc., Pleasanton, CA (2021)
 Q-Chem 5.4.0 for Intel X86 EM64T Linux

User input:
--------------------------------------------------------------
$molecule
0 1
C	-0.217225	-8.517702	-0.236226
C	0.611939	-7.641575	0.448921
S	-1.413715	-7.638634	-1.218777
C	0.323572	-6.264785	0.206907
H	1.418739	-7.966081	1.118185
C	-0.768156	-6.072714	-0.711285
C	-1.215016	-4.787049	-1.053725
C	0.999917	-5.162801	0.804258
C	0.550033	-3.874817	0.464908
C	-0.541024	-3.683952	-0.456457
O	2.028811	-5.499772	1.630752
O	-2.249357	-4.459055	-1.883064
C	-2.586579	-5.329063	-2.956754
H	-3.262802	-4.755694	-3.619069
H	-3.124711	-6.238095	-2.609423
H	-1.686639	-5.637262	-3.531667
C	2.503251	-4.572261	2.599073
H	3.185356	-5.139743	3.260097
H	1.672937	-4.153131	3.207034
H	3.075213	-3.739531	2.135214
C	-0.828107	-2.306654	-0.694410
S	1.188794	-2.306501	0.983256
C	0.000000	-1.435185	0.000000
H	-1.632185	-1.978138	-1.364851
H	-0.221288	-9.614033	-0.234980
C	0.000000	0.000000	0.000000
S	0.693394	0.581209	1.507541
C	1.897536	1.592607	0.718873
C	0.693330	0.580791	-1.067872
C	1.756758	1.476132	-0.686410
S	0.508573	0.422041	-2.805516
C	1.846879	1.552232	-3.054530
C	2.387897	2.009402	-1.862551
F	3.408741	2.872264	-1.819088
C	2.191300	1.838768	-4.456084
O	1.606694	1.337806	-5.406510
O	3.221062	2.712584	-4.569225
C	3.603677	3.026817	-5.916207
H	4.442623	3.739898	-5.833064
H	2.758956	3.483875	-6.470168
H	3.921969	2.114070	-6.459293
H	2.604650	2.187790	1.306486
$end

$rem
JOBTYPE		SP
EXCHANGE	HF
CORRELATION	pRIMP2
BASIS		cc-pvtz
METHOD		rimp2
AUX_BASIS	rimp2-cc-pvtz
SOLVENT_METHOD	PCM
PURECART	11111
SYMMETRY	false
MEM_TOTAL	110000
SCF_CONVERGENCE = 6
THRESH=10
GUI = 2
$end

$solvent
dielectric 4.90
$end
--------------------------------------------------------------

             Standard Nuclear Orientation (Angstroms)
    I     Atom           X                Y                Z
 ----------------------------------------------------------------
    1      C      -0.2172250000    -8.5177020000    -0.2362260000
    2      C       0.6119390000    -7.6415750000     0.4489210000
    3      S      -1.4137150000    -7.6386340000    -1.2187770000
    4      C       0.3235720000    -6.2647850000     0.2069070000
    5      H       1.4187390000    -7.9660810000     1.1181850000
    6      C      -0.7681560000    -6.0727140000    -0.7112850000
    7      C      -1.2150160000    -4.7870490000    -1.0537250000
    8      C       0.9999170000    -5.1628010000     0.8042580000
    9      C       0.5500330000    -3.8748170000     0.4649080000
   10      C      -0.5410240000    -3.6839520000    -0.4564570000
   11      O       2.0288110000    -5.4997720000     1.6307520000
   12      O      -2.2493570000    -4.4590550000    -1.8830640000
   13      C      -2.5865790000    -5.3290630000    -2.9567540000
   14      H      -3.2628020000    -4.7556940000    -3.6190690000
   15      H      -3.1247110000    -6.2380950000    -2.6094230000
   16      H      -1.6866390000    -5.6372620000    -3.5316670000
   17      C       2.5032510000    -4.5722610000     2.5990730000
   18      H       3.1853560000    -5.1397430000     3.2600970000
   19      H       1.6729370000    -4.1531310000     3.2070340000
   20      H       3.0752130000    -3.7395310000     2.1352140000
   21      C      -0.8281070000    -2.3066540000    -0.6944100000
   22      S       1.1887940000    -2.3065010000     0.9832560000
   23      C       0.0000000000    -1.4351850000     0.0000000000
   24      H      -1.6321850000    -1.9781380000    -1.3648510000
   25      H      -0.2212880000    -9.6140330000    -0.2349800000
   26      C       0.0000000000     0.0000000000     0.0000000000
   27      S       0.6933940000     0.5812090000     1.5075410000
   28      C       1.8975360000     1.5926070000     0.7188730000
   29      C       0.6933300000     0.5807910000    -1.0678720000
   30      C       1.7567580000     1.4761320000    -0.6864100000
   31      S       0.5085730000     0.4220410000    -2.8055160000
   32      C       1.8468790000     1.5522320000    -3.0545300000
   33      C       2.3878970000     2.0094020000    -1.8625510000
   34      F       3.4087410000     2.8722640000    -1.8190880000
   35      C       2.1913000000     1.8387680000    -4.4560840000
   36      O       1.6066940000     1.3378060000    -5.4065100000
   37      O       3.2210620000     2.7125840000    -4.5692250000
   38      C       3.6036770000     3.0268170000    -5.9162070000
   39      H       4.4426230000     3.7398980000    -5.8330640000
   40      H       2.7589560000     3.4838750000    -6.4701680000
   41      H       3.9219690000     2.1140700000    -6.4592930000
   42      H       2.6046500000     2.1877900000     1.3064860000
 ----------------------------------------------------------------

   10   -2754.2688270988      8.00e-07  Convergence criterion met
 Total energy in the final basis set =    -2754.2688270988
        RIMP2         total energy =     -2759.3300605712 a.u.

                    Orbital Energies (a.u.)
 --------------------------------------------------------------

 Alpha MOs
 -- Occupied --
-92.0142 -92.0067 -91.9866 -91.9834 -26.3457 -20.6154 -20.5911 -20.5872
-20.5619 -11.4104 -11.3861 -11.3289 -11.3174 -11.3169 -11.3108 -11.2984
-11.2933 -11.2893 -11.2881 -11.2867 -11.2836 -11.2811 -11.2798 -11.2787
-11.2756 -11.2568 -11.2532 -11.2478 -11.2402  -9.0137  -9.0064  -8.9873
 -8.9833  -6.6944  -6.6936  -6.6933  -6.6873  -6.6865  -6.6855  -6.6681
 -6.6674  -6.6664  -6.6643  -6.6637  -6.6628  -1.6627  -1.4680  -1.4150
 -1.4102  -1.3707  -1.2308  -1.1904  -1.1646  -1.1391  -1.0838  -1.0481
 -1.0447  -1.0264  -0.9979  -0.9867  -0.9649  -0.9585  -0.9486  -0.9384
 -0.8935  -0.8710  -0.8460  -0.8116  -0.7965  -0.7851  -0.7839  -0.7623
 -0.7559  -0.7305  -0.7275  -0.7127  -0.6996  -0.6861  -0.6826  -0.6790
 -0.6746  -0.6594  -0.6573  -0.6501  -0.6287  -0.6174  -0.6153  -0.6063
 -0.6000  -0.5904  -0.5764  -0.5704  -0.5637  -0.5625  -0.5532  -0.5366
 -0.5331  -0.5310  -0.5199  -0.5161  -0.5128  -0.5120  -0.5028  -0.4926
 -0.4871  -0.4843  -0.4757  -0.4741  -0.4705  -0.4600  -0.4589  -0.4150
 -0.3957  -0.3812  -0.3554  -0.3501  -0.3193  -0.2962  -0.2506

          Ground-State Mulliken Net Atomic Charges

     Atom                 Charge (a.u.)
  ----------------------------------------
      1 C                    -0.196956
      2 C                    -0.253558
      3 S                    -0.027207
      4 C                    -0.022874
      5 H                     0.195118
      6 C                    -0.024698
      7 C                     0.229849
      8 C                     0.241623
      9 C                    -0.052876
     10 C                    -0.011134
     11 O                    -0.333368
     12 O                    -0.341274
     13 C                    -0.085665
     14 H                     0.121696
     15 H                     0.090030
     16 H                     0.092947
     17 C                    -0.086967
     18 H                     0.125009
     19 H                     0.093991
     20 H                     0.088698
     21 C                    -0.283612
     22 S                    -0.019200
     23 C                    -0.005574
     24 H                     0.194614
     25 H                     0.204804
     26 C                    -0.095937
     27 S                     0.099559
     28 C                    -0.137592
     29 C                     0.067882
     30 C                    -0.106461
     31 S                     0.044237
     32 C                    -0.151841
     33 C                     0.391368
     34 F                    -0.204431
     35 C                     0.448184
     36 O                    -0.461628
     37 O                    -0.301237
     38 C                    -0.058230
     39 H                     0.121446
     40 H                     0.095220
     41 H                     0.095372
     42 H                     0.220674
  ----------------------------------------
  Sum of atomic charges =     0.000000

                    Cartesian Multipole Moments
 -----------------------------------------------------------------
    Charge (ESU x 10^10)
                 0.0000
    Dipole Moment (Debye)
         X       3.5393      Y       2.2214      Z       2.7741
       Tot       5.0157
    Quadrupole Moments (Debye-Ang)
        XX    -183.2583     XY       7.1320     YY    -177.5736
        XZ       6.1416     YZ      -4.3522     ZZ    -188.7345

 Total job time:  319.57s(wall), 9769.37s(cpu)
        *  Thank you very much for using Q-Chem.  Have a nice day.  *
