 Q-Chem 5.4, Q-Chem, Inc., Pleasanton, CA (2021)
 Q-Chem 5.4.0 for Intel X86 EM64T Linux

User input:
--------------------------------------------------------------
$molecule
0 1
C	-0.296276	-8.517702	0.123330
C	0.631143	-7.641575	-0.421494
S	-1.628795	-7.638634	0.911611
C	0.305097	-6.264785	-0.233291
H	1.535988	-7.966081	-0.950737
C	-0.931114	-6.072714	0.478557
C	-1.405737	-4.787049	0.781346
C	1.097747	-5.162801	-0.664542
C	0.624993	-3.874817	-0.357854
C	-0.613970	-3.683952	0.352278
O	2.226300	-5.499772	-1.348709
O	-2.538827	-4.459055	1.469658
C	-3.663102	-5.329063	1.419319
H	-4.516756	-4.755694	1.828237
H	-3.520769	-6.238095	2.043793
H	-3.895546	-5.637262	0.377021
C	3.298492	-4.572261	-1.463351
H	4.152945	-5.139743	-1.878237
H	3.585804	-4.153131	-0.475176
H	3.058230	-3.739531	-2.159469
C	-0.935761	-2.306654	0.540664
S	1.330550	-2.306501	-0.780808
C	0.000000	-1.435185	0.000000
H	-1.840780	-1.978138	1.066946
H	-0.296494	-9.614033	0.127575
C	0.000000	0.000000	0.000000
S	0.234628	0.873813	1.507541
C	0.640889	2.392969	0.718873
C	0.234815	0.873434	-1.067872
C	0.592377	2.216811	-0.686410
S	0.174526	0.637422	-2.805516
C	0.622551	2.330840	-3.054530
C	0.803505	3.015647	-1.862551
F	1.144815	4.307994	-1.819088
C	0.740334	2.763108	-4.456084
O	0.548793	2.017428	-5.406510
O	1.082665	4.069544	-4.569225
C	1.215848	4.546407	-5.916207
H	1.494066	5.611729	-5.833064
H	0.261736	4.436296	-6.470168
H	2.000108	3.981294	-6.459293
H	0.878739	3.286099	1.306486
$end

$rem
JOBTYPE		SP
EXCHANGE	HF
CORRELATION	pRIMP2
BASIS		cc-pvtz
METHOD		rimp2
AUX_BASIS	rimp2-cc-pvtz
SOLVENT_METHOD	PCM
PURECART	11111
SYMMETRY	false
MEM_TOTAL	110000
SCF_CONVERGENCE = 6
THRESH=10
GUI = 2
$end

$solvent
dielectric 4.90
$end
--------------------------------------------------------------

             Standard Nuclear Orientation (Angstroms)
    I     Atom           X                Y                Z
 ----------------------------------------------------------------
    1      C      -0.2962760000    -8.5177020000     0.1233300000
    2      C       0.6311430000    -7.6415750000    -0.4214940000
    3      S      -1.6287950000    -7.6386340000     0.9116110000
    4      C       0.3050970000    -6.2647850000    -0.2332910000
    5      H       1.5359880000    -7.9660810000    -0.9507370000
    6      C      -0.9311140000    -6.0727140000     0.4785570000
    7      C      -1.4057370000    -4.7870490000     0.7813460000
    8      C       1.0977470000    -5.1628010000    -0.6645420000
    9      C       0.6249930000    -3.8748170000    -0.3578540000
   10      C      -0.6139700000    -3.6839520000     0.3522780000
   11      O       2.2263000000    -5.4997720000    -1.3487090000
   12      O      -2.5388270000    -4.4590550000     1.4696580000
   13      C      -3.6631020000    -5.3290630000     1.4193190000
   14      H      -4.5167560000    -4.7556940000     1.8282370000
   15      H      -3.5207690000    -6.2380950000     2.0437930000
   16      H      -3.8955460000    -5.6372620000     0.3770210000
   17      C       3.2984920000    -4.5722610000    -1.4633510000
   18      H       4.1529450000    -5.1397430000    -1.8782370000
   19      H       3.5858040000    -4.1531310000    -0.4751760000
   20      H       3.0582300000    -3.7395310000    -2.1594690000
   21      C      -0.9357610000    -2.3066540000     0.5406640000
   22      S       1.3305500000    -2.3065010000    -0.7808080000
   23      C       0.0000000000    -1.4351850000     0.0000000000
   24      H      -1.8407800000    -1.9781380000     1.0669460000
   25      H      -0.2964940000    -9.6140330000     0.1275750000
   26      C       0.0000000000     0.0000000000     0.0000000000
   27      S       0.2346280000     0.8738130000     1.5075410000
   28      C       0.6408890000     2.3929690000     0.7188730000
   29      C       0.2348150000     0.8734340000    -1.0678720000
   30      C       0.5923770000     2.2168110000    -0.6864100000
   31      S       0.1745260000     0.6374220000    -2.8055160000
   32      C       0.6225510000     2.3308400000    -3.0545300000
   33      C       0.8035050000     3.0156470000    -1.8625510000
   34      F       1.1448150000     4.3079940000    -1.8190880000
   35      C       0.7403340000     2.7631080000    -4.4560840000
   36      O       0.5487930000     2.0174280000    -5.4065100000
   37      O       1.0826650000     4.0695440000    -4.5692250000
   38      C       1.2158480000     4.5464070000    -5.9162070000
   39      H       1.4940660000     5.6117290000    -5.8330640000
   40      H       0.2617360000     4.4362960000    -6.4701680000
   41      H       2.0001080000     3.9812940000    -6.4592930000
   42      H       0.8787390000     3.2860990000     1.3064860000
 ----------------------------------------------------------------

   10   -2754.3118046488      7.22e-07  Convergence criterion met
 Total energy in the final basis set =    -2754.3118046488
        RIMP2         total energy =     -2759.3629102007 a.u.

                    Orbital Energies (a.u.)
 --------------------------------------------------------------

 Alpha MOs
 -- Occupied --
-92.0149 -91.9973 -91.9893 -91.9864 -26.3427 -20.6144 -20.5922 -20.5917
-20.5607 -11.4088 -11.3816 -11.3192 -11.3181 -11.3096 -11.3003 -11.2966
-11.2964 -11.2925 -11.2886 -11.2868 -11.2863 -11.2860 -11.2841 -11.2840
-11.2799 -11.2605 -11.2591 -11.2566 -11.2500  -9.0133  -8.9973  -8.9896
 -8.9864  -6.6940  -6.6934  -6.6929  -6.6783  -6.6776  -6.6765  -6.6706
 -6.6699  -6.6689  -6.6673  -6.6667  -6.6659  -1.6598  -1.4668  -1.4163
 -1.4144  -1.3695  -1.2208  -1.1943  -1.1653  -1.1353  -1.0846  -1.0519
 -1.0408  -1.0223  -1.0017  -0.9876  -0.9629  -0.9592  -0.9502  -0.9390
 -0.8958  -0.8670  -0.8510  -0.8117  -0.7917  -0.7878  -0.7865  -0.7651
 -0.7549  -0.7338  -0.7247  -0.7093  -0.6996  -0.6848  -0.6832  -0.6806
 -0.6735  -0.6591  -0.6573  -0.6527  -0.6303  -0.6201  -0.6170  -0.6048
 -0.5971  -0.5846  -0.5777  -0.5691  -0.5661  -0.5599  -0.5561  -0.5508
 -0.5322  -0.5303  -0.5240  -0.5162  -0.5150  -0.5081  -0.5057  -0.4961
 -0.4890  -0.4795  -0.4753  -0.4730  -0.4695  -0.4656  -0.4602  -0.4106
 -0.3985  -0.3853  -0.3567  -0.3494  -0.3209  -0.2923  -0.2571

          Ground-State Mulliken Net Atomic Charges

     Atom                 Charge (a.u.)
  ----------------------------------------
      1 C                    -0.188034
      2 C                    -0.254218
      3 S                    -0.022562
      4 C                    -0.014207
      5 H                     0.196447
      6 C                    -0.026478
      7 C                     0.242177
      8 C                     0.239370
      9 C                    -0.041335
     10 C                    -0.017188
     11 O                    -0.333226
     12 O                    -0.340026
     13 C                    -0.085678
     14 H                     0.122547
     15 H                     0.091004
     16 H                     0.094358
     17 C                    -0.087121
     18 H                     0.125052
     19 H                     0.094399
     20 H                     0.090698
     21 C                    -0.244147
     22 S                    -0.003739
     23 C                    -0.037678
     24 H                     0.196977
     25 H                     0.206477
     26 C                     0.013995
     27 S                     0.110859
     28 C                    -0.190237
     29 C                    -0.051414
     30 C                    -0.089730
     31 S                     0.017366
     32 C                    -0.153804
     33 C                     0.392675
     34 F                    -0.207128
     35 C                     0.445254
     36 O                    -0.461060
     37 O                    -0.300755
     38 C                    -0.058436
     39 H                     0.121234
     40 H                     0.095086
     41 H                     0.094954
     42 H                     0.217274
  ----------------------------------------
  Sum of atomic charges =     0.000000

                    Cartesian Multipole Moments
 -----------------------------------------------------------------
    Charge (ESU x 10^10)
                -0.0000
    Dipole Moment (Debye)
         X       0.7092      Y       0.8972      Z       2.7448
       Tot       2.9735
    Quadrupole Moments (Debye-Ang)
        XX    -177.8586     XY       4.9097     YY    -160.6490
        XZ      -8.8380     YZ      -5.9437     ZZ    -204.4797

 Total job time:  297.45s(wall), 9536.23s(cpu)
        *  Thank you very much for using Q-Chem.  Have a nice day.  *
