 Q-Chem 5.4, Q-Chem, Inc., Pleasanton, CA (2021)
 Q-Chem 5.4.0 for Intel X86 EM64T Linux

User input:
--------------------------------------------------------------
$molecule
0 1
C	-0.217225	-8.517702	-0.236226
C	0.611939	-7.641575	0.448921
S	-1.413715	-7.638634	-1.218777
C	0.323572	-6.264785	0.206907
H	1.418739	-7.966081	1.118185
C	-0.768156	-6.072714	-0.711285
C	-1.215016	-4.787049	-1.053725
C	0.999917	-5.162801	0.804258
C	0.550033	-3.874817	0.464908
C	-0.541024	-3.683952	-0.456457
O	2.028811	-5.499772	1.630752
O	-2.249357	-4.459055	-1.883064
C	-2.586579	-5.329063	-2.956754
H	-3.262802	-4.755694	-3.619069
H	-3.124711	-6.238095	-2.609423
H	-1.686639	-5.637262	-3.531667
C	2.503251	-4.572261	2.599073
H	3.185356	-5.139743	3.260097
H	1.672937	-4.153131	3.207034
H	3.075213	-3.739531	2.135214
C	-0.828107	-2.306654	-0.694410
S	1.188794	-2.306501	0.983256
C	-0.000000	-1.435185	-0.000000
H	-1.632185	-1.978138	-1.364851
H	-0.221288	-9.614033	-0.234980
C	0.000000	0.000000	0.000000
S	0.309893	0.850039	1.507541
C	0.847011	2.328006	0.718873
C	0.310046	0.849645	-1.067872
C	0.783331	2.156746	-0.686410
S	0.229416	0.619785	-2.805516
C	0.823328	2.267711	-3.054530
C	1.063278	2.934142	-1.862551
F	1.515925	4.191824	-1.819088
C	0.978337	2.688069	-4.456084
O	0.722535	1.961921	-5.406510
O	1.433229	3.959697	-4.569225
C	1.607467	4.423139	-5.916207
H	1.977475	5.460158	-5.833064
H	0.647388	4.396602	-6.470168
H	2.339490	3.791823	-6.459293
H	1.161798	3.197007	1.306486
$end

$rem
JOBTYPE		SP
EXCHANGE	HF
CORRELATION	pRIMP2
BASIS		cc-pvtz
METHOD		rimp2
AUX_BASIS	rimp2-cc-pvtz
SOLVENT_METHOD	PCM
PURECART	11111
SYMMETRY	false
MEM_TOTAL	110000
SCF_CONVERGENCE = 6
THRESH=10
GUI = 2
$end

$solvent
dielectric 4.90
$end
--------------------------------------------------------------

             Standard Nuclear Orientation (Angstroms)
    I     Atom           X                Y                Z
 ----------------------------------------------------------------
    1      C      -0.2172250000    -8.5177020000    -0.2362260000
    2      C       0.6119390000    -7.6415750000     0.4489210000
    3      S      -1.4137150000    -7.6386340000    -1.2187770000
    4      C       0.3235720000    -6.2647850000     0.2069070000
    5      H       1.4187390000    -7.9660810000     1.1181850000
    6      C      -0.7681560000    -6.0727140000    -0.7112850000
    7      C      -1.2150160000    -4.7870490000    -1.0537250000
    8      C       0.9999170000    -5.1628010000     0.8042580000
    9      C       0.5500330000    -3.8748170000     0.4649080000
   10      C      -0.5410240000    -3.6839520000    -0.4564570000
   11      O       2.0288110000    -5.4997720000     1.6307520000
   12      O      -2.2493570000    -4.4590550000    -1.8830640000
   13      C      -2.5865790000    -5.3290630000    -2.9567540000
   14      H      -3.2628020000    -4.7556940000    -3.6190690000
   15      H      -3.1247110000    -6.2380950000    -2.6094230000
   16      H      -1.6866390000    -5.6372620000    -3.5316670000
   17      C       2.5032510000    -4.5722610000     2.5990730000
   18      H       3.1853560000    -5.1397430000     3.2600970000
   19      H       1.6729370000    -4.1531310000     3.2070340000
   20      H       3.0752130000    -3.7395310000     2.1352140000
   21      C      -0.8281070000    -2.3066540000    -0.6944100000
   22      S       1.1887940000    -2.3065010000     0.9832560000
   23      C       0.0000000000    -1.4351850000     0.0000000000
   24      H      -1.6321850000    -1.9781380000    -1.3648510000
   25      H      -0.2212880000    -9.6140330000    -0.2349800000
   26      C       0.0000000000     0.0000000000     0.0000000000
   27      S       0.3098930000     0.8500390000     1.5075410000
   28      C       0.8470110000     2.3280060000     0.7188730000
   29      C       0.3100460000     0.8496450000    -1.0678720000
   30      C       0.7833310000     2.1567460000    -0.6864100000
   31      S       0.2294160000     0.6197850000    -2.8055160000
   32      C       0.8233280000     2.2677110000    -3.0545300000
   33      C       1.0632780000     2.9341420000    -1.8625510000
   34      F       1.5159250000     4.1918240000    -1.8190880000
   35      C       0.9783370000     2.6880690000    -4.4560840000
   36      O       0.7225350000     1.9619210000    -5.4065100000
   37      O       1.4332290000     3.9596970000    -4.5692250000
   38      C       1.6074670000     4.4231390000    -5.9162070000
   39      H       1.9774750000     5.4601580000    -5.8330640000
   40      H       0.6473880000     4.3966020000    -6.4701680000
   41      H       2.3394900000     3.7918230000    -6.4592930000
   42      H       1.1617980000     3.1970070000     1.3064860000
 ----------------------------------------------------------------

   10   -2754.3090386345      7.03e-07  Convergence criterion met
 Total energy in the final basis set =    -2754.3090386345
        RIMP2         total energy =     -2759.3611537372 a.u.

                    Orbital Energies (a.u.)
 --------------------------------------------------------------

 Alpha MOs
 -- Occupied --
-92.0150 -91.9985 -91.9906 -91.9860 -26.3432 -20.6146 -20.5926 -20.5906
-20.5610 -11.4091 -11.3823 -11.3193 -11.3168 -11.3118 -11.3027 -11.2971
-11.2965 -11.2941 -11.2887 -11.2875 -11.2854 -11.2854 -11.2849 -11.2837
-11.2792 -11.2605 -11.2582 -11.2539 -11.2497  -9.0137  -8.9985  -8.9910
 -8.9859  -6.6944  -6.6938  -6.6933  -6.6795  -6.6787  -6.6776  -6.6719
 -6.6712  -6.6703  -6.6669  -6.6663  -6.6654  -1.6602  -1.4670  -1.4166
 -1.4135  -1.3697  -1.2220  -1.1941  -1.1655  -1.1363  -1.0845  -1.0516
 -1.0416  -1.0230  -1.0013  -0.9877  -0.9628  -0.9601  -0.9502  -0.9387
 -0.8959  -0.8677  -0.8510  -0.8085  -0.7966  -0.7870  -0.7866  -0.7643
 -0.7551  -0.7335  -0.7251  -0.7096  -0.7014  -0.6849  -0.6827  -0.6805
 -0.6737  -0.6591  -0.6577  -0.6522  -0.6301  -0.6196  -0.6170  -0.6042
 -0.5981  -0.5870  -0.5773  -0.5698  -0.5657  -0.5604  -0.5552  -0.5458
 -0.5350  -0.5306  -0.5222  -0.5165  -0.5157  -0.5104  -0.5045  -0.4944
 -0.4883  -0.4805  -0.4748  -0.4738  -0.4691  -0.4677  -0.4616  -0.4153
 -0.3962  -0.3853  -0.3573  -0.3505  -0.3207  -0.2935  -0.2545

          Ground-State Mulliken Net Atomic Charges

     Atom                 Charge (a.u.)
  ----------------------------------------
      1 C                    -0.189616
      2 C                    -0.254446
      3 S                    -0.022639
      4 C                    -0.015574
      5 H                     0.196135
      6 C                    -0.026047
      7 C                     0.239331
      8 C                     0.240546
      9 C                    -0.045647
     10 C                    -0.021430
     11 O                    -0.333043
     12 O                    -0.340232
     13 C                    -0.085879
     14 H                     0.122882
     15 H                     0.090802
     16 H                     0.094116
     17 C                    -0.087205
     18 H                     0.125150
     19 H                     0.094411
     20 H                     0.089759
     21 C                    -0.243839
     22 S                    -0.008829
     23 C                    -0.044653
     24 H                     0.200277
     25 H                     0.206204
     26 C                    -0.012244
     27 S                     0.091374
     28 C                    -0.176169
     29 C                     0.020995
     30 C                    -0.103724
     31 S                     0.012275
     32 C                    -0.151087
     33 C                     0.389314
     34 F                    -0.206475
     35 C                     0.445654
     36 O                    -0.460856
     37 O                    -0.300867
     38 C                    -0.058393
     39 H                     0.121271
     40 H                     0.095045
     41 H                     0.095093
     42 H                     0.218259
  ----------------------------------------
  Sum of atomic charges =     0.000000

                    Cartesian Multipole Moments
 -----------------------------------------------------------------
    Charge (ESU x 10^10)
                 0.0000
    Dipole Moment (Debye)
         X       1.2801      Y       1.1530      Z       2.8714
       Tot       3.3486
    Quadrupole Moments (Debye-Ang)
        XX    -191.3616     XY       4.3217     YY    -162.4507
        XZ       9.6048     YZ      -5.8159     ZZ    -190.0919

 Total job time:  278.94s(wall), 8699.34s(cpu)
        *  Thank you very much for using Q-Chem.  Have a nice day.  *
