 Q-Chem 5.4, Q-Chem, Inc., Pleasanton, CA (2021)
 Q-Chem 5.4.0 for Intel X86 EM64T Linux

User input:
--------------------------------------------------------------
$molecule
0 1
C	-0.254945	-8.517702	-0.194917
C	0.680596	-7.641575	0.335839
S	-1.603876	-7.638634	-0.954772
C	0.354585	-6.264785	0.147576
H	1.591356	-7.966081	0.854836
C	-0.879999	-6.072714	-0.567090
C	-1.379534	-4.787049	-0.826731
C	1.124384	-5.162801	0.618405
C	0.622407	-3.874817	0.362333
C	-0.612067	-3.683952	-0.355575
O	2.281166	-5.499772	1.253677
O	-2.542174	-4.459055	-1.463859
C	-3.060718	-5.329063	-2.462679
H	-3.841678	-4.755694	-2.997507
H	-3.530361	-6.238095	-2.027179
H	-2.274283	-5.637262	-3.185132
C	2.916545	-4.572261	2.124902
H	3.703073	-5.139743	2.657438
H	2.204417	-4.153131	2.867810
H	3.399269	-3.739531	1.568770
C	-0.936109	-2.306654	-0.540061
S	1.341474	-2.306501	0.761887
C	-0.000000	-1.435185	-0.000000
H	-1.844392	-1.978138	-1.060690
H	-0.258730	-9.614033	-0.192984
C	0.000000	0.000000	0.000000
S	0.309893	0.850039	1.507541
C	0.847011	2.328006	0.718873
C	0.310046	0.849645	-1.067872
C	0.783331	2.156746	-0.686410
S	0.229416	0.619785	-2.805516
C	0.823328	2.267711	-3.054530
C	1.063278	2.934142	-1.862551
F	1.515925	4.191824	-1.819088
C	0.978337	2.688069	-4.456084
O	0.722535	1.961921	-5.406510
O	1.433229	3.959697	-4.569225
C	1.607467	4.423139	-5.916207
H	1.977475	5.460158	-5.833064
H	0.647388	4.396602	-6.470168
H	2.339490	3.791823	-6.459293
H	1.161798	3.197007	1.306486
$end

$rem
JOBTYPE		SP
EXCHANGE	HF
CORRELATION	pRIMP2
BASIS		cc-pvtz
METHOD		rimp2
AUX_BASIS	rimp2-cc-pvtz
SOLVENT_METHOD	PCM
PURECART	11111
SYMMETRY	false
MEM_TOTAL	110000
SCF_CONVERGENCE = 6
THRESH=10
GUI = 2
$end

$solvent
dielectric 4.90
$end
--------------------------------------------------------------

             Standard Nuclear Orientation (Angstroms)
    I     Atom           X                Y                Z
 ----------------------------------------------------------------
    1      C      -0.2549450000    -8.5177020000    -0.1949170000
    2      C       0.6805960000    -7.6415750000     0.3358390000
    3      S      -1.6038760000    -7.6386340000    -0.9547720000
    4      C       0.3545850000    -6.2647850000     0.1475760000
    5      H       1.5913560000    -7.9660810000     0.8548360000
    6      C      -0.8799990000    -6.0727140000    -0.5670900000
    7      C      -1.3795340000    -4.7870490000    -0.8267310000
    8      C       1.1243840000    -5.1628010000     0.6184050000
    9      C       0.6224070000    -3.8748170000     0.3623330000
   10      C      -0.6120670000    -3.6839520000    -0.3555750000
   11      O       2.2811660000    -5.4997720000     1.2536770000
   12      O      -2.5421740000    -4.4590550000    -1.4638590000
   13      C      -3.0607180000    -5.3290630000    -2.4626790000
   14      H      -3.8416780000    -4.7556940000    -2.9975070000
   15      H      -3.5303610000    -6.2380950000    -2.0271790000
   16      H      -2.2742830000    -5.6372620000    -3.1851320000
   17      C       2.9165450000    -4.5722610000     2.1249020000
   18      H       3.7030730000    -5.1397430000     2.6574380000
   19      H       2.2044170000    -4.1531310000     2.8678100000
   20      H       3.3992690000    -3.7395310000     1.5687700000
   21      C      -0.9361090000    -2.3066540000    -0.5400610000
   22      S       1.3414740000    -2.3065010000     0.7618870000
   23      C       0.0000000000    -1.4351850000     0.0000000000
   24      H      -1.8443920000    -1.9781380000    -1.0606900000
   25      H      -0.2587300000    -9.6140330000    -0.1929840000
   26      C       0.0000000000     0.0000000000     0.0000000000
   27      S       0.3098930000     0.8500390000     1.5075410000
   28      C       0.8470110000     2.3280060000     0.7188730000
   29      C       0.3100460000     0.8496450000    -1.0678720000
   30      C       0.7833310000     2.1567460000    -0.6864100000
   31      S       0.2294160000     0.6197850000    -2.8055160000
   32      C       0.8233280000     2.2677110000    -3.0545300000
   33      C       1.0632780000     2.9341420000    -1.8625510000
   34      F       1.5159250000     4.1918240000    -1.8190880000
   35      C       0.9783370000     2.6880690000    -4.4560840000
   36      O       0.7225350000     1.9619210000    -5.4065100000
   37      O       1.4332290000     3.9596970000    -4.5692250000
   38      C       1.6074670000     4.4231390000    -5.9162070000
   39      H       1.9774750000     5.4601580000    -5.8330640000
   40      H       0.6473880000     4.3966020000    -6.4701680000
   41      H       2.3394900000     3.7918230000    -6.4592930000
   42      H       1.1617980000     3.1970070000     1.3064860000
 ----------------------------------------------------------------

   10   -2754.3084762603      7.04e-07  Convergence criterion met
 Total energy in the final basis set =    -2754.3084762603
        RIMP2         total energy =     -2759.3599837160 a.u.

                    Orbital Energies (a.u.)
 --------------------------------------------------------------

 Alpha MOs
 -- Occupied --
-92.0145 -91.9981 -91.9899 -91.9861 -26.3430 -20.6144 -20.5925 -20.5909
-20.5608 -11.4089 -11.3820 -11.3192 -11.3173 -11.3116 -11.3025 -11.2967
-11.2953 -11.2928 -11.2886 -11.2873 -11.2856 -11.2855 -11.2844 -11.2837
-11.2795 -11.2601 -11.2585 -11.2549 -11.2498  -9.0132  -8.9980  -8.9902
 -8.9860  -6.6939  -6.6933  -6.6928  -6.6790  -6.6783  -6.6772  -6.6712
 -6.6705  -6.6695  -6.6670  -6.6663  -6.6655  -1.6601  -1.4669  -1.4165
 -1.4137  -1.3695  -1.2215  -1.1940  -1.1652  -1.1359  -1.0843  -1.0516
 -1.0413  -1.0225  -1.0013  -0.9875  -0.9621  -0.9603  -0.9502  -0.9385
 -0.8957  -0.8674  -0.8508  -0.8086  -0.7956  -0.7873  -0.7864  -0.7644
 -0.7550  -0.7335  -0.7249  -0.7094  -0.7012  -0.6848  -0.6827  -0.6803
 -0.6735  -0.6590  -0.6574  -0.6523  -0.6301  -0.6197  -0.6171  -0.6046
 -0.5978  -0.5867  -0.5771  -0.5694  -0.5658  -0.5605  -0.5552  -0.5456
 -0.5347  -0.5306  -0.5225  -0.5160  -0.5154  -0.5098  -0.5041  -0.4941
 -0.4887  -0.4800  -0.4746  -0.4735  -0.4695  -0.4673  -0.4617  -0.4115
 -0.3961  -0.3859  -0.3567  -0.3505  -0.3179  -0.2954  -0.2563

          Ground-State Mulliken Net Atomic Charges

     Atom                 Charge (a.u.)
  ----------------------------------------
      1 C                    -0.188890
      2 C                    -0.254621
      3 S                    -0.022295
      4 C                    -0.014681
      5 H                     0.196162
      6 C                    -0.026367
      7 C                     0.240674
      8 C                     0.240079
      9 C                    -0.044089
     10 C                    -0.023195
     11 O                    -0.333166
     12 O                    -0.340165
     13 C                    -0.085827
     14 H                     0.122757
     15 H                     0.090846
     16 H                     0.094267
     17 C                    -0.086890
     18 H                     0.124980
     19 H                     0.094330
     20 H                     0.089902
     21 C                    -0.231916
     22 S                    -0.004345
     23 C                    -0.057632
     24 H                     0.199371
     25 H                     0.206285
     26 C                    -0.016863
     27 S                     0.098264
     28 C                    -0.178453
     29 C                     0.014967
     30 C                    -0.099983
     31 S                     0.011514
     32 C                    -0.151238
     33 C                     0.388446
     34 F                    -0.206595
     35 C                     0.445599
     36 O                    -0.461019
     37 O                    -0.300884
     38 C                    -0.058395
     39 H                     0.121220
     40 H                     0.095014
     41 H                     0.095060
     42 H                     0.217774
  ----------------------------------------
  Sum of atomic charges =     0.000000

                    Cartesian Multipole Moments
 -----------------------------------------------------------------
    Charge (ESU x 10^10)
                 0.0000
    Dipole Moment (Debye)
         X       1.2187      Y       1.0475      Z       2.8225
       Tot       3.2479
    Quadrupole Moments (Debye-Ang)
        XX    -186.9891     XY       4.6577     YY    -162.0642
        XZ      10.1565     YZ      -5.5328     ZZ    -194.5621

 Total job time:  287.54s(wall), 9021.51s(cpu)
        *  Thank you very much for using Q-Chem.  Have a nice day.  *
