 Q-Chem 5.4, Q-Chem, Inc., Pleasanton, CA (2021)
 Q-Chem 5.4.0 for Intel X86 EM64T Linux

User input:
--------------------------------------------------------------
$molecule
0 1
C	-0.306235	-8.517702	-0.095966
C	0.754415	-7.641575	0.082807
S	-1.833702	-7.638634	-0.348635
C	0.383675	-6.264785	0.017401
H	1.787757	-7.966081	0.259008
C	-1.020885	-6.072714	-0.231913
C	-1.579097	-4.787049	-0.305044
C	1.268082	-5.162801	0.196549
C	0.708796	-3.874817	0.127606
C	-0.696769	-3.683952	-0.124792
O	2.572378	-5.499772	0.397867
O	-2.889532	-4.459055	-0.506103
C	-3.718420	-5.329063	-1.267335
H	-4.635204	-4.755694	-1.502804
H	-4.010790	-6.238095	-0.697471
H	-3.226506	-5.637262	-2.215194
C	3.467415	-4.572261	0.999238
H	4.388648	-5.139743	1.230649
H	3.052323	-4.153131	1.940905
H	3.730819	-3.739531	0.311543
C	-1.064366	-2.306654	-0.187323
S	1.521154	-2.306501	0.257128
C	-0.000000	-1.435185	-0.000000
H	-2.095939	-1.978138	-0.365903
H	-0.309131	-9.614033	-0.092855
C	0.000000	0.000000	0.000000
S	0.581934	0.692785	1.507541
C	1.592155	1.897915	0.718873
C	0.581944	0.692363	-1.067872
C	1.473741	1.758764	-0.686410
S	0.427560	0.503942	-2.805516
C	1.549278	1.849357	-3.054530
C	2.002690	2.393529	-1.862551
F	2.858191	3.420549	-1.819088
C	1.838710	2.191348	-4.456084
O	1.349977	1.596481	-5.406510
O	2.701091	3.230705	-4.569225
C	3.023327	3.606605	-5.916207
H	3.725703	4.454534	-5.833064
H	2.112072	3.910035	-6.470168
H	3.495281	2.762996	-6.459293
H	2.185174	2.606846	1.306486
$end

$rem
JOBTYPE		SP
EXCHANGE	HF
CORRELATION	pRIMP2
BASIS		cc-pvtz
METHOD		rimp2
AUX_BASIS	rimp2-cc-pvtz
SOLVENT_METHOD	PCM
PURECART	11111
SYMMETRY	false
MEM_TOTAL	110000
SCF_CONVERGENCE = 6
THRESH=10
GUI = 2
$end

$solvent
dielectric 4.90
$end
--------------------------------------------------------------

             Standard Nuclear Orientation (Angstroms)
    I     Atom           X                Y                Z
 ----------------------------------------------------------------
    1      C      -0.3062350000    -8.5177020000    -0.0959660000
    2      C       0.7544150000    -7.6415750000     0.0828070000
    3      S      -1.8337020000    -7.6386340000    -0.3486350000
    4      C       0.3836750000    -6.2647850000     0.0174010000
    5      H       1.7877570000    -7.9660810000     0.2590080000
    6      C      -1.0208850000    -6.0727140000    -0.2319130000
    7      C      -1.5790970000    -4.7870490000    -0.3050440000
    8      C       1.2680820000    -5.1628010000     0.1965490000
    9      C       0.7087960000    -3.8748170000     0.1276060000
   10      C      -0.6967690000    -3.6839520000    -0.1247920000
   11      O       2.5723780000    -5.4997720000     0.3978670000
   12      O      -2.8895320000    -4.4590550000    -0.5061030000
   13      C      -3.7184200000    -5.3290630000    -1.2673350000
   14      H      -4.6352040000    -4.7556940000    -1.5028040000
   15      H      -4.0107900000    -6.2380950000    -0.6974710000
   16      H      -3.2265060000    -5.6372620000    -2.2151940000
   17      C       3.4674150000    -4.5722610000     0.9992380000
   18      H       4.3886480000    -5.1397430000     1.2306490000
   19      H       3.0523230000    -4.1531310000     1.9409050000
   20      H       3.7308190000    -3.7395310000     0.3115430000
   21      C      -1.0643660000    -2.3066540000    -0.1873230000
   22      S       1.5211540000    -2.3065010000     0.2571280000
   23      C       0.0000000000    -1.4351850000     0.0000000000
   24      H      -2.0959390000    -1.9781380000    -0.3659030000
   25      H      -0.3091310000    -9.6140330000    -0.0928550000
   26      C       0.0000000000     0.0000000000     0.0000000000
   27      S       0.5819340000     0.6927850000     1.5075410000
   28      C       1.5921550000     1.8979150000     0.7188730000
   29      C       0.5819440000     0.6923630000    -1.0678720000
   30      C       1.4737410000     1.7587640000    -0.6864100000
   31      S       0.4275600000     0.5039420000    -2.8055160000
   32      C       1.5492780000     1.8493570000    -3.0545300000
   33      C       2.0026900000     2.3935290000    -1.8625510000
   34      F       2.8581910000     3.4205490000    -1.8190880000
   35      C       1.8387100000     2.1913480000    -4.4560840000
   36      O       1.3499770000     1.5964810000    -5.4065100000
   37      O       2.7010910000     3.2307050000    -4.5692250000
   38      C       3.0233270000     3.6066050000    -5.9162070000
   39      H       3.7257030000     4.4545340000    -5.8330640000
   40      H       2.1120720000     3.9100350000    -6.4701680000
   41      H       3.4952810000     2.7629960000    -6.4592930000
   42      H       2.1851740000     2.6068460000     1.3064860000
 ----------------------------------------------------------------

   10   -2754.2867715461      8.49e-07  Convergence criterion met
 Total energy in the final basis set =    -2754.2867715461
        RIMP2         total energy =     -2759.3426503801 a.u.

                    Orbital Energies (a.u.)
 --------------------------------------------------------------

 Alpha MOs
 -- Occupied --
-92.0131 -92.0020 -91.9854 -91.9854 -26.3441 -20.6147 -20.5916 -20.5901
-20.5610 -11.4093 -11.3838 -11.3205 -11.3178 -11.3159 -11.3091 -11.2970
-11.2892 -11.2888 -11.2867 -11.2852 -11.2852 -11.2838 -11.2826 -11.2826
-11.2787 -11.2577 -11.2574 -11.2507 -11.2492  -9.0120  -9.0018  -8.9861
 -8.9853  -6.6927  -6.6920  -6.6916  -6.6828  -6.6820  -6.6810  -6.6670
 -6.6663  -6.6663  -6.6656  -6.6654  -6.6648  -1.6612  -1.4672  -1.4156
 -1.4130  -1.3698  -1.2252  -1.1923  -1.1643  -1.1372  -1.0834  -1.0502
 -1.0426  -1.0235  -0.9997  -0.9866  -0.9623  -0.9599  -0.9497  -0.9383
 -0.8946  -0.8686  -0.8475  -0.8108  -0.7936  -0.7869  -0.7848  -0.7639
 -0.7553  -0.7323  -0.7260  -0.7105  -0.7002  -0.6852  -0.6820  -0.6805
 -0.6738  -0.6583  -0.6580  -0.6517  -0.6292  -0.6190  -0.6167  -0.6063
 -0.5986  -0.5877  -0.5759  -0.5690  -0.5648  -0.5623  -0.5544  -0.5394
 -0.5334  -0.5309  -0.5215  -0.5147  -0.5144  -0.5099  -0.5034  -0.4933
 -0.4888  -0.4815  -0.4742  -0.4737  -0.4690  -0.4648  -0.4608  -0.4052
 -0.3954  -0.3853  -0.3547  -0.3514  -0.3093  -0.3031  -0.2576

          Ground-State Mulliken Net Atomic Charges

     Atom                 Charge (a.u.)
  ----------------------------------------
      1 C                    -0.190300
      2 C                    -0.254453
      3 S                    -0.023797
      4 C                    -0.015498
      5 H                     0.195933
      6 C                    -0.027927
      7 C                     0.239807
      8 C                     0.240289
      9 C                    -0.041737
     10 C                    -0.022411
     11 O                    -0.333614
     12 O                    -0.339922
     13 C                    -0.085739
     14 H                     0.122322
     15 H                     0.090620
     16 H                     0.093974
     17 C                    -0.086397
     18 H                     0.124802
     19 H                     0.093853
     20 H                     0.089698
     21 C                    -0.221617
     22 S                    -0.010238
     23 C                    -0.077620
     24 H                     0.197209
     25 H                     0.205978
     26 C                    -0.048884
     27 S                     0.113152
     28 C                    -0.160425
     29 C                     0.003280
     30 C                    -0.088198
     31 S                     0.029402
     32 C                    -0.152539
     33 C                     0.390523
     34 F                    -0.205579
     35 C                     0.447612
     36 O                    -0.461780
     37 O                    -0.301153
     38 C                    -0.058328
     39 H                     0.121253
     40 H                     0.095138
     41 H                     0.095122
     42 H                     0.218186
  ----------------------------------------
  Sum of atomic charges =     0.000000

                    Cartesian Multipole Moments
 -----------------------------------------------------------------
    Charge (ESU x 10^10)
                -0.0000
    Dipole Moment (Debye)
         X       2.3895      Y       1.2820      Z       2.6237
       Tot       3.7732
    Quadrupole Moments (Debye-Ang)
        XX    -174.2814     XY       8.2857     YY    -168.5464
        XZ       4.5669     YZ      -4.1385     ZZ    -201.7655

 Total job time:  309.70s(wall), 9910.62s(cpu)
        *  Thank you very much for using Q-Chem.  Have a nice day.  *
