 Q-Chem 5.4, Q-Chem, Inc., Pleasanton, CA (2021)
 Q-Chem 5.4.0 for Intel X86 EM64T Linux

User input:
--------------------------------------------------------------
$molecule
0 1
C	0.313191	-8.517702	-0.070009
C	-0.694746	-7.641575	0.305494
S	1.762350	-7.638634	-0.614924
C	-0.340973	-6.264785	0.176768
H	-1.677747	-7.966081	0.669571
C	1.000069	-6.072714	-0.309600
C	1.520060	-4.787049	-0.525372
C	-1.196466	-5.162801	0.463825
C	-0.677639	-3.874817	0.243888
C	0.665815	-3.683952	-0.240312
O	-2.426678	-5.499772	0.941626
O	2.755460	-4.459055	-1.006468
C	3.853913	-5.329063	-0.761666
H	4.765607	-4.755694	-1.016135
H	3.822182	-6.238095	-1.401368
H	3.901833	-5.637262	0.305161
C	-3.502489	-4.572261	0.868342
H	-4.416005	-5.139743	1.128551
H	-3.613841	-4.153131	-0.154712
H	-3.386756	-3.739531	1.595605
C	1.015430	-2.306654	-0.369957
S	-1.445922	-2.306501	0.537898
C	-0.000000	-1.435185	-0.000000
H	1.998088	-1.978138	-0.731088
H	0.314143	-9.614033	-0.074151
C	0.000000	0.000000	0.000000
S	0.581934	0.692785	1.507541
C	1.592155	1.897915	0.718873
C	0.581944	0.692363	-1.067872
C	1.473741	1.758764	-0.686410
S	0.427560	0.503942	-2.805516
C	1.549278	1.849357	-3.054530
C	2.002690	2.393529	-1.862551
F	2.858191	3.420549	-1.819088
C	1.838710	2.191348	-4.456084
O	1.349977	1.596481	-5.406510
O	2.701091	3.230705	-4.569225
C	3.023327	3.606605	-5.916207
H	3.725703	4.454534	-5.833064
H	2.112072	3.910035	-6.470168
H	3.495281	2.762996	-6.459293
H	2.185174	2.606846	1.306486
$end

$rem
JOBTYPE		SP
EXCHANGE	HF
CORRELATION	pRIMP2
BASIS		cc-pvtz
METHOD		rimp2
AUX_BASIS	rimp2-cc-pvtz
SOLVENT_METHOD	PCM
PURECART	11111
SYMMETRY	false
MEM_TOTAL	110000
SCF_CONVERGENCE = 6
THRESH=10
GUI = 2
$end

$solvent
dielectric 4.90
$end
--------------------------------------------------------------

             Standard Nuclear Orientation (Angstroms)
    I     Atom           X                Y                Z
 ----------------------------------------------------------------
    1      C       0.3131910000    -8.5177020000    -0.0700090000
    2      C      -0.6947460000    -7.6415750000     0.3054940000
    3      S       1.7623500000    -7.6386340000    -0.6149240000
    4      C      -0.3409730000    -6.2647850000     0.1767680000
    5      H      -1.6777470000    -7.9660810000     0.6695710000
    6      C       1.0000690000    -6.0727140000    -0.3096000000
    7      C       1.5200600000    -4.7870490000    -0.5253720000
    8      C      -1.1964660000    -5.1628010000     0.4638250000
    9      C      -0.6776390000    -3.8748170000     0.2438880000
   10      C       0.6658150000    -3.6839520000    -0.2403120000
   11      O      -2.4266780000    -5.4997720000     0.9416260000
   12      O       2.7554600000    -4.4590550000    -1.0064680000
   13      C       3.8539130000    -5.3290630000    -0.7616660000
   14      H       4.7656070000    -4.7556940000    -1.0161350000
   15      H       3.8221820000    -6.2380950000    -1.4013680000
   16      H       3.9018330000    -5.6372620000     0.3051610000
   17      C      -3.5024890000    -4.5722610000     0.8683420000
   18      H      -4.4160050000    -5.1397430000     1.1285510000
   19      H      -3.6138410000    -4.1531310000    -0.1547120000
   20      H      -3.3867560000    -3.7395310000     1.5956050000
   21      C       1.0154300000    -2.3066540000    -0.3699570000
   22      S      -1.4459220000    -2.3065010000     0.5378980000
   23      C       0.0000000000    -1.4351850000     0.0000000000
   24      H       1.9980880000    -1.9781380000    -0.7310880000
   25      H       0.3141430000    -9.6140330000    -0.0741510000
   26      C       0.0000000000     0.0000000000     0.0000000000
   27      S       0.5819340000     0.6927850000     1.5075410000
   28      C       1.5921550000     1.8979150000     0.7188730000
   29      C       0.5819440000     0.6923630000    -1.0678720000
   30      C       1.4737410000     1.7587640000    -0.6864100000
   31      S       0.4275600000     0.5039420000    -2.8055160000
   32      C       1.5492780000     1.8493570000    -3.0545300000
   33      C       2.0026900000     2.3935290000    -1.8625510000
   34      F       2.8581910000     3.4205490000    -1.8190880000
   35      C       1.8387100000     2.1913480000    -4.4560840000
   36      O       1.3499770000     1.5964810000    -5.4065100000
   37      O       2.7010910000     3.2307050000    -4.5692250000
   38      C       3.0233270000     3.6066050000    -5.9162070000
   39      H       3.7257030000     4.4545340000    -5.8330640000
   40      H       2.1120720000     3.9100350000    -6.4701680000
   41      H       3.4952810000     2.7629960000    -6.4592930000
   42      H       2.1851740000     2.6068460000     1.3064860000
 ----------------------------------------------------------------

   10   -2754.2873865596      9.19e-07  Convergence criterion met
 Total energy in the final basis set =    -2754.2873865596
        RIMP2         total energy =     -2759.3434231696 a.u.

                    Orbital Energies (a.u.)
 --------------------------------------------------------------

 Alpha MOs
 -- Occupied --
-92.0134 -92.0014 -91.9851 -91.9840 -26.3441 -20.6147 -20.5913 -20.5900
-20.5610 -11.4093 -11.3836 -11.3210 -11.3175 -11.3155 -11.3091 -11.2970
-11.2913 -11.2888 -11.2861 -11.2854 -11.2853 -11.2828 -11.2827 -11.2826
-11.2782 -11.2588 -11.2567 -11.2515 -11.2490  -9.0123  -9.0012  -8.9850
 -8.9847  -6.6929  -6.6922  -6.6918  -6.6822  -6.6814  -6.6804  -6.6660
 -6.6656  -6.6654  -6.6649  -6.6646  -6.6640  -1.6612  -1.4672  -1.4153
 -1.4128  -1.3699  -1.2248  -1.1921  -1.1640  -1.1370  -1.0837  -1.0500
 -1.0428  -1.0234  -0.9991  -0.9867  -0.9623  -0.9592  -0.9493  -0.9392
 -0.8938  -0.8685  -0.8468  -0.8098  -0.7955  -0.7879  -0.7848  -0.7634
 -0.7553  -0.7322  -0.7260  -0.7106  -0.7005  -0.6851  -0.6817  -0.6806
 -0.6739  -0.6583  -0.6576  -0.6516  -0.6288  -0.6189  -0.6162  -0.6064
 -0.5988  -0.5853  -0.5739  -0.5700  -0.5658  -0.5618  -0.5538  -0.5497
 -0.5309  -0.5261  -0.5221  -0.5155  -0.5135  -0.5085  -0.5038  -0.4941
 -0.4877  -0.4815  -0.4746  -0.4734  -0.4682  -0.4644  -0.4594  -0.4059
 -0.3944  -0.3855  -0.3582  -0.3474  -0.3174  -0.2978  -0.2550

          Ground-State Mulliken Net Atomic Charges

     Atom                 Charge (a.u.)
  ----------------------------------------
      1 C                    -0.191330
      2 C                    -0.254231
      3 S                    -0.024599
      4 C                    -0.017734
      5 H                     0.195902
      6 C                    -0.027954
      7 C                     0.238272
      8 C                     0.244039
      9 C                    -0.048588
     10 C                    -0.017564
     11 O                    -0.333715
     12 O                    -0.340517
     13 C                    -0.085708
     14 H                     0.122003
     15 H                     0.091091
     16 H                     0.093270
     17 C                    -0.086610
     18 H                     0.124618
     19 H                     0.094473
     20 H                     0.089375
     21 C                    -0.226663
     22 S                    -0.015502
     23 C                    -0.017132
     24 H                     0.198042
     25 H                     0.205791
     26 C                    -0.074298
     27 S                     0.116739
     28 C                    -0.162534
     29 C                    -0.040368
     30 C                    -0.075973
     31 S                     0.038213
     32 C                    -0.152735
     33 C                     0.391657
     34 F                    -0.206000
     35 C                     0.446979
     36 O                    -0.461678
     37 O                    -0.301140
     38 C                    -0.058349
     39 H                     0.121259
     40 H                     0.095201
     41 H                     0.095102
     42 H                     0.218896
  ----------------------------------------
  Sum of atomic charges =     0.000000

                    Cartesian Multipole Moments
 -----------------------------------------------------------------
    Charge (ESU x 10^10)
                 0.0000
    Dipole Moment (Debye)
         X       2.2465      Y       1.4194      Z       3.0915
       Tot       4.0766
    Quadrupole Moments (Debye-Ang)
        XX    -170.7398     XY       7.7027     YY    -169.6248
        XZ      -7.2599     YZ      -6.7344     ZZ    -205.5685

 Total job time:  298.67s(wall), 9032.89s(cpu)
        *  Thank you very much for using Q-Chem.  Have a nice day.  *
