 Q-Chem 5.4, Q-Chem, Inc., Pleasanton, CA (2021)
 Q-Chem 5.4.0 for Intel X86 EM64T Linux

User input:
--------------------------------------------------------------
$molecule
0 1
C	0.041330	-8.517702	-0.318247
C	0.049453	-7.641575	0.757333
S	0.024919	-7.638634	-1.866383
C	0.049488	-6.264785	0.380867
H	0.055368	-7.966081	1.805573
C	0.051115	-6.072714	-1.045647
C	0.026203	-4.787049	-1.608077
C	0.026637	-5.162801	1.282948
C	-0.002586	-3.874817	0.720187
C	0.001903	-3.683952	-0.707853
O	0.054867	-5.499772	2.602386
O	-0.003348	-4.459055	-2.933517
C	0.602384	-5.329063	-3.881999
H	0.675079	-4.755694	-4.825744
H	-0.009592	-6.238095	-4.070972
H	1.621263	-5.637262	-3.562152
C	-0.381947	-4.572261	3.588253
H	-0.449872	-5.139743	4.535674
H	-1.381388	-4.153131	3.342986
H	0.341040	-3.739531	3.728239
C	-0.000348	-2.306654	-1.080725
S	0.010924	-2.306501	1.542694
C	-0.000000	-1.435185	-0.000000
H	-0.003612	-1.978138	-2.127635
H	0.037764	-9.614033	-0.320559
C	0.000000	0.000000	0.000000
S	0.079327	0.901280	1.507541
C	0.215617	2.467903	0.718873
C	0.079577	0.900940	-1.067872
C	0.198433	2.285998	-0.686410
S	0.061187	0.658044	-2.805516
C	0.208347	2.403534	-3.054530
C	0.267636	3.109360	-1.862551
F	0.379347	4.441341	-1.819088
C	0.249278	2.849688	-4.456084
O	0.190132	2.082076	-5.406510
O	0.359548	4.195721	-4.569225
C	0.407901	4.688467	-5.916207
H	0.496901	5.785916	-5.833064
H	-0.512596	4.414348	-6.470168
H	1.278377	4.268124	-6.459293
H	0.294764	3.388767	1.306486
$end

$rem
JOBTYPE		SP
EXCHANGE	HF
CORRELATION	pRIMP2
BASIS		cc-pvtz
METHOD		rimp2
AUX_BASIS	rimp2-cc-pvtz
SOLVENT_METHOD	PCM
PURECART	11111
SYMMETRY	false
MEM_TOTAL	110000
SCF_CONVERGENCE = 6
THRESH=10
GUI = 2
$end

$solvent
dielectric 4.90
$end
--------------------------------------------------------------

             Standard Nuclear Orientation (Angstroms)
    I     Atom           X                Y                Z
 ----------------------------------------------------------------
    1      C       0.0413300000    -8.5177020000    -0.3182470000
    2      C       0.0494530000    -7.6415750000     0.7573330000
    3      S       0.0249190000    -7.6386340000    -1.8663830000
    4      C       0.0494880000    -6.2647850000     0.3808670000
    5      H       0.0553680000    -7.9660810000     1.8055730000
    6      C       0.0511150000    -6.0727140000    -1.0456470000
    7      C       0.0262030000    -4.7870490000    -1.6080770000
    8      C       0.0266370000    -5.1628010000     1.2829480000
    9      C      -0.0025860000    -3.8748170000     0.7201870000
   10      C       0.0019030000    -3.6839520000    -0.7078530000
   11      O       0.0548670000    -5.4997720000     2.6023860000
   12      O      -0.0033480000    -4.4590550000    -2.9335170000
   13      C       0.6023840000    -5.3290630000    -3.8819990000
   14      H       0.6750790000    -4.7556940000    -4.8257440000
   15      H      -0.0095920000    -6.2380950000    -4.0709720000
   16      H       1.6212630000    -5.6372620000    -3.5621520000
   17      C      -0.3819470000    -4.5722610000     3.5882530000
   18      H      -0.4498720000    -5.1397430000     4.5356740000
   19      H      -1.3813880000    -4.1531310000     3.3429860000
   20      H       0.3410400000    -3.7395310000     3.7282390000
   21      C      -0.0003480000    -2.3066540000    -1.0807250000
   22      S       0.0109240000    -2.3065010000     1.5426940000
   23      C       0.0000000000    -1.4351850000     0.0000000000
   24      H      -0.0036120000    -1.9781380000    -2.1276350000
   25      H       0.0377640000    -9.6140330000    -0.3205590000
   26      C       0.0000000000     0.0000000000     0.0000000000
   27      S       0.0793270000     0.9012800000     1.5075410000
   28      C       0.2156170000     2.4679030000     0.7188730000
   29      C       0.0795770000     0.9009400000    -1.0678720000
   30      C       0.1984330000     2.2859980000    -0.6864100000
   31      S       0.0611870000     0.6580440000    -2.8055160000
   32      C       0.2083470000     2.4035340000    -3.0545300000
   33      C       0.2676360000     3.1093600000    -1.8625510000
   34      F       0.3793470000     4.4413410000    -1.8190880000
   35      C       0.2492780000     2.8496880000    -4.4560840000
   36      O       0.1901320000     2.0820760000    -5.4065100000
   37      O       0.3595480000     4.1957210000    -4.5692250000
   38      C       0.4079010000     4.6884670000    -5.9162070000
   39      H       0.4969010000     5.7859160000    -5.8330640000
   40      H      -0.5125960000     4.4143480000    -6.4701680000
   41      H       1.2783770000     4.2681240000    -6.4592930000
   42      H       0.2947640000     3.3887670000     1.3064860000
 ----------------------------------------------------------------

   10   -2754.3160339026      7.66e-07  Convergence criterion met
 Total energy in the final basis set =    -2754.3160339026
        RIMP2         total energy =     -2759.3689079038 a.u.

                    Orbital Energies (a.u.)
 --------------------------------------------------------------

 Alpha MOs
 -- Occupied --
-92.0165 -91.9999 -91.9914 -91.9865 -26.3437 -20.6149 -20.5931 -20.5910
-20.5614 -11.4096 -11.3831 -11.3203 -11.3176 -11.3104 -11.3023 -11.2996
-11.2980 -11.2979 -11.2888 -11.2879 -11.2873 -11.2861 -11.2854 -11.2844
-11.2796 -11.2626 -11.2589 -11.2564 -11.2501  -9.0152  -8.9999  -8.9921
 -8.9864  -6.6960  -6.6955  -6.6949  -6.6809  -6.6802  -6.6791  -6.6731
 -6.6724  -6.6714  -6.6674  -6.6667  -6.6659  -1.6607  -1.4674  -1.4172
 -1.4138  -1.3701  -1.2224  -1.1954  -1.1666  -1.1371  -1.0860  -1.0526
 -1.0423  -1.0240  -1.0023  -0.9890  -0.9645  -0.9600  -0.9507  -0.9396
 -0.8969  -0.8684  -0.8528  -0.8087  -0.7995  -0.7886  -0.7862  -0.7645
 -0.7556  -0.7348  -0.7255  -0.7103  -0.7023  -0.6862  -0.6838  -0.6811
 -0.6740  -0.6596  -0.6590  -0.6525  -0.6312  -0.6200  -0.6171  -0.6019
 -0.5985  -0.5850  -0.5799  -0.5714  -0.5650  -0.5612  -0.5553  -0.5509
 -0.5361  -0.5304  -0.5238  -0.5204  -0.5171  -0.5115  -0.5056  -0.4958
 -0.4875  -0.4816  -0.4776  -0.4742  -0.4699  -0.4654  -0.4601  -0.4280
 -0.3968  -0.3845  -0.3616  -0.3487  -0.3283  -0.2892  -0.2502

          Ground-State Mulliken Net Atomic Charges

     Atom                 Charge (a.u.)
  ----------------------------------------
      1 C                    -0.189172
      2 C                    -0.254660
      3 S                    -0.021494
      4 C                    -0.016797
      5 H                     0.196293
      6 C                    -0.027372
      7 C                     0.248116
      8 C                     0.242563
      9 C                    -0.037402
     10 C                    -0.034034
     11 O                    -0.332815
     12 O                    -0.340802
     13 C                    -0.086674
     14 H                     0.123737
     15 H                     0.091771
     16 H                     0.093901
     17 C                    -0.088907
     18 H                     0.126274
     19 H                     0.095112
     20 H                     0.089526
     21 C                    -0.208161
     22 S                    -0.044699
     23 C                    -0.018640
     24 H                     0.188351
     25 H                     0.206397
     26 C                     0.005447
     27 S                     0.076230
     28 C                    -0.187919
     29 C                     0.041237
     30 C                    -0.133303
     31 S                     0.003463
     32 C                    -0.164165
     33 C                     0.409670
     34 F                    -0.206619
     35 C                     0.443164
     36 O                    -0.461334
     37 O                    -0.300697
     38 C                    -0.058755
     39 H                     0.121543
     40 H                     0.095304
     41 H                     0.095155
     42 H                     0.221168
  ----------------------------------------
  Sum of atomic charges =     0.000000

                    Cartesian Multipole Moments
 -----------------------------------------------------------------
    Charge (ESU x 10^10)
                 0.0000
    Dipole Moment (Debye)
         X       0.4874      Y       1.1279      Z       3.1123
       Tot       3.3460
    Quadrupole Moments (Debye-Ang)
        XX    -200.8023     XY       0.0167     YY    -159.0952
        XZ      -6.3303     YZ      -7.4183     ZZ    -182.2578

 Total job time:  278.80s(wall), 9242.28s(cpu)
        *  Thank you very much for using Q-Chem.  Have a nice day.  *
