 Q-Chem 5.4, Q-Chem, Inc., Pleasanton, CA (2021)
 Q-Chem 5.4.0 for Intel X86 EM64T Linux

User input:
--------------------------------------------------------------
$molecule
0 1
C	-0.095966	-8.517702	0.306235
C	0.082807	-7.641575	-0.754415
S	-0.348635	-7.638634	1.833702
C	0.017401	-6.264785	-0.383675
H	0.259008	-7.966081	-1.787757
C	-0.231913	-6.072714	1.020885
C	-0.305044	-4.787049	1.579097
C	0.196549	-5.162801	-1.268082
C	0.127606	-3.874817	-0.708796
C	-0.124792	-3.683952	0.696769
O	0.397867	-5.499772	-2.572378
O	-0.506103	-4.459055	2.889532
C	-1.267335	-5.329063	3.718420
H	-1.502804	-4.755694	4.635204
H	-0.697471	-6.238095	4.010790
H	-2.215194	-5.637262	3.226506
C	0.999238	-4.572261	-3.467415
H	1.230649	-5.139743	-4.388648
H	1.940905	-4.153131	-3.052323
H	0.311543	-3.739531	-3.730819
C	-0.187323	-2.306654	1.064366
S	0.257128	-2.306501	-1.521154
C	-0.000000	-1.435185	-0.000000
H	-0.365903	-1.978138	2.095939
H	-0.092855	-9.614033	0.309131
C	0.000000	0.000000	0.000000
S	0.382799	0.819795	1.507541
C	1.046687	2.245325	0.718873
C	0.382918	0.819389	-1.067872
C	0.968323	2.080267	-0.686410
S	0.282561	0.597432	-2.805516
C	1.017839	2.187324	-3.054530
C	1.314960	2.830306	-1.862551
F	1.875498	4.043751	-1.819088
C	1.208895	2.592573	-4.456084
O	0.890778	1.891482	-5.406510
O	1.772886	3.819715	-4.569225
C	1.986852	4.266207	-5.916207
H	2.445834	5.267032	-5.833064
H	1.028114	4.323448	-6.470168
H	2.661066	3.573494	-6.459293
H	1.436015	3.083584	1.306486
$end

$rem
JOBTYPE		SP
EXCHANGE	HF
CORRELATION	pRIMP2
BASIS		cc-pvtz
METHOD		rimp2
AUX_BASIS	rimp2-cc-pvtz
SOLVENT_METHOD	PCM
PURECART	11111
SYMMETRY	false
MEM_TOTAL	110000
SCF_CONVERGENCE = 6
THRESH=10
GUI = 2
$end

$solvent
dielectric 4.90
$end
--------------------------------------------------------------

             Standard Nuclear Orientation (Angstroms)
    I     Atom           X                Y                Z
 ----------------------------------------------------------------
    1      C      -0.0959660000    -8.5177020000     0.3062350000
    2      C       0.0828070000    -7.6415750000    -0.7544150000
    3      S      -0.3486350000    -7.6386340000     1.8337020000
    4      C       0.0174010000    -6.2647850000    -0.3836750000
    5      H       0.2590080000    -7.9660810000    -1.7877570000
    6      C      -0.2319130000    -6.0727140000     1.0208850000
    7      C      -0.3050440000    -4.7870490000     1.5790970000
    8      C       0.1965490000    -5.1628010000    -1.2680820000
    9      C       0.1276060000    -3.8748170000    -0.7087960000
   10      C      -0.1247920000    -3.6839520000     0.6967690000
   11      O       0.3978670000    -5.4997720000    -2.5723780000
   12      O      -0.5061030000    -4.4590550000     2.8895320000
   13      C      -1.2673350000    -5.3290630000     3.7184200000
   14      H      -1.5028040000    -4.7556940000     4.6352040000
   15      H      -0.6974710000    -6.2380950000     4.0107900000
   16      H      -2.2151940000    -5.6372620000     3.2265060000
   17      C       0.9992380000    -4.5722610000    -3.4674150000
   18      H       1.2306490000    -5.1397430000    -4.3886480000
   19      H       1.9409050000    -4.1531310000    -3.0523230000
   20      H       0.3115430000    -3.7395310000    -3.7308190000
   21      C      -0.1873230000    -2.3066540000     1.0643660000
   22      S       0.2571280000    -2.3065010000    -1.5211540000
   23      C       0.0000000000    -1.4351850000     0.0000000000
   24      H      -0.3659030000    -1.9781380000     2.0959390000
   25      H      -0.0928550000    -9.6140330000     0.3091310000
   26      C       0.0000000000     0.0000000000     0.0000000000
   27      S       0.3827990000     0.8197950000     1.5075410000
   28      C       1.0466870000     2.2453250000     0.7188730000
   29      C       0.3829180000     0.8193890000    -1.0678720000
   30      C       0.9683230000     2.0802670000    -0.6864100000
   31      S       0.2825610000     0.5974320000    -2.8055160000
   32      C       1.0178390000     2.1873240000    -3.0545300000
   33      C       1.3149600000     2.8303060000    -1.8625510000
   34      F       1.8754980000     4.0437510000    -1.8190880000
   35      C       1.2088950000     2.5925730000    -4.4560840000
   36      O       0.8907780000     1.8914820000    -5.4065100000
   37      O       1.7728860000     3.8197150000    -4.5692250000
   38      C       1.9868520000     4.2662070000    -5.9162070000
   39      H       2.4458340000     5.2670320000    -5.8330640000
   40      H       1.0281140000     4.3234480000    -6.4701680000
   41      H       2.6610660000     3.5734940000    -6.4592930000
   42      H       1.4360150000     3.0835840000     1.3064860000
 ----------------------------------------------------------------

   10   -2754.3035323929      7.40e-07  Convergence criterion met
 Total energy in the final basis set =    -2754.3035323929
        RIMP2         total energy =     -2759.3600654209 a.u.

                    Orbital Energies (a.u.)
 --------------------------------------------------------------

 Alpha MOs
 -- Occupied --
-92.0150 -92.0010 -91.9893 -91.9852 -26.3442 -20.6151 -20.5919 -20.5901
-20.5617 -11.4099 -11.3838 -11.3192 -11.3160 -11.3148 -11.3050 -11.2980
-11.2979 -11.2970 -11.2891 -11.2867 -11.2863 -11.2855 -11.2840 -11.2833
-11.2777 -11.2611 -11.2563 -11.2502 -11.2492  -9.0138  -9.0011  -8.9900
 -8.9852  -6.6945  -6.6939  -6.6934  -6.6821  -6.6813  -6.6802  -6.6709
 -6.6703  -6.6693  -6.6662  -6.6655  -6.6647  -1.6613  -1.4676  -1.4159
 -1.4129  -1.3704  -1.2248  -1.1934  -1.1652  -1.1375  -1.0858  -1.0510
 -1.0424  -1.0253  -1.0011  -0.9877  -0.9648  -0.9578  -0.9493  -0.9415
 -0.8950  -0.8692  -0.8502  -0.8162  -0.7926  -0.7873  -0.7845  -0.7645
 -0.7557  -0.7330  -0.7261  -0.7109  -0.6985  -0.6861  -0.6830  -0.6820
 -0.6742  -0.6591  -0.6581  -0.6518  -0.6305  -0.6190  -0.6161  -0.6038
 -0.5986  -0.5836  -0.5795  -0.5690  -0.5672  -0.5601  -0.5569  -0.5526
 -0.5327  -0.5292  -0.5240  -0.5195  -0.5172  -0.5115  -0.5059  -0.4946
 -0.4864  -0.4799  -0.4769  -0.4749  -0.4701  -0.4627  -0.4582  -0.4264
 -0.3925  -0.3848  -0.3602  -0.3526  -0.3247  -0.2908  -0.2471

          Ground-State Mulliken Net Atomic Charges

     Atom                 Charge (a.u.)
  ----------------------------------------
      1 C                    -0.193229
      2 C                    -0.253274
      3 S                    -0.024713
      4 C                    -0.020602
      5 H                     0.196083
      6 C                    -0.026275
      7 C                     0.233877
      8 C                     0.245370
      9 C                    -0.040237
     10 C                    -0.011013
     11 O                    -0.332837
     12 O                    -0.341303
     13 C                    -0.085550
     14 H                     0.121781
     15 H                     0.090825
     16 H                     0.093654
     17 C                    -0.089571
     18 H                     0.126000
     19 H                     0.094955
     20 H                     0.090886
     21 C                    -0.274274
     22 S                    -0.040071
     23 C                     0.019629
     24 H                     0.186123
     25 H                     0.205742
     26 C                     0.028264
     27 S                     0.101523
     28 C                    -0.181461
     29 C                    -0.029228
     30 C                    -0.105915
     31 S                     0.020572
     32 C                    -0.167139
     33 C                     0.411767
     34 F                    -0.206005
     35 C                     0.444630
     36 O                    -0.461080
     37 O                    -0.300953
     38 C                    -0.058469
     39 H                     0.121525
     40 H                     0.095255
     41 H                     0.095116
     42 H                     0.219622
  ----------------------------------------
  Sum of atomic charges =     0.000000

                    Cartesian Multipole Moments
 -----------------------------------------------------------------
    Charge (ESU x 10^10)
                 0.0000
    Dipole Moment (Debye)
         X       1.1976      Y       1.7260      Z       2.4925
       Tot       3.2597
    Quadrupole Moments (Debye-Ang)
        XX    -195.2327     XY       7.5854     YY    -165.8625
        XZ     -12.3090     YZ      -5.7979     ZZ    -184.7035

 Total job time:  313.09s(wall), 10073.19s(cpu)
        *  Thank you very much for using Q-Chem.  Have a nice day.  *
