 Q-Chem 5.4, Q-Chem, Inc., Pleasanton, CA (2021)
 Q-Chem 5.4.0 for Intel X86 EM64T Linux

User input:
--------------------------------------------------------------
$molecule
0 1
C	0.313191	-8.517702	-0.070009
C	-0.694746	-7.641575	0.305494
S	1.762350	-7.638634	-0.614924
C	-0.340973	-6.264785	0.176768
H	-1.677747	-7.966081	0.669571
C	1.000069	-6.072714	-0.309600
C	1.520060	-4.787049	-0.525372
C	-1.196466	-5.162801	0.463825
C	-0.677639	-3.874817	0.243888
C	0.665815	-3.683952	-0.240312
O	-2.426678	-5.499772	0.941626
O	2.755460	-4.459055	-1.006468
C	3.853913	-5.329063	-0.761666
H	4.765607	-4.755694	-1.016135
H	3.822182	-6.238095	-1.401368
H	3.901833	-5.637262	0.305161
C	-3.502489	-4.572261	0.868342
H	-4.416005	-5.139743	1.128551
H	-3.613841	-4.153131	-0.154712
H	-3.386756	-3.739531	1.595605
C	1.015430	-2.306654	-0.369957
S	-1.445922	-2.306501	0.537898
C	-0.000000	-1.435185	-0.000000
H	1.998088	-1.978138	-0.731088
H	0.314143	-9.614033	-0.074151
C	0.000000	0.000000	0.000000
S	0.452792	0.783312	1.507541
C	1.238397	2.145556	0.718873
C	0.452875	0.782898	-1.067872
C	1.145945	1.987956	-0.686410
S	0.333556	0.570531	-2.805516
C	1.204604	2.090290	-3.054530
C	1.556633	2.704929	-1.862551
F	2.220797	3.864903	-1.819088
C	1.430252	2.477345	-4.456084
O	1.052242	1.806648	-5.406510
O	2.099050	3.650663	-4.569225
C	2.351116	4.076808	-5.916207
H	2.895579	5.033821	-5.833064
H	1.401015	4.217390	-6.470168
H	2.962391	3.327969	-6.459293
H	1.699302	2.946693	1.306486
$end

$rem
JOBTYPE		SP
EXCHANGE	HF
CORRELATION	pRIMP2
BASIS		cc-pvtz
METHOD		rimp2
AUX_BASIS	rimp2-cc-pvtz
SOLVENT_METHOD	PCM
PURECART	11111
SYMMETRY	false
MEM_TOTAL	110000
SCF_CONVERGENCE = 6
THRESH=10
GUI = 2
$end

$solvent
dielectric 4.90
$end
--------------------------------------------------------------

             Standard Nuclear Orientation (Angstroms)
    I     Atom           X                Y                Z
 ----------------------------------------------------------------
    1      C       0.3131910000    -8.5177020000    -0.0700090000
    2      C      -0.6947460000    -7.6415750000     0.3054940000
    3      S       1.7623500000    -7.6386340000    -0.6149240000
    4      C      -0.3409730000    -6.2647850000     0.1767680000
    5      H      -1.6777470000    -7.9660810000     0.6695710000
    6      C       1.0000690000    -6.0727140000    -0.3096000000
    7      C       1.5200600000    -4.7870490000    -0.5253720000
    8      C      -1.1964660000    -5.1628010000     0.4638250000
    9      C      -0.6776390000    -3.8748170000     0.2438880000
   10      C       0.6658150000    -3.6839520000    -0.2403120000
   11      O      -2.4266780000    -5.4997720000     0.9416260000
   12      O       2.7554600000    -4.4590550000    -1.0064680000
   13      C       3.8539130000    -5.3290630000    -0.7616660000
   14      H       4.7656070000    -4.7556940000    -1.0161350000
   15      H       3.8221820000    -6.2380950000    -1.4013680000
   16      H       3.9018330000    -5.6372620000     0.3051610000
   17      C      -3.5024890000    -4.5722610000     0.8683420000
   18      H      -4.4160050000    -5.1397430000     1.1285510000
   19      H      -3.6138410000    -4.1531310000    -0.1547120000
   20      H      -3.3867560000    -3.7395310000     1.5956050000
   21      C       1.0154300000    -2.3066540000    -0.3699570000
   22      S      -1.4459220000    -2.3065010000     0.5378980000
   23      C       0.0000000000    -1.4351850000     0.0000000000
   24      H       1.9980880000    -1.9781380000    -0.7310880000
   25      H       0.3141430000    -9.6140330000    -0.0741510000
   26      C       0.0000000000     0.0000000000     0.0000000000
   27      S       0.4527920000     0.7833120000     1.5075410000
   28      C       1.2383970000     2.1455560000     0.7188730000
   29      C       0.4528750000     0.7828980000    -1.0678720000
   30      C       1.1459450000     1.9879560000    -0.6864100000
   31      S       0.3335560000     0.5705310000    -2.8055160000
   32      C       1.2046040000     2.0902900000    -3.0545300000
   33      C       1.5566330000     2.7049290000    -1.8625510000
   34      F       2.2207970000     3.8649030000    -1.8190880000
   35      C       1.4302520000     2.4773450000    -4.4560840000
   36      O       1.0522420000     1.8066480000    -5.4065100000
   37      O       2.0990500000     3.6506630000    -4.5692250000
   38      C       2.3511160000     4.0768080000    -5.9162070000
   39      H       2.8955790000     5.0338210000    -5.8330640000
   40      H       1.4010150000     4.2173900000    -6.4701680000
   41      H       2.9623910000     3.3279690000    -6.4592930000
   42      H       1.6993020000     2.9466930000     1.3064860000
 ----------------------------------------------------------------

   10   -2754.2993606247      8.15e-07  Convergence criterion met
 Total energy in the final basis set =    -2754.2993606247
        RIMP2         total energy =     -2759.3526883261 a.u.

                    Orbital Energies (a.u.)
 --------------------------------------------------------------

 Alpha MOs
 -- Occupied --
-92.0137 -91.9991 -91.9860 -91.9857 -26.3433 -20.6144 -20.5918 -20.5907
-20.5608 -11.4090 -11.3825 -11.3183 -11.3169 -11.3156 -11.3050 -11.2967
-11.2917 -11.2890 -11.2886 -11.2865 -11.2857 -11.2844 -11.2843 -11.2833
-11.2791 -11.2597 -11.2579 -11.2547 -11.2495  -9.0124  -8.9990  -8.9866
 -8.9857  -6.6931  -6.6925  -6.6920  -6.6800  -6.6793  -6.6782  -6.6675
 -6.6668  -6.6667  -6.6660  -6.6659  -6.6652  -1.6604  -1.4669  -1.4159
 -1.4135  -1.3696  -1.2224  -1.1932  -1.1645  -1.1360  -1.0839  -1.0509
 -1.0418  -1.0226  -1.0002  -0.9871  -0.9618  -0.9599  -0.9497  -0.9390
 -0.8946  -0.8676  -0.8487  -0.8090  -0.7954  -0.7879  -0.7856  -0.7640
 -0.7550  -0.7330  -0.7253  -0.7097  -0.7008  -0.6848  -0.6822  -0.6804
 -0.6736  -0.6587  -0.6573  -0.6521  -0.6294  -0.6195  -0.6166  -0.6055
 -0.5980  -0.5846  -0.5752  -0.5704  -0.5661  -0.5616  -0.5536  -0.5510
 -0.5307  -0.5281  -0.5231  -0.5157  -0.5142  -0.5083  -0.5040  -0.4945
 -0.4883  -0.4804  -0.4747  -0.4732  -0.4687  -0.4655  -0.4601  -0.4069
 -0.3953  -0.3863  -0.3578  -0.3481  -0.3173  -0.2970  -0.2563

          Ground-State Mulliken Net Atomic Charges

     Atom                 Charge (a.u.)
  ----------------------------------------
      1 C                    -0.189678
      2 C                    -0.254233
      3 S                    -0.023177
      4 C                    -0.016664
      5 H                     0.196113
      6 C                    -0.028893
      7 C                     0.240380
      8 C                     0.244452
      9 C                    -0.051133
     10 C                    -0.017177
     11 O                    -0.333672
     12 O                    -0.339983
     13 C                    -0.085711
     14 H                     0.122377
     15 H                     0.091183
     16 H                     0.093504
     17 C                    -0.086418
     18 H                     0.124660
     19 H                     0.094681
     20 H                     0.089321
     21 C                    -0.212928
     22 S                    -0.008248
     23 C                    -0.024661
     24 H                     0.199559
     25 H                     0.206130
     26 C                    -0.055412
     27 S                     0.112405
     28 C                    -0.176372
     29 C                    -0.045122
     30 C                    -0.077171
     31 S                     0.026135
     32 C                    -0.153712
     33 C                     0.390701
     34 F                    -0.206507
     35 C                     0.446510
     36 O                    -0.461411
     37 O                    -0.301023
     38 C                    -0.058398
     39 H                     0.121253
     40 H                     0.095109
     41 H                     0.095042
     42 H                     0.218189
  ----------------------------------------
  Sum of atomic charges =     0.000000

                    Cartesian Multipole Moments
 -----------------------------------------------------------------
    Charge (ESU x 10^10)
                 0.0000
    Dipole Moment (Debye)
         X       1.6296      Y       1.1855      Z       3.1754
       Tot       3.7609
    Quadrupole Moments (Debye-Ang)
        XX    -173.3659     XY       6.2729     YY    -165.2233
        XZ      -6.3419     YZ      -7.4346     ZZ    -206.0202

 Total job time:  278.36s(wall), 8552.53s(cpu)
        *  Thank you very much for using Q-Chem.  Have a nice day.  *
