 Q-Chem 5.4, Q-Chem, Inc., Pleasanton, CA (2021)
 Q-Chem 5.4.0 for Intel X86 EM64T Linux

User input:
--------------------------------------------------------------
$molecule
0 1
C	-0.318247	-8.517702	-0.041330
C	0.757333	-7.641575	-0.049453
S	-1.866383	-7.638634	-0.024919
C	0.380867	-6.264785	-0.049488
H	1.805573	-7.966081	-0.055368
C	-1.045647	-6.072714	-0.051115
C	-1.608077	-4.787049	-0.026203
C	1.282948	-5.162801	-0.026637
C	0.720187	-3.874817	0.002586
C	-0.707853	-3.683952	-0.001903
O	2.602386	-5.499772	-0.054867
O	-2.933517	-4.459055	0.003348
C	-3.881999	-5.329063	-0.602384
H	-4.825744	-4.755694	-0.675079
H	-4.070972	-6.238095	0.009592
H	-3.562152	-5.637262	-1.621263
C	3.588253	-4.572261	0.381947
H	4.535674	-5.139743	0.449872
H	3.342986	-4.153131	1.381388
H	3.728239	-3.739531	-0.341040
C	-1.080725	-2.306654	0.000348
S	1.542694	-2.306501	-0.010924
C	-0.000000	-1.435185	-0.000000
H	-2.127635	-1.978138	0.003612
H	-0.320559	-9.614033	-0.037764
C	0.000000	0.000000	0.000000
S	0.157577	0.890937	1.507541
C	0.429889	2.439720	0.718873
C	0.157797	0.890576	-1.067872
C	0.396915	2.260004	-0.686410
S	0.118307	0.650207	-2.805516
C	0.417036	2.376229	-3.054530
C	0.537616	3.074202	-1.862551
F	0.764992	4.391378	-1.819088
C	0.496696	2.817118	-4.456084
O	0.370874	2.057582	-5.406510
O	0.723861	4.148418	-4.569225
C	0.814976	4.635075	-5.916207
H	0.999286	5.720591	-5.833064
H	-0.125909	4.442226	-6.470168
H	1.645504	4.140465	-6.459293
H	0.588993	3.350182	1.306486
$end

$rem
JOBTYPE		SP
EXCHANGE	HF
CORRELATION	pRIMP2
BASIS		cc-pvtz
METHOD		rimp2
AUX_BASIS	rimp2-cc-pvtz
SOLVENT_METHOD	PCM
PURECART	11111
SYMMETRY	false
MEM_TOTAL	110000
SCF_CONVERGENCE = 6
THRESH=10
GUI = 2
$end

$solvent
dielectric 4.90
$end
--------------------------------------------------------------

             Standard Nuclear Orientation (Angstroms)
    I     Atom           X                Y                Z
 ----------------------------------------------------------------
    1      C      -0.3182470000    -8.5177020000    -0.0413300000
    2      C       0.7573330000    -7.6415750000    -0.0494530000
    3      S      -1.8663830000    -7.6386340000    -0.0249190000
    4      C       0.3808670000    -6.2647850000    -0.0494880000
    5      H       1.8055730000    -7.9660810000    -0.0553680000
    6      C      -1.0456470000    -6.0727140000    -0.0511150000
    7      C      -1.6080770000    -4.7870490000    -0.0262030000
    8      C       1.2829480000    -5.1628010000    -0.0266370000
    9      C       0.7201870000    -3.8748170000     0.0025860000
   10      C      -0.7078530000    -3.6839520000    -0.0019030000
   11      O       2.6023860000    -5.4997720000    -0.0548670000
   12      O      -2.9335170000    -4.4590550000     0.0033480000
   13      C      -3.8819990000    -5.3290630000    -0.6023840000
   14      H      -4.8257440000    -4.7556940000    -0.6750790000
   15      H      -4.0709720000    -6.2380950000     0.0095920000
   16      H      -3.5621520000    -5.6372620000    -1.6212630000
   17      C       3.5882530000    -4.5722610000     0.3819470000
   18      H       4.5356740000    -5.1397430000     0.4498720000
   19      H       3.3429860000    -4.1531310000     1.3813880000
   20      H       3.7282390000    -3.7395310000    -0.3410400000
   21      C      -1.0807250000    -2.3066540000     0.0003480000
   22      S       1.5426940000    -2.3065010000    -0.0109240000
   23      C       0.0000000000    -1.4351850000     0.0000000000
   24      H      -2.1276350000    -1.9781380000     0.0036120000
   25      H      -0.3205590000    -9.6140330000    -0.0377640000
   26      C       0.0000000000     0.0000000000     0.0000000000
   27      S       0.1575770000     0.8909370000     1.5075410000
   28      C       0.4298890000     2.4397200000     0.7188730000
   29      C       0.1577970000     0.8905760000    -1.0678720000
   30      C       0.3969150000     2.2600040000    -0.6864100000
   31      S       0.1183070000     0.6502070000    -2.8055160000
   32      C       0.4170360000     2.3762290000    -3.0545300000
   33      C       0.5376160000     3.0742020000    -1.8625510000
   34      F       0.7649920000     4.3913780000    -1.8190880000
   35      C       0.4966960000     2.8171180000    -4.4560840000
   36      O       0.3708740000     2.0575820000    -5.4065100000
   37      O       0.7238610000     4.1484180000    -4.5692250000
   38      C       0.8149760000     4.6350750000    -5.9162070000
   39      H       0.9992860000     5.7205910000    -5.8330640000
   40      H      -0.1259090000     4.4422260000    -6.4701680000
   41      H       1.6455040000     4.1404650000    -6.4592930000
   42      H       0.5889930000     3.3501820000     1.3064860000
 ----------------------------------------------------------------

   10   -2754.3126121931      7.02e-07  Convergence criterion met
 Total energy in the final basis set =    -2754.3126121931
        RIMP2         total energy =     -2759.3620551383 a.u.

                    Orbital Energies (a.u.)
 --------------------------------------------------------------

 Alpha MOs
 -- Occupied --
-92.0143 -91.9966 -91.9888 -91.9866 -26.3425 -20.6142 -20.5923 -20.5918
-20.5604 -11.4085 -11.3814 -11.3191 -11.3187 -11.3091 -11.3002 -11.2962
-11.2957 -11.2909 -11.2884 -11.2870 -11.2863 -11.2862 -11.2840 -11.2833
-11.2804 -11.2603 -11.2596 -11.2582 -11.2501  -9.0127  -8.9966  -8.9892
 -8.9865  -6.6934  -6.6928  -6.6923  -6.6777  -6.6769  -6.6758  -6.6701
 -6.6694  -6.6685  -6.6675  -6.6669  -6.6660  -1.6596  -1.4666  -1.4165
 -1.4146  -1.3692  -1.2198  -1.1944  -1.1652  -1.1348  -1.0842  -1.0520
 -1.0404  -1.0215  -1.0017  -0.9876  -0.9614  -0.9604  -0.9504  -0.9384
 -0.8958  -0.8665  -0.8512  -0.8094  -0.7930  -0.7886  -0.7863  -0.7649
 -0.7548  -0.7339  -0.7245  -0.7089  -0.7006  -0.6844  -0.6833  -0.6800
 -0.6733  -0.6592  -0.6570  -0.6527  -0.6304  -0.6202  -0.6173  -0.6049
 -0.5969  -0.5854  -0.5773  -0.5692  -0.5664  -0.5598  -0.5556  -0.5493
 -0.5329  -0.5304  -0.5237  -0.5159  -0.5150  -0.5089  -0.5037  -0.4945
 -0.4898  -0.4792  -0.4748  -0.4728  -0.4693  -0.4666  -0.4612  -0.4047
 -0.3976  -0.3871  -0.3570  -0.3487  -0.3138  -0.2987  -0.2597

          Ground-State Mulliken Net Atomic Charges

     Atom                 Charge (a.u.)
  ----------------------------------------
      1 C                    -0.187061
      2 C                    -0.254680
      3 S                    -0.021968
      4 C                    -0.012560
      5 H                     0.196594
      6 C                    -0.028471
      7 C                     0.247296
      8 C                     0.238362
      9 C                    -0.043102
     10 C                    -0.031301
     11 O                    -0.333156
     12 O                    -0.339675
     13 C                    -0.085784
     14 H                     0.122803
     15 H                     0.090915
     16 H                     0.094493
     17 C                    -0.086335
     18 H                     0.124741
     19 H                     0.094116
     20 H                     0.090360
     21 C                    -0.213492
     22 S                     0.001358
     23 C                    -0.066508
     24 H                     0.197301
     25 H                     0.206596
     26 C                    -0.014643
     27 S                     0.109161
     28 C                    -0.187154
     29 C                     0.001768
     30 C                    -0.101104
     31 S                     0.007925
     32 C                    -0.154643
     33 C                     0.391436
     34 F                    -0.207056
     35 C                     0.445723
     36 O                    -0.461327
     37 O                    -0.300710
     38 C                    -0.058584
     39 H                     0.121163
     40 H                     0.095005
     41 H                     0.094979
     42 H                     0.217218
  ----------------------------------------
  Sum of atomic charges =     0.000000

                    Cartesian Multipole Moments
 -----------------------------------------------------------------
    Charge (ESU x 10^10)
                -0.0000
    Dipole Moment (Debye)
         X       0.5077      Y       0.7924      Z       2.8016
       Tot       2.9554
    Quadrupole Moments (Debye-Ang)
        XX    -177.6928     XY       3.2572     YY    -159.4569
        XZ       4.4842     YZ      -5.7299     ZZ    -205.4628

 Total job time:  344.27s(wall), 12498.73s(cpu)
        *  Thank you very much for using Q-Chem.  Have a nice day.  *
