 Q-Chem 5.4, Q-Chem, Inc., Pleasanton, CA (2021)
 Q-Chem 5.4.0 for Intel X86 EM64T Linux

User input:
--------------------------------------------------------------
$molecule
0 1
C	-0.270358	-8.517702	0.172904
C	0.548363	-7.641575	-0.524688
S	-1.445750	-7.638634	1.180599
C	0.259951	-6.264785	-0.282727
H	1.347559	-7.966081	-1.203014
C	-0.833868	-6.072714	0.632972
C	-1.248701	-4.787049	1.013580
C	0.965673	-5.162801	-0.845068
C	0.553357	-3.874817	-0.460946
C	-0.543470	-3.683952	0.453541
O	1.958276	-5.499772	-1.714812
O	-2.245053	-4.459055	1.888193
C	-3.360989	-5.329063	2.033848
H	-4.130667	-4.755694	2.584788
H	-3.112380	-6.238095	2.624118
H	-3.770895	-5.637262	1.047748
C	2.994272	-4.572261	-2.013896
H	3.763700	-5.139743	-2.570853
H	3.448815	-4.153131	-1.090625
H	2.636780	-3.739531	-2.657717
C	-0.827659	-2.306654	0.694943
S	1.174750	-2.306501	-0.999993
C	-0.000000	-1.435185	-0.000000
H	-1.627541	-1.978138	1.370385
H	-0.269836	-9.614033	0.177122
C	0.000000	0.000000	0.000000
S	0.309893	0.850039	1.507541
C	0.847011	2.328006	0.718873
C	0.310046	0.849645	-1.067872
C	0.783331	2.156746	-0.686410
S	0.229416	0.619785	-2.805516
C	0.823328	2.267711	-3.054530
C	1.063278	2.934142	-1.862551
F	1.515925	4.191824	-1.819088
C	0.978337	2.688069	-4.456084
O	0.722535	1.961921	-5.406510
O	1.433229	3.959697	-4.569225
C	1.607467	4.423139	-5.916207
H	1.977475	5.460158	-5.833064
H	0.647388	4.396602	-6.470168
H	2.339490	3.791823	-6.459293
H	1.161798	3.197007	1.306486
$end

$rem
JOBTYPE		SP
EXCHANGE	HF
CORRELATION	pRIMP2
BASIS		cc-pvtz
METHOD		rimp2
AUX_BASIS	rimp2-cc-pvtz
SOLVENT_METHOD	PCM
PURECART	11111
SYMMETRY	false
MEM_TOTAL	110000
SCF_CONVERGENCE = 6
THRESH=10
GUI = 2
$end

$solvent
dielectric 4.90
$end
--------------------------------------------------------------

             Standard Nuclear Orientation (Angstroms)
    I     Atom           X                Y                Z
 ----------------------------------------------------------------
    1      C      -0.2703580000    -8.5177020000     0.1729040000
    2      C       0.5483630000    -7.6415750000    -0.5246880000
    3      S      -1.4457500000    -7.6386340000     1.1805990000
    4      C       0.2599510000    -6.2647850000    -0.2827270000
    5      H       1.3475590000    -7.9660810000    -1.2030140000
    6      C      -0.8338680000    -6.0727140000     0.6329720000
    7      C      -1.2487010000    -4.7870490000     1.0135800000
    8      C       0.9656730000    -5.1628010000    -0.8450680000
    9      C       0.5533570000    -3.8748170000    -0.4609460000
   10      C      -0.5434700000    -3.6839520000     0.4535410000
   11      O       1.9582760000    -5.4997720000    -1.7148120000
   12      O      -2.2450530000    -4.4590550000     1.8881930000
   13      C      -3.3609890000    -5.3290630000     2.0338480000
   14      H      -4.1306670000    -4.7556940000     2.5847880000
   15      H      -3.1123800000    -6.2380950000     2.6241180000
   16      H      -3.7708950000    -5.6372620000     1.0477480000
   17      C       2.9942720000    -4.5722610000    -2.0138960000
   18      H       3.7637000000    -5.1397430000    -2.5708530000
   19      H       3.4488150000    -4.1531310000    -1.0906250000
   20      H       2.6367800000    -3.7395310000    -2.6577170000
   21      C      -0.8276590000    -2.3066540000     0.6949430000
   22      S       1.1747500000    -2.3065010000    -0.9999930000
   23      C       0.0000000000    -1.4351850000     0.0000000000
   24      H      -1.6275410000    -1.9781380000     1.3703850000
   25      H      -0.2698360000    -9.6140330000     0.1771220000
   26      C       0.0000000000     0.0000000000     0.0000000000
   27      S       0.3098930000     0.8500390000     1.5075410000
   28      C       0.8470110000     2.3280060000     0.7188730000
   29      C       0.3100460000     0.8496450000    -1.0678720000
   30      C       0.7833310000     2.1567460000    -0.6864100000
   31      S       0.2294160000     0.6197850000    -2.8055160000
   32      C       0.8233280000     2.2677110000    -3.0545300000
   33      C       1.0632780000     2.9341420000    -1.8625510000
   34      F       1.5159250000     4.1918240000    -1.8190880000
   35      C       0.9783370000     2.6880690000    -4.4560840000
   36      O       0.7225350000     1.9619210000    -5.4065100000
   37      O       1.4332290000     3.9596970000    -4.5692250000
   38      C       1.6074670000     4.4231390000    -5.9162070000
   39      H       1.9774750000     5.4601580000    -5.8330640000
   40      H       0.6473880000     4.3966020000    -6.4701680000
   41      H       2.3394900000     3.7918230000    -6.4592930000
   42      H       1.1617980000     3.1970070000     1.3064860000
 ----------------------------------------------------------------

   10   -2754.3089635784      7.40e-07  Convergence criterion met
 Total energy in the final basis set =    -2754.3089635784
        RIMP2         total energy =     -2759.3617000943 a.u.

                    Orbital Energies (a.u.)
 --------------------------------------------------------------

 Alpha MOs
 -- Occupied --
-92.0150 -91.9981 -91.9891 -91.9861 -26.3430 -20.6145 -20.5921 -20.5913
-20.5609 -11.4090 -11.3819 -11.3190 -11.3173 -11.3111 -11.3012 -11.2969
-11.2959 -11.2933 -11.2887 -11.2866 -11.2860 -11.2854 -11.2847 -11.2838
-11.2794 -11.2604 -11.2585 -11.2549 -11.2498  -9.0134  -8.9981  -8.9895
 -8.9861  -6.6941  -6.6935  -6.6930  -6.6791  -6.6784  -6.6772  -6.6705
 -6.6698  -6.6688  -6.6670  -6.6664  -6.6656  -1.6601  -1.4670  -1.4162
 -1.4140  -1.3696  -1.2218  -1.1940  -1.1652  -1.1358  -1.0848  -1.0516
 -1.0411  -1.0229  -1.0014  -0.9875  -0.9633  -0.9587  -0.9499  -0.9394
 -0.8955  -0.8674  -0.8506  -0.8128  -0.7918  -0.7869  -0.7863  -0.7649
 -0.7551  -0.7335  -0.7249  -0.7096  -0.6992  -0.6850  -0.6830  -0.6809
 -0.6736  -0.6589  -0.6576  -0.6524  -0.6301  -0.6198  -0.6168  -0.6048
 -0.5974  -0.5840  -0.5779  -0.5689  -0.5659  -0.5598  -0.5562  -0.5509
 -0.5322  -0.5302  -0.5239  -0.5163  -0.5152  -0.5077  -0.5072  -0.4963
 -0.4884  -0.4797  -0.4755  -0.4733  -0.4697  -0.4650  -0.4597  -0.4141
 -0.3980  -0.3846  -0.3563  -0.3501  -0.3232  -0.2904  -0.2550

          Ground-State Mulliken Net Atomic Charges

     Atom                 Charge (a.u.)
  ----------------------------------------
      1 C                    -0.189126
      2 C                    -0.254201
      3 S                    -0.023047
      4 C                    -0.015675
      5 H                     0.196385
      6 C                    -0.025168
      7 C                     0.237479
      8 C                     0.240798
      9 C                    -0.042523
     10 C                    -0.008690
     11 O                    -0.333182
     12 O                    -0.340179
     13 C                    -0.085774
     14 H                     0.122326
     15 H                     0.091111
     16 H                     0.094149
     17 C                    -0.087918
     18 H                     0.125293
     19 H                     0.094323
     20 H                     0.090912
     21 C                    -0.259301
     22 S                    -0.009554
     23 C                    -0.018336
     24 H                     0.196069
     25 H                     0.206292
     26 C                     0.024185
     27 S                     0.114428
     28 C                    -0.191445
     29 C                    -0.077423
     30 C                    -0.082247
     31 S                     0.022868
     32 C                    -0.155153
     33 C                     0.396471
     34 F                    -0.207135
     35 C                     0.444719
     36 O                    -0.461051
     37 O                    -0.300829
     38 C                    -0.058398
     39 H                     0.121288
     40 H                     0.095159
     41 H                     0.094971
     42 H                     0.217131
  ----------------------------------------
  Sum of atomic charges =     0.000000

                    Cartesian Multipole Moments
 -----------------------------------------------------------------
    Charge (ESU x 10^10)
                -0.0000
    Dipole Moment (Debye)
         X       0.9707      Y       1.0403      Z       2.6861
       Tot       3.0397
    Quadrupole Moments (Debye-Ang)
        XX    -180.1317     XY       6.0932     YY    -162.2215
        XZ     -12.6368     YZ      -5.8141     ZZ    -201.2556

 Total job time:  286.29s(wall), 8807.26s(cpu)
        *  Thank you very much for using Q-Chem.  Have a nice day.  *
