 Q-Chem 5.4, Q-Chem, Inc., Pleasanton, CA (2021)
 Q-Chem 5.4.0 for Intel X86 EM64T Linux

User input:
--------------------------------------------------------------
$molecule
0 1
C	0.701193	-8.488892	0.318247
C	0.616742	-7.616807	-0.757333
S	0.640926	-7.611739	1.866383
C	0.496713	-6.245258	-0.380867
H	0.639132	-7.940593	-1.805573
C	0.478351	-6.054060	1.045647
C	0.391116	-4.771116	1.608077
C	0.423432	-5.145477	-1.282948
C	0.340289	-3.859847	-0.720187
C	0.319182	-3.670099	0.707853
O	0.424679	-5.483626	-2.602386
O	0.391967	-4.441795	2.933517
C	-0.135633	-5.361285	3.881999
H	-0.258024	-4.796434	4.825744
H	0.553241	-6.213521	4.070972
H	-1.123774	-5.757113	3.562152
C	0.778992	-4.521574	-3.588253
H	0.896118	-5.080975	-4.535674
H	1.738100	-4.016931	-3.342986
H	-0.013821	-3.755025	-3.728239
C	0.201385	-2.297846	1.080725
S	0.190142	-2.298676	-1.542694
C	0.125085	-1.429724	0.000000
H	0.176004	-1.970295	2.127635
H	0.800298	-9.580740	0.320559
C	0.000000	0.000000	0.000000
S	0.234628	0.873813	1.507541
C	0.640889	2.392969	0.718873
C	0.234815	0.873434	-1.067872
C	0.592377	2.216811	-0.686410
S	0.174526	0.637422	-2.805516
C	0.622551	2.330840	-3.054530
C	0.803505	3.015647	-1.862551
F	1.144815	4.307994	-1.819088
C	0.740334	2.763108	-4.456084
O	0.548793	2.017428	-5.406510
O	1.082665	4.069544	-4.569225
C	1.215848	4.546407	-5.916207
H	1.494066	5.611729	-5.833064
H	0.261736	4.436296	-6.470168
H	2.000108	3.981294	-6.459293
H	0.878739	3.286099	1.306486
$end

$rem
JOBTYPE		SP
EXCHANGE	HF
CORRELATION	pRIMP2
BASIS		cc-pvtz
METHOD		rimp2
AUX_BASIS	rimp2-cc-pvtz
SOLVENT_METHOD	PCM
PURECART	11111
SYMMETRY	false
MEM_TOTAL	110000
SCF_CONVERGENCE = 6
THRESH=10
GUI = 2
$end

$solvent
dielectric 4.90
$end
--------------------------------------------------------------

             Standard Nuclear Orientation (Angstroms)
    I     Atom           X                Y                Z
 ----------------------------------------------------------------
    1      C       0.7011930000    -8.4888920000     0.3182470000
    2      C       0.6167420000    -7.6168070000    -0.7573330000
    3      S       0.6409260000    -7.6117390000     1.8663830000
    4      C       0.4967130000    -6.2452580000    -0.3808670000
    5      H       0.6391320000    -7.9405930000    -1.8055730000
    6      C       0.4783510000    -6.0540600000     1.0456470000
    7      C       0.3911160000    -4.7711160000     1.6080770000
    8      C       0.4234320000    -5.1454770000    -1.2829480000
    9      C       0.3402890000    -3.8598470000    -0.7201870000
   10      C       0.3191820000    -3.6700990000     0.7078530000
   11      O       0.4246790000    -5.4836260000    -2.6023860000
   12      O       0.3919670000    -4.4417950000     2.9335170000
   13      C      -0.1356330000    -5.3612850000     3.8819990000
   14      H      -0.2580240000    -4.7964340000     4.8257440000
   15      H       0.5532410000    -6.2135210000     4.0709720000
   16      H      -1.1237740000    -5.7571130000     3.5621520000
   17      C       0.7789920000    -4.5215740000    -3.5882530000
   18      H       0.8961180000    -5.0809750000    -4.5356740000
   19      H       1.7381000000    -4.0169310000    -3.3429860000
   20      H      -0.0138210000    -3.7550250000    -3.7282390000
   21      C       0.2013850000    -2.2978460000     1.0807250000
   22      S       0.1901420000    -2.2986760000    -1.5426940000
   23      C       0.1250850000    -1.4297240000     0.0000000000
   24      H       0.1760040000    -1.9702950000     2.1276350000
   25      H       0.8002980000    -9.5807400000     0.3205590000
   26      C       0.0000000000     0.0000000000     0.0000000000
   27      S       0.2346280000     0.8738130000     1.5075410000
   28      C       0.6408890000     2.3929690000     0.7188730000
   29      C       0.2348150000     0.8734340000    -1.0678720000
   30      C       0.5923770000     2.2168110000    -0.6864100000
   31      S       0.1745260000     0.6374220000    -2.8055160000
   32      C       0.6225510000     2.3308400000    -3.0545300000
   33      C       0.8035050000     3.0156470000    -1.8625510000
   34      F       1.1448150000     4.3079940000    -1.8190880000
   35      C       0.7403340000     2.7631080000    -4.4560840000
   36      O       0.5487930000     2.0174280000    -5.4065100000
   37      O       1.0826650000     4.0695440000    -4.5692250000
   38      C       1.2158480000     4.5464070000    -5.9162070000
   39      H       1.4940660000     5.6117290000    -5.8330640000
   40      H       0.2617360000     4.4362960000    -6.4701680000
   41      H       2.0001080000     3.9812940000    -6.4592930000
   42      H       0.8787390000     3.2860990000     1.3064860000
 ----------------------------------------------------------------

   10   -2754.3082084665      7.48e-07  Convergence criterion met
 Total energy in the final basis set =    -2754.3082084665
        RIMP2         total energy =     -2759.3636098996 a.u.

                    Orbital Energies (a.u.)
 --------------------------------------------------------------

 Alpha MOs
 -- Occupied --
-92.0150 -92.0004 -91.9902 -91.9855 -26.3441 -20.6151 -20.5921 -20.5904
-20.5616 -11.4098 -11.3836 -11.3196 -11.3154 -11.3145 -11.3039 -11.2995
-11.2982 -11.2979 -11.2890 -11.2865 -11.2864 -11.2858 -11.2851 -11.2837
-11.2781 -11.2617 -11.2568 -11.2515 -11.2494  -9.0138  -9.0005  -8.9909
 -8.9855  -6.6946  -6.6940  -6.6934  -6.6815  -6.6807  -6.6796  -6.6719
 -6.6712  -6.6702  -6.6665  -6.6658  -6.6650  -1.6611  -1.4676  -1.4161
 -1.4132  -1.3703  -1.2242  -1.1940  -1.1655  -1.1373  -1.0860  -1.0515
 -1.0423  -1.0251  -1.0016  -0.9880  -0.9647  -0.9581  -0.9495  -0.9416
 -0.8953  -0.8690  -0.8510  -0.8161  -0.7925  -0.7877  -0.7850  -0.7648
 -0.7557  -0.7334  -0.7259  -0.7109  -0.6987  -0.6861  -0.6832  -0.6821
 -0.6742  -0.6591  -0.6583  -0.6521  -0.6307  -0.6193  -0.6163  -0.6033
 -0.5985  -0.5850  -0.5790  -0.5692  -0.5678  -0.5613  -0.5564  -0.5531
 -0.5326  -0.5291  -0.5237  -0.5202  -0.5179  -0.5116  -0.5060  -0.4944
 -0.4866  -0.4793  -0.4772  -0.4750  -0.4701  -0.4634  -0.4585  -0.4276
 -0.3923  -0.3855  -0.3614  -0.3524  -0.3244  -0.2915  -0.2471

          Ground-State Mulliken Net Atomic Charges

     Atom                 Charge (a.u.)
  ----------------------------------------
      1 C                    -0.192353
      2 C                    -0.253278
      3 S                    -0.024427
      4 C                    -0.019368
      5 H                     0.196221
      6 C                    -0.026116
      7 C                     0.235121
      8 C                     0.245322
      9 C                    -0.035978
     10 C                    -0.014098
     11 O                    -0.332729
     12 O                    -0.341324
     13 C                    -0.085533
     14 H                     0.121938
     15 H                     0.090885
     16 H                     0.093695
     17 C                    -0.089417
     18 H                     0.126077
     19 H                     0.095301
     20 H                     0.090628
     21 C                    -0.272818
     22 S                    -0.045400
     23 C                     0.020281
     24 H                     0.185336
     25 H                     0.205866
     26 C                     0.032644
     27 S                     0.091831
     28 C                    -0.179283
     29 C                    -0.008850
     30 C                    -0.116564
     31 S                     0.012580
     32 C                    -0.167907
     33 C                     0.411840
     34 F                    -0.206009
     35 C                     0.444622
     36 O                    -0.461182
     37 O                    -0.300947
     38 C                    -0.058463
     39 H                     0.121501
     40 H                     0.095182
     41 H                     0.095148
     42 H                     0.220028
  ----------------------------------------
  Sum of atomic charges =     0.000000

                    Cartesian Multipole Moments
 -----------------------------------------------------------------
    Charge (ESU x 10^10)
                 0.0000
    Dipole Moment (Debye)
         X       0.6984      Y       1.6794      Z       2.5779
       Tot       3.1549
    Quadrupole Moments (Debye-Ang)
        XX    -199.8165     XY       3.5520     YY    -163.1197
        XZ      -7.6661     YZ      -7.0607     ZZ    -182.1472

 Total job time:  298.49s(wall), 9129.91s(cpu)
        *  Thank you very much for using Q-Chem.  Have a nice day.  *
