 Q-Chem 5.4, Q-Chem, Inc., Pleasanton, CA (2021)
 Q-Chem 5.4.0 for Intel X86 EM64T Linux

User input:
--------------------------------------------------------------
$molecule
0 1
C	0.095966	-8.517702	-0.306235
C	-0.082807	-7.641575	0.754415
S	0.348635	-7.638634	-1.833702
C	-0.017401	-6.264785	0.383675
H	-0.259008	-7.966081	1.787757
C	0.231913	-6.072714	-1.020885
C	0.305044	-4.787049	-1.579097
C	-0.196549	-5.162801	1.268082
C	-0.127606	-3.874817	0.708796
C	0.124792	-3.683952	-0.696769
O	-0.397867	-5.499772	2.572378
O	0.506103	-4.459055	-2.889532
C	1.267335	-5.329063	-3.718420
H	1.502804	-4.755694	-4.635204
H	0.697471	-6.238095	-4.010790
H	2.215194	-5.637262	-3.226506
C	-0.999238	-4.572261	3.467415
H	-1.230649	-5.139743	4.388648
H	-1.940905	-4.153131	3.052323
H	-0.311543	-3.739531	3.730819
C	0.187323	-2.306654	-1.064366
S	-0.257128	-2.306501	1.521154
C	0.000000	-1.435185	0.000000
H	0.365903	-1.978138	-2.095939
H	0.092855	-9.614033	-0.309131
C	0.000000	0.000000	0.000000
S	0.693394	0.581209	1.507541
C	1.897536	1.592607	0.718873
C	0.693330	0.580791	-1.067872
C	1.756758	1.476132	-0.686410
S	0.508573	0.422041	-2.805516
C	1.846879	1.552232	-3.054530
C	2.387897	2.009402	-1.862551
F	3.408741	2.872264	-1.819088
C	2.191300	1.838768	-4.456084
O	1.606694	1.337806	-5.406510
O	3.221062	2.712584	-4.569225
C	3.603677	3.026817	-5.916207
H	4.442623	3.739898	-5.833064
H	2.758956	3.483875	-6.470168
H	3.921969	2.114070	-6.459293
H	2.604650	2.187790	1.306486
$end

$rem
JOBTYPE		SP
EXCHANGE	HF
CORRELATION	pRIMP2
BASIS		cc-pvtz
METHOD		rimp2
AUX_BASIS	rimp2-cc-pvtz
SOLVENT_METHOD	PCM
PURECART	11111
SYMMETRY	false
MEM_TOTAL	110000
SCF_CONVERGENCE = 6
THRESH=10
GUI = 2
$end

$solvent
dielectric 4.90
$end
--------------------------------------------------------------

             Standard Nuclear Orientation (Angstroms)
    I     Atom           X                Y                Z
 ----------------------------------------------------------------
    1      C       0.0959660000    -8.5177020000    -0.3062350000
    2      C      -0.0828070000    -7.6415750000     0.7544150000
    3      S       0.3486350000    -7.6386340000    -1.8337020000
    4      C      -0.0174010000    -6.2647850000     0.3836750000
    5      H      -0.2590080000    -7.9660810000     1.7877570000
    6      C       0.2319130000    -6.0727140000    -1.0208850000
    7      C       0.3050440000    -4.7870490000    -1.5790970000
    8      C      -0.1965490000    -5.1628010000     1.2680820000
    9      C      -0.1276060000    -3.8748170000     0.7087960000
   10      C       0.1247920000    -3.6839520000    -0.6967690000
   11      O      -0.3978670000    -5.4997720000     2.5723780000
   12      O       0.5061030000    -4.4590550000    -2.8895320000
   13      C       1.2673350000    -5.3290630000    -3.7184200000
   14      H       1.5028040000    -4.7556940000    -4.6352040000
   15      H       0.6974710000    -6.2380950000    -4.0107900000
   16      H       2.2151940000    -5.6372620000    -3.2265060000
   17      C      -0.9992380000    -4.5722610000     3.4674150000
   18      H      -1.2306490000    -5.1397430000     4.3886480000
   19      H      -1.9409050000    -4.1531310000     3.0523230000
   20      H      -0.3115430000    -3.7395310000     3.7308190000
   21      C       0.1873230000    -2.3066540000    -1.0643660000
   22      S      -0.2571280000    -2.3065010000     1.5211540000
   23      C       0.0000000000    -1.4351850000     0.0000000000
   24      H       0.3659030000    -1.9781380000    -2.0959390000
   25      H       0.0928550000    -9.6140330000    -0.3091310000
   26      C       0.0000000000     0.0000000000     0.0000000000
   27      S       0.6933940000     0.5812090000     1.5075410000
   28      C       1.8975360000     1.5926070000     0.7188730000
   29      C       0.6933300000     0.5807910000    -1.0678720000
   30      C       1.7567580000     1.4761320000    -0.6864100000
   31      S       0.5085730000     0.4220410000    -2.8055160000
   32      C       1.8468790000     1.5522320000    -3.0545300000
   33      C       2.3878970000     2.0094020000    -1.8625510000
   34      F       3.4087410000     2.8722640000    -1.8190880000
   35      C       2.1913000000     1.8387680000    -4.4560840000
   36      O       1.6066940000     1.3378060000    -5.4065100000
   37      O       3.2210620000     2.7125840000    -4.5692250000
   38      C       3.6036770000     3.0268170000    -5.9162070000
   39      H       4.4426230000     3.7398980000    -5.8330640000
   40      H       2.7589560000     3.4838750000    -6.4701680000
   41      H       3.9219690000     2.1140700000    -6.4592930000
   42      H       2.6046500000     2.1877900000     1.3064860000
 ----------------------------------------------------------------

   10   -2754.2666930823      8.33e-07  Convergence criterion met
 Total energy in the final basis set =    -2754.2666930823
        RIMP2         total energy =     -2759.3300960208 a.u.

                    Orbital Energies (a.u.)
 --------------------------------------------------------------

 Alpha MOs
 -- Occupied --
-92.0162 -92.0088 -91.9847 -91.9831 -26.3464 -20.6159 -20.5910 -20.5867
-20.5625 -11.4111 -11.3870 -11.3310 -11.3170 -11.3168 -11.3100 -11.2994
-11.2974 -11.2898 -11.2896 -11.2864 -11.2833 -11.2826 -11.2810 -11.2796
-11.2747 -11.2576 -11.2523 -11.2475 -11.2377  -9.0156  -9.0086  -8.9858
 -8.9831  -6.6963  -6.6955  -6.6952  -6.6895  -6.6887  -6.6877  -6.6668
 -6.6661  -6.6652  -6.6641  -6.6635  -6.6626  -1.6634  -1.4685  -1.4149
 -1.4096  -1.3713  -1.2321  -1.1904  -1.1648  -1.1401  -1.0854  -1.0485
 -1.0453  -1.0277  -0.9973  -0.9878  -0.9661  -0.9580  -0.9485  -0.9395
 -0.8935  -0.8721  -0.8463  -0.8116  -0.7986  -0.7875  -0.7827  -0.7617
 -0.7563  -0.7309  -0.7281  -0.7139  -0.6999  -0.6870  -0.6829  -0.6804
 -0.6750  -0.6603  -0.6572  -0.6498  -0.6294  -0.6172  -0.6156  -0.6049
 -0.6020  -0.5815  -0.5790  -0.5704  -0.5642  -0.5605  -0.5573  -0.5438
 -0.5341  -0.5307  -0.5220  -0.5161  -0.5146  -0.5097  -0.5042  -0.4954
 -0.4873  -0.4817  -0.4771  -0.4745  -0.4688  -0.4605  -0.4566  -0.4255
 -0.3926  -0.3808  -0.3622  -0.3463  -0.3284  -0.2893  -0.2458

          Ground-State Mulliken Net Atomic Charges

     Atom                 Charge (a.u.)
  ----------------------------------------
      1 C                    -0.199005
      2 C                    -0.253511
      3 S                    -0.027752
      4 C                    -0.024521
      5 H                     0.194977
      6 C                    -0.023911
      7 C                     0.232327
      8 C                     0.247523
      9 C                    -0.049364
     10 C                    -0.012456
     11 O                    -0.333462
     12 O                    -0.342587
     13 C                    -0.086276
     14 H                     0.122261
     15 H                     0.090692
     16 H                     0.092156
     17 C                    -0.087860
     18 H                     0.125387
     19 H                     0.094672
     20 H                     0.088800
     21 C                    -0.262754
     22 S                    -0.047421
     23 C                    -0.005888
     24 H                     0.188778
     25 H                     0.204570
     26 C                    -0.088849
     27 S                     0.113610
     28 C                    -0.141755
     29 C                     0.037587
     30 C                    -0.105866
     31 S                     0.060458
     32 C                    -0.160342
     33 C                     0.400037
     34 F                    -0.204229
     35 C                     0.449307
     36 O                    -0.461258
     37 O                    -0.301093
     38 C                    -0.058165
     39 H                     0.121647
     40 H                     0.095398
     41 H                     0.095317
     42 H                     0.222820
  ----------------------------------------
  Sum of atomic charges =     0.000000

                    Cartesian Multipole Moments
 -----------------------------------------------------------------
    Charge (ESU x 10^10)
                 0.0000
    Dipole Moment (Debye)
         X       3.3090      Y       2.5667      Z       3.0603
       Tot       5.1868
    Quadrupole Moments (Debye-Ang)
        XX    -187.5113     XY       7.8566     YY    -178.8208
        XZ     -14.5058     YZ      -6.0916     ZZ    -184.0434

 Total job time:  423.46s(wall), 14894.54s(cpu)
        *  Thank you very much for using Q-Chem.  Have a nice day.  *
