 Q-Chem 5.4, Q-Chem, Inc., Pleasanton, CA (2021)
 Q-Chem 5.4.0 for Intel X86 EM64T Linux

User input:
--------------------------------------------------------------
$molecule
0 1
C	0.123330	-8.517702	0.296276
C	-0.421494	-7.641575	-0.631143
S	0.911611	-7.638634	1.628795
C	-0.233291	-6.264785	-0.305097
H	-0.950737	-7.966081	-1.535988
C	0.478557	-6.072714	0.931114
C	0.781346	-4.787049	1.405737
C	-0.664542	-5.162801	-1.097747
C	-0.357854	-3.874817	-0.624993
C	0.352278	-3.683952	0.613970
O	-1.348709	-5.499772	-2.226300
O	1.469658	-4.459055	2.538827
C	1.419319	-5.329063	3.663102
H	1.828237	-4.755694	4.516756
H	2.043793	-6.238095	3.520769
H	0.377021	-5.637262	3.895546
C	-1.463351	-4.572261	-3.298492
H	-1.878237	-5.139743	-4.152945
H	-0.475176	-4.153131	-3.585804
H	-2.159469	-3.739531	-3.058230
C	0.540664	-2.306654	0.935761
S	-0.780808	-2.306501	-1.330550
C	-0.000000	-1.435185	-0.000000
H	1.066946	-1.978138	1.840780
H	0.127575	-9.614033	0.296494
C	0.000000	0.000000	0.000000
S	0.581934	0.692785	1.507541
C	1.592155	1.897915	0.718873
C	0.581944	0.692363	-1.067872
C	1.473741	1.758764	-0.686410
S	0.427560	0.503942	-2.805516
C	1.549278	1.849357	-3.054530
C	2.002690	2.393529	-1.862551
F	2.858191	3.420549	-1.819088
C	1.838710	2.191348	-4.456084
O	1.349977	1.596481	-5.406510
O	2.701091	3.230705	-4.569225
C	3.023327	3.606605	-5.916207
H	3.725703	4.454534	-5.833064
H	2.112072	3.910035	-6.470168
H	3.495281	2.762996	-6.459293
H	2.185174	2.606846	1.306486
$end

$rem
JOBTYPE		SP
EXCHANGE	HF
CORRELATION	pRIMP2
BASIS		cc-pvtz
METHOD		rimp2
AUX_BASIS	rimp2-cc-pvtz
SOLVENT_METHOD	PCM
PURECART	11111
SYMMETRY	false
MEM_TOTAL	110000
SCF_CONVERGENCE = 6
THRESH=10
GUI = 2
$end

$solvent
dielectric 4.90
$end
--------------------------------------------------------------

             Standard Nuclear Orientation (Angstroms)
    I     Atom           X                Y                Z
 ----------------------------------------------------------------
    1      C       0.1233300000    -8.5177020000     0.2962760000
    2      C      -0.4214940000    -7.6415750000    -0.6311430000
    3      S       0.9116110000    -7.6386340000     1.6287950000
    4      C      -0.2332910000    -6.2647850000    -0.3050970000
    5      H      -0.9507370000    -7.9660810000    -1.5359880000
    6      C       0.4785570000    -6.0727140000     0.9311140000
    7      C       0.7813460000    -4.7870490000     1.4057370000
    8      C      -0.6645420000    -5.1628010000    -1.0977470000
    9      C      -0.3578540000    -3.8748170000    -0.6249930000
   10      C       0.3522780000    -3.6839520000     0.6139700000
   11      O      -1.3487090000    -5.4997720000    -2.2263000000
   12      O       1.4696580000    -4.4590550000     2.5388270000
   13      C       1.4193190000    -5.3290630000     3.6631020000
   14      H       1.8282370000    -4.7556940000     4.5167560000
   15      H       2.0437930000    -6.2380950000     3.5207690000
   16      H       0.3770210000    -5.6372620000     3.8955460000
   17      C      -1.4633510000    -4.5722610000    -3.2984920000
   18      H      -1.8782370000    -5.1397430000    -4.1529450000
   19      H      -0.4751760000    -4.1531310000    -3.5858040000
   20      H      -2.1594690000    -3.7395310000    -3.0582300000
   21      C       0.5406640000    -2.3066540000     0.9357610000
   22      S      -0.7808080000    -2.3065010000    -1.3305500000
   23      C       0.0000000000    -1.4351850000     0.0000000000
   24      H       1.0669460000    -1.9781380000     1.8407800000
   25      H       0.1275750000    -9.6140330000     0.2964940000
   26      C       0.0000000000     0.0000000000     0.0000000000
   27      S       0.5819340000     0.6927850000     1.5075410000
   28      C       1.5921550000     1.8979150000     0.7188730000
   29      C       0.5819440000     0.6923630000    -1.0678720000
   30      C       1.4737410000     1.7587640000    -0.6864100000
   31      S       0.4275600000     0.5039420000    -2.8055160000
   32      C       1.5492780000     1.8493570000    -3.0545300000
   33      C       2.0026900000     2.3935290000    -1.8625510000
   34      F       2.8581910000     3.4205490000    -1.8190880000
   35      C       1.8387100000     2.1913480000    -4.4560840000
   36      O       1.3499770000     1.5964810000    -5.4065100000
   37      O       2.7010910000     3.2307050000    -4.5692250000
   38      C       3.0233270000     3.6066050000    -5.9162070000
   39      H       3.7257030000     4.4545340000    -5.8330640000
   40      H       2.1120720000     3.9100350000    -6.4701680000
   41      H       3.4952810000     2.7629960000    -6.4592930000
   42      H       2.1851740000     2.6068460000     1.3064860000
 ----------------------------------------------------------------

   10   -2754.2880990179      7.14e-07  Convergence criterion met
 Total energy in the final basis set =    -2754.2880990179
        RIMP2         total energy =     -2759.3464294363 a.u.

                    Orbital Energies (a.u.)
 --------------------------------------------------------------

 Alpha MOs
 -- Occupied --
-92.0147 -92.0041 -91.9872 -91.9843 -26.3450 -20.6153 -20.5913 -20.5888
-20.5617 -11.4101 -11.3849 -11.3230 -11.3181 -11.3127 -11.3124 -11.2984
-11.2979 -11.2892 -11.2891 -11.2876 -11.2859 -11.2850 -11.2823 -11.2822
-11.2764 -11.2592 -11.2545 -11.2484 -11.2450  -9.0137  -9.0040  -8.9879
 -8.9843  -6.6944  -6.6937  -6.6933  -6.6849  -6.6841  -6.6831  -6.6689
 -6.6682  -6.6673  -6.6653  -6.6646  -6.6638  -1.6620  -1.4678  -1.4153
 -1.4117  -1.3705  -1.2278  -1.1920  -1.1647  -1.1385  -1.0852  -1.0496
 -1.0437  -1.0261  -0.9993  -0.9873  -0.9652  -0.9573  -0.9486  -0.9413
 -0.8936  -0.8702  -0.8475  -0.8168  -0.7932  -0.7857  -0.7845  -0.7637
 -0.7558  -0.7316  -0.7268  -0.7117  -0.6984  -0.6861  -0.6828  -0.6810
 -0.6744  -0.6593  -0.6575  -0.6511  -0.6296  -0.6182  -0.6153  -0.6040
 -0.6011  -0.5886  -0.5771  -0.5674  -0.5663  -0.5644  -0.5539  -0.5504
 -0.5319  -0.5267  -0.5216  -0.5172  -0.5147  -0.5111  -0.5049  -0.4934
 -0.4873  -0.4805  -0.4764  -0.4737  -0.4687  -0.4635  -0.4579  -0.4234
 -0.3905  -0.3847  -0.3611  -0.3501  -0.3225  -0.2934  -0.2488

          Ground-State Mulliken Net Atomic Charges

     Atom                 Charge (a.u.)
  ----------------------------------------
      1 C                    -0.195787
      2 C                    -0.252750
      3 S                    -0.026578
      4 C                    -0.021093
      5 H                     0.195681
      6 C                    -0.024327
      7 C                     0.231320
      8 C                     0.245411
      9 C                    -0.040619
     10 C                    -0.012192
     11 O                    -0.333257
     12 O                    -0.341919
     13 C                    -0.085523
     14 H                     0.121358
     15 H                     0.090618
     16 H                     0.093118
     17 C                    -0.088008
     18 H                     0.124951
     19 H                     0.095415
     20 H                     0.089640
     21 C                    -0.281791
     22 S                    -0.029411
     23 C                     0.001825
     24 H                     0.191322
     25 H                     0.205178
     26 C                    -0.061407
     27 S                     0.092964
     28 C                    -0.146889
     29 C                     0.053492
     30 C                    -0.117508
     31 S                     0.032954
     32 C                    -0.159841
     33 C                     0.400091
     34 F                    -0.205031
     35 C                     0.447351
     36 O                    -0.461610
     37 O                    -0.301161
     38 C                    -0.058389
     39 H                     0.121477
     40 H                     0.095194
     41 H                     0.095233
     42 H                     0.220498
  ----------------------------------------
  Sum of atomic charges =     0.000000

                    Cartesian Multipole Moments
 -----------------------------------------------------------------
    Charge (ESU x 10^10)
                 0.0000
    Dipole Moment (Debye)
         X       1.9230      Y       2.0669      Z       2.4790
       Tot       3.7571
    Quadrupole Moments (Debye-Ang)
        XX    -193.1235     XY      10.1807     YY    -172.5619
        XZ       1.9695     YZ      -5.3352     ZZ    -182.6062

 Total job time:  283.29s(wall), 8787.95s(cpu)
        *  Thank you very much for using Q-Chem.  Have a nice day.  *
