 Q-Chem 5.4, Q-Chem, Inc., Pleasanton, CA (2021)
 Q-Chem 5.4.0 for Intel X86 EM64T Linux

User input:
--------------------------------------------------------------
$molecule
0 1
C	0.014560	-8.517702	0.320589
C	-0.180211	-7.641575	-0.737240
S	0.299553	-7.638634	1.842356
C	-0.114873	-6.264785	-0.366488
H	-0.368061	-7.966081	-1.768528
C	0.131236	-6.072714	1.038637
C	0.253435	-4.787049	1.588197
C	-0.249014	-5.162801	-1.258831
C	-0.122513	-3.874817	-0.709695
C	0.121043	-3.683952	0.697430
O	-0.505933	-5.499772	-2.553323
O	0.512697	-4.459055	2.888369
C	0.080869	-5.329063	3.927625
H	0.173159	-4.755694	4.869656
H	0.716363	-6.238095	4.007459
H	-0.978072	-5.637262	3.789565
C	-0.246949	-4.572261	-3.600064
H	-0.344574	-5.139743	-4.544887
H	0.779898	-4.153131	-3.532074
H	-0.983261	-3.739531	-3.612378
C	0.188009	-2.306654	1.064246
S	-0.278644	-2.306501	-1.517360
C	-0.000000	-1.435185	-0.000000
H	0.373017	-1.978138	2.094685
H	0.018474	-9.614033	0.322246
C	0.000000	0.000000	0.000000
S	0.452792	0.783312	1.507541
C	1.238397	2.145556	0.718873
C	0.452875	0.782898	-1.067872
C	1.145945	1.987956	-0.686410
S	0.333556	0.570531	-2.805516
C	1.204604	2.090290	-3.054530
C	1.556633	2.704929	-1.862551
F	2.220797	3.864903	-1.819088
C	1.430252	2.477345	-4.456084
O	1.052242	1.806648	-5.406510
O	2.099050	3.650663	-4.569225
C	2.351116	4.076808	-5.916207
H	2.895579	5.033821	-5.833064
H	1.401015	4.217390	-6.470168
H	2.962391	3.327969	-6.459293
H	1.699302	2.946693	1.306486
$end

$rem
JOBTYPE		SP
EXCHANGE	HF
CORRELATION	pRIMP2
BASIS		cc-pvtz
METHOD		rimp2
AUX_BASIS	rimp2-cc-pvtz
SOLVENT_METHOD	PCM
PURECART	11111
SYMMETRY	false
MEM_TOTAL	110000
SCF_CONVERGENCE = 6
THRESH=10
GUI = 2
$end

$solvent
dielectric 4.90
$end
--------------------------------------------------------------

             Standard Nuclear Orientation (Angstroms)
    I     Atom           X                Y                Z
 ----------------------------------------------------------------
    1      C       0.0145600000    -8.5177020000     0.3205890000
    2      C      -0.1802110000    -7.6415750000    -0.7372400000
    3      S       0.2995530000    -7.6386340000     1.8423560000
    4      C      -0.1148730000    -6.2647850000    -0.3664880000
    5      H      -0.3680610000    -7.9660810000    -1.7685280000
    6      C       0.1312360000    -6.0727140000     1.0386370000
    7      C       0.2534350000    -4.7870490000     1.5881970000
    8      C      -0.2490140000    -5.1628010000    -1.2588310000
    9      C      -0.1225130000    -3.8748170000    -0.7096950000
   10      C       0.1210430000    -3.6839520000     0.6974300000
   11      O      -0.5059330000    -5.4997720000    -2.5533230000
   12      O       0.5126970000    -4.4590550000     2.8883690000
   13      C       0.0808690000    -5.3290630000     3.9276250000
   14      H       0.1731590000    -4.7556940000     4.8696560000
   15      H       0.7163630000    -6.2380950000     4.0074590000
   16      H      -0.9780720000    -5.6372620000     3.7895650000
   17      C      -0.2469490000    -4.5722610000    -3.6000640000
   18      H      -0.3445740000    -5.1397430000    -4.5448870000
   19      H       0.7798980000    -4.1531310000    -3.5320740000
   20      H      -0.9832610000    -3.7395310000    -3.6123780000
   21      C       0.1880090000    -2.3066540000     1.0642460000
   22      S      -0.2786440000    -2.3065010000    -1.5173600000
   23      C       0.0000000000    -1.4351850000     0.0000000000
   24      H       0.3730170000    -1.9781380000     2.0946850000
   25      H       0.0184740000    -9.6140330000     0.3222460000
   26      C       0.0000000000     0.0000000000     0.0000000000
   27      S       0.4527920000     0.7833120000     1.5075410000
   28      C       1.2383970000     2.1455560000     0.7188730000
   29      C       0.4528750000     0.7828980000    -1.0678720000
   30      C       1.1459450000     1.9879560000    -0.6864100000
   31      S       0.3335560000     0.5705310000    -2.8055160000
   32      C       1.2046040000     2.0902900000    -3.0545300000
   33      C       1.5566330000     2.7049290000    -1.8625510000
   34      F       2.2207970000     3.8649030000    -1.8190880000
   35      C       1.4302520000     2.4773450000    -4.4560840000
   36      O       1.0522420000     1.8066480000    -5.4065100000
   37      O       2.0990500000     3.6506630000    -4.5692250000
   38      C       2.3511160000     4.0768080000    -5.9162070000
   39      H       2.8955790000     5.0338210000    -5.8330640000
   40      H       1.4010150000     4.2173900000    -6.4701680000
   41      H       2.9623910000     3.3279690000    -6.4592930000
   42      H       1.6993020000     2.9466930000     1.3064860000
 ----------------------------------------------------------------

   10   -2754.2990904196      6.98e-07  Convergence criterion met
 Total energy in the final basis set =    -2754.2990904196
        RIMP2         total energy =     -2759.3562843297 a.u.

                    Orbital Energies (a.u.)
 --------------------------------------------------------------

 Alpha MOs
 -- Occupied --
-92.0148 -92.0022 -91.9889 -91.9848 -26.3446 -20.6153 -20.5917 -20.5895
-20.5618 -11.4101 -11.3844 -11.3189 -11.3188 -11.3137 -11.3077 -11.2987
-11.2981 -11.2954 -11.2892 -11.2873 -11.2861 -11.2852 -11.2836 -11.2829
-11.2770 -11.2606 -11.2554 -11.2488 -11.2478  -9.0138  -9.0023  -8.9897
 -8.9847  -6.6945  -6.6939  -6.6934  -6.6832  -6.6825  -6.6814  -6.6707
 -6.6700  -6.6690  -6.6657  -6.6651  -6.6642  -1.6616  -1.4678  -1.4156
 -1.4123  -1.3705  -1.2260  -1.1930  -1.1650  -1.1380  -1.0857  -1.0505
 -1.0430  -1.0258  -1.0005  -0.9876  -0.9651  -0.9576  -0.9490  -0.9417
 -0.8945  -0.8697  -0.8495  -0.8167  -0.7929  -0.7869  -0.7843  -0.7642
 -0.7558  -0.7325  -0.7264  -0.7113  -0.6984  -0.6863  -0.6830  -0.6818
 -0.6744  -0.6593  -0.6579  -0.6515  -0.6302  -0.6186  -0.6158  -0.6035
 -0.5997  -0.5860  -0.5786  -0.5687  -0.5668  -0.5625  -0.5552  -0.5522
 -0.5325  -0.5286  -0.5229  -0.5194  -0.5170  -0.5113  -0.5055  -0.4939
 -0.4863  -0.4802  -0.4771  -0.4744  -0.4697  -0.4632  -0.4580  -0.4272
 -0.3909  -0.3849  -0.3611  -0.3527  -0.3236  -0.2920  -0.2466

          Ground-State Mulliken Net Atomic Charges

     Atom                 Charge (a.u.)
  ----------------------------------------
      1 C                    -0.194653
      2 C                    -0.252798
      3 S                    -0.025675
      4 C                    -0.020327
      5 H                     0.195915
      6 C                    -0.024765
      7 C                     0.231947
      8 C                     0.245318
      9 C                    -0.037641
     10 C                    -0.013632
     11 O                    -0.332980
     12 O                    -0.341749
     13 C                    -0.085537
     14 H                     0.121583
     15 H                     0.090772
     16 H                     0.093415
     17 C                    -0.088679
     18 H                     0.125507
     19 H                     0.095417
     20 H                     0.090099
     21 C                    -0.274184
     22 S                    -0.039493
     23 C                     0.006622
     24 H                     0.185992
     25 H                     0.205462
     26 C                    -0.005991
     27 S                     0.090800
     28 C                    -0.162843
     29 C                     0.022505
     30 C                    -0.117095
     31 S                     0.021325
     32 C                    -0.164809
     33 C                     0.406940
     34 F                    -0.205339
     35 C                     0.446488
     36 O                    -0.461225
     37 O                    -0.301056
     38 C                    -0.058442
     39 H                     0.121555
     40 H                     0.095193
     41 H                     0.095205
     42 H                     0.220856
  ----------------------------------------
  Sum of atomic charges =     0.000000

                    Cartesian Multipole Moments
 -----------------------------------------------------------------
    Charge (ESU x 10^10)
                 0.0000
    Dipole Moment (Debye)
         X       1.4104      Y       1.9643      Z       2.4488
       Tot       3.4416
    Quadrupole Moments (Debye-Ang)
        XX    -197.8571     XY       8.8104     YY    -168.3150
        XZ      -5.2802     YZ      -5.6935     ZZ    -180.7691

 Total job time:  288.57s(wall), 8758.14s(cpu)
        *  Thank you very much for using Q-Chem.  Have a nice day.  *
