 Q-Chem 5.4, Q-Chem, Inc., Pleasanton, CA (2021)
 Q-Chem 5.4.0 for Intel X86 EM64T Linux

User input:
--------------------------------------------------------------
$molecule
0 1
C	0.320589	-8.517702	-0.014560
C	-0.737240	-7.641575	0.180211
S	1.842356	-7.638634	-0.299553
C	-0.366488	-6.264785	0.114873
H	-1.768528	-7.966081	0.368061
C	1.038637	-6.072714	-0.131236
C	1.588197	-4.787049	-0.253435
C	-1.258831	-5.162801	0.249014
C	-0.709695	-3.874817	0.122513
C	0.697430	-3.683952	-0.121043
O	-2.553323	-5.499772	0.505933
O	2.888369	-4.459055	-0.512697
C	3.927625	-5.329063	-0.080869
H	4.869656	-4.755694	-0.173159
H	4.007459	-6.238095	-0.716363
H	3.789565	-5.637262	0.978072
C	-3.600064	-4.572261	0.246949
H	-4.544887	-5.139743	0.344574
H	-3.532074	-4.153131	-0.779898
H	-3.612378	-3.739531	0.983261
C	1.064246	-2.306654	-0.188009
S	-1.517360	-2.306501	0.278644
C	0.000000	-1.435185	0.000000
H	2.094685	-1.978138	-0.373017
H	0.322246	-9.614033	-0.018474
C	0.000000	0.000000	0.000000
S	0.234628	0.873813	1.507541
C	0.640889	2.392969	0.718873
C	0.234815	0.873434	-1.067872
C	0.592377	2.216811	-0.686410
S	0.174526	0.637422	-2.805516
C	0.622551	2.330840	-3.054530
C	0.803505	3.015647	-1.862551
F	1.144815	4.307994	-1.819088
C	0.740334	2.763108	-4.456084
O	0.548793	2.017428	-5.406510
O	1.082665	4.069544	-4.569225
C	1.215848	4.546407	-5.916207
H	1.494066	5.611729	-5.833064
H	0.261736	4.436296	-6.470168
H	2.000108	3.981294	-6.459293
H	0.878739	3.286099	1.306486
$end

$rem
JOBTYPE		SP
EXCHANGE	HF
CORRELATION	pRIMP2
BASIS		cc-pvtz
METHOD		rimp2
AUX_BASIS	rimp2-cc-pvtz
SOLVENT_METHOD	PCM
PURECART	11111
SYMMETRY	false
MEM_TOTAL	110000
SCF_CONVERGENCE = 6
THRESH=10
GUI = 2
$end

$solvent
dielectric 4.90
$end
--------------------------------------------------------------

             Standard Nuclear Orientation (Angstroms)
    I     Atom           X                Y                Z
 ----------------------------------------------------------------
    1      C       0.3205890000    -8.5177020000    -0.0145600000
    2      C      -0.7372400000    -7.6415750000     0.1802110000
    3      S       1.8423560000    -7.6386340000    -0.2995530000
    4      C      -0.3664880000    -6.2647850000     0.1148730000
    5      H      -1.7685280000    -7.9660810000     0.3680610000
    6      C       1.0386370000    -6.0727140000    -0.1312360000
    7      C       1.5881970000    -4.7870490000    -0.2534350000
    8      C      -1.2588310000    -5.1628010000     0.2490140000
    9      C      -0.7096950000    -3.8748170000     0.1225130000
   10      C       0.6974300000    -3.6839520000    -0.1210430000
   11      O      -2.5533230000    -5.4997720000     0.5059330000
   12      O       2.8883690000    -4.4590550000    -0.5126970000
   13      C       3.9276250000    -5.3290630000    -0.0808690000
   14      H       4.8696560000    -4.7556940000    -0.1731590000
   15      H       4.0074590000    -6.2380950000    -0.7163630000
   16      H       3.7895650000    -5.6372620000     0.9780720000
   17      C      -3.6000640000    -4.5722610000     0.2469490000
   18      H      -4.5448870000    -5.1397430000     0.3445740000
   19      H      -3.5320740000    -4.1531310000    -0.7798980000
   20      H      -3.6123780000    -3.7395310000     0.9832610000
   21      C       1.0642460000    -2.3066540000    -0.1880090000
   22      S      -1.5173600000    -2.3065010000     0.2786440000
   23      C       0.0000000000    -1.4351850000     0.0000000000
   24      H       2.0946850000    -1.9781380000    -0.3730170000
   25      H       0.3222460000    -9.6140330000    -0.0184740000
   26      C       0.0000000000     0.0000000000     0.0000000000
   27      S       0.2346280000     0.8738130000     1.5075410000
   28      C       0.6408890000     2.3929690000     0.7188730000
   29      C       0.2348150000     0.8734340000    -1.0678720000
   30      C       0.5923770000     2.2168110000    -0.6864100000
   31      S       0.1745260000     0.6374220000    -2.8055160000
   32      C       0.6225510000     2.3308400000    -3.0545300000
   33      C       0.8035050000     3.0156470000    -1.8625510000
   34      F       1.1448150000     4.3079940000    -1.8190880000
   35      C       0.7403340000     2.7631080000    -4.4560840000
   36      O       0.5487930000     2.0174280000    -5.4065100000
   37      O       1.0826650000     4.0695440000    -4.5692250000
   38      C       1.2158480000     4.5464070000    -5.9162070000
   39      H       1.4940660000     5.6117290000    -5.8330640000
   40      H       0.2617360000     4.4362960000    -6.4701680000
   41      H       2.0001080000     3.9812940000    -6.4592930000
   42      H       0.8787390000     3.2860990000     1.3064860000
 ----------------------------------------------------------------

   10   -2754.3101723197      7.15e-07  Convergence criterion met
 Total energy in the final basis set =    -2754.3101723197
        RIMP2         total energy =     -2759.3604566757 a.u.

                    Orbital Energies (a.u.)
 --------------------------------------------------------------

 Alpha MOs
 -- Occupied --
-92.0142 -91.9969 -91.9879 -91.9863 -26.3426 -20.6142 -20.5922 -20.5916
-20.5604 -11.4086 -11.3815 -11.3189 -11.3183 -11.3103 -11.3012 -11.2962
-11.2947 -11.2915 -11.2884 -11.2868 -11.2862 -11.2858 -11.2839 -11.2834
-11.2800 -11.2604 -11.2591 -11.2579 -11.2500  -9.0126  -8.9969  -8.9883
 -8.9863  -6.6933  -6.6928  -6.6922  -6.6779  -6.6772  -6.6761  -6.6693
 -6.6686  -6.6676  -6.6672  -6.6666  -6.6658  -1.6597  -1.4666  -1.4163
 -1.4143  -1.3692  -1.2201  -1.1941  -1.1650  -1.1350  -1.0841  -1.0518
 -1.0407  -1.0217  -1.0012  -0.9875  -0.9609  -0.9607  -0.9502  -0.9386
 -0.8954  -0.8667  -0.8506  -0.8088  -0.7944  -0.7883  -0.7862  -0.7646
 -0.7548  -0.7337  -0.7246  -0.7090  -0.7008  -0.6845  -0.6830  -0.6800
 -0.6733  -0.6591  -0.6569  -0.6526  -0.6301  -0.6200  -0.6171  -0.6048
 -0.5970  -0.5846  -0.5766  -0.5703  -0.5667  -0.5614  -0.5535  -0.5516
 -0.5305  -0.5301  -0.5238  -0.5162  -0.5146  -0.5083  -0.5038  -0.4946
 -0.4892  -0.4791  -0.4749  -0.4729  -0.4694  -0.4661  -0.4608  -0.4056
 -0.3966  -0.3871  -0.3577  -0.3478  -0.3150  -0.2982  -0.2586

          Ground-State Mulliken Net Atomic Charges

     Atom                 Charge (a.u.)
  ----------------------------------------
      1 C                    -0.187959
      2 C                    -0.254143
      3 S                    -0.021996
      4 C                    -0.014663
      5 H                     0.196386
      6 C                    -0.028737
      7 C                     0.241813
      8 C                     0.242185
      9 C                    -0.053684
     10 C                    -0.023485
     11 O                    -0.333592
     12 O                    -0.339665
     13 C                    -0.085753
     14 H                     0.122684
     15 H                     0.091269
     16 H                     0.093810
     17 C                    -0.086222
     18 H                     0.124529
     19 H                     0.095031
     20 H                     0.089490
     21 C                    -0.201726
     22 S                     0.001653
     23 C                    -0.034934
     24 H                     0.198916
     25 H                     0.206477
     26 C                    -0.055280
     27 S                     0.109062
     28 C                    -0.184862
     29 C                    -0.004605
     30 C                    -0.097484
     31 S                     0.011751
     32 C                    -0.154874
     33 C                     0.391427
     34 F                    -0.207017
     35 C                     0.446113
     36 O                    -0.461319
     37 O                    -0.300769
     38 C                    -0.058460
     39 H                     0.121148
     40 H                     0.095008
     41 H                     0.094971
     42 H                     0.217505
  ----------------------------------------
  Sum of atomic charges =     0.000000

                    Cartesian Multipole Moments
 -----------------------------------------------------------------
    Charge (ESU x 10^10)
                -0.0000
    Dipole Moment (Debye)
         X       0.7692      Y       0.8968      Z       3.2745
       Tot       3.4811
    Quadrupole Moments (Debye-Ang)
        XX    -175.9271     XY       3.1899     YY    -160.6626
        XZ      -0.2952     YZ      -8.3107     ZZ    -206.6733

 Total job time:  304.88s(wall), 9481.30s(cpu)
        *  Thank you very much for using Q-Chem.  Have a nice day.  *
