 Q-Chem 5.4, Q-Chem, Inc., Pleasanton, CA (2021)
 Q-Chem 5.4.0 for Intel X86 EM64T Linux

User input:
--------------------------------------------------------------
$molecule
0 1
C	-0.270358	-8.517702	0.172904
C	0.548363	-7.641575	-0.524688
S	-1.445750	-7.638634	1.180599
C	0.259951	-6.264785	-0.282727
H	1.347559	-7.966081	-1.203014
C	-0.833868	-6.072714	0.632972
C	-1.248701	-4.787049	1.013580
C	0.965673	-5.162801	-0.845068
C	0.553357	-3.874817	-0.460946
C	-0.543470	-3.683952	0.453541
O	1.958276	-5.499772	-1.714812
O	-2.245053	-4.459055	1.888193
C	-3.360989	-5.329063	2.033848
H	-4.130667	-4.755694	2.584788
H	-3.112380	-6.238095	2.624118
H	-3.770895	-5.637262	1.047748
C	2.994272	-4.572261	-2.013896
H	3.763700	-5.139743	-2.570853
H	3.448815	-4.153131	-1.090625
H	2.636780	-3.739531	-2.657717
C	-0.827659	-2.306654	0.694943
S	1.174750	-2.306501	-0.999993
C	0.000000	-1.435185	0.000000
H	-1.627541	-1.978138	1.370385
H	-0.269836	-9.614033	0.177122
C	0.000000	0.000000	0.000000
S	0.693394	0.581209	1.507541
C	1.897536	1.592607	0.718873
C	0.693330	0.580791	-1.067872
C	1.756758	1.476132	-0.686410
S	0.508573	0.422041	-2.805516
C	1.846879	1.552232	-3.054530
C	2.387897	2.009402	-1.862551
F	3.408741	2.872264	-1.819088
C	2.191300	1.838768	-4.456084
O	1.606694	1.337806	-5.406510
O	3.221062	2.712584	-4.569225
C	3.603677	3.026817	-5.916207
H	4.442623	3.739898	-5.833064
H	2.758956	3.483875	-6.470168
H	3.921969	2.114070	-6.459293
H	2.604650	2.187790	1.306486
$end

$rem
JOBTYPE		SP
EXCHANGE	HF
CORRELATION	pRIMP2
BASIS		cc-pvtz
METHOD		rimp2
AUX_BASIS	rimp2-cc-pvtz
SOLVENT_METHOD	PCM
PURECART	11111
SYMMETRY	false
MEM_TOTAL	110000
SCF_CONVERGENCE = 6
THRESH=10
GUI = 2
$end

$solvent
dielectric 4.90
$end
--------------------------------------------------------------

             Standard Nuclear Orientation (Angstroms)
    I     Atom           X                Y                Z
 ----------------------------------------------------------------
    1      C      -0.2703580000    -8.5177020000     0.1729040000
    2      C       0.5483630000    -7.6415750000    -0.5246880000
    3      S      -1.4457500000    -7.6386340000     1.1805990000
    4      C       0.2599510000    -6.2647850000    -0.2827270000
    5      H       1.3475590000    -7.9660810000    -1.2030140000
    6      C      -0.8338680000    -6.0727140000     0.6329720000
    7      C      -1.2487010000    -4.7870490000     1.0135800000
    8      C       0.9656730000    -5.1628010000    -0.8450680000
    9      C       0.5533570000    -3.8748170000    -0.4609460000
   10      C      -0.5434700000    -3.6839520000     0.4535410000
   11      O       1.9582760000    -5.4997720000    -1.7148120000
   12      O      -2.2450530000    -4.4590550000     1.8881930000
   13      C      -3.3609890000    -5.3290630000     2.0338480000
   14      H      -4.1306670000    -4.7556940000     2.5847880000
   15      H      -3.1123800000    -6.2380950000     2.6241180000
   16      H      -3.7708950000    -5.6372620000     1.0477480000
   17      C       2.9942720000    -4.5722610000    -2.0138960000
   18      H       3.7637000000    -5.1397430000    -2.5708530000
   19      H       3.4488150000    -4.1531310000    -1.0906250000
   20      H       2.6367800000    -3.7395310000    -2.6577170000
   21      C      -0.8276590000    -2.3066540000     0.6949430000
   22      S       1.1747500000    -2.3065010000    -0.9999930000
   23      C       0.0000000000    -1.4351850000     0.0000000000
   24      H      -1.6275410000    -1.9781380000     1.3703850000
   25      H      -0.2698360000    -9.6140330000     0.1771220000
   26      C       0.0000000000     0.0000000000     0.0000000000
   27      S       0.6933940000     0.5812090000     1.5075410000
   28      C       1.8975360000     1.5926070000     0.7188730000
   29      C       0.6933300000     0.5807910000    -1.0678720000
   30      C       1.7567580000     1.4761320000    -0.6864100000
   31      S       0.5085730000     0.4220410000    -2.8055160000
   32      C       1.8468790000     1.5522320000    -3.0545300000
   33      C       2.3878970000     2.0094020000    -1.8625510000
   34      F       3.4087410000     2.8722640000    -1.8190880000
   35      C       2.1913000000     1.8387680000    -4.4560840000
   36      O       1.6066940000     1.3378060000    -5.4065100000
   37      O       3.2210620000     2.7125840000    -4.5692250000
   38      C       3.6036770000     3.0268170000    -5.9162070000
   39      H       4.4426230000     3.7398980000    -5.8330640000
   40      H       2.7589560000     3.4838750000    -6.4701680000
   41      H       3.9219690000     2.1140700000    -6.4592930000
   42      H       2.6046500000     2.1877900000     1.3064860000
 ----------------------------------------------------------------

   10   -2754.2684147978      7.99e-07  Convergence criterion met
 Total energy in the final basis set =    -2754.2684147978
        RIMP2         total energy =     -2759.3312859467 a.u.

                    Orbital Energies (a.u.)
 --------------------------------------------------------------

 Alpha MOs
 -- Occupied --
-92.0152 -92.0052 -91.9840 -91.9838 -26.3453 -20.6156 -20.5907 -20.5883
-20.5620 -11.4105 -11.3853 -11.3279 -11.3167 -11.3131 -11.3121 -11.2986
-11.2914 -11.2894 -11.2879 -11.2860 -11.2844 -11.2813 -11.2799 -11.2781
-11.2762 -11.2569 -11.2541 -11.2480 -11.2423  -9.0142  -9.0051  -8.9848
 -8.9838  -6.6948  -6.6940  -6.6936  -6.6860  -6.6852  -6.6842  -6.6657
 -6.6650  -6.6648  -6.6641  -6.6640  -6.6633  -1.6623  -1.4681  -1.4146
 -1.4111  -1.3708  -1.2303  -1.1903  -1.1636  -1.1388  -1.0846  -1.0487
 -1.0434  -1.0262  -0.9981  -0.9864  -0.9651  -0.9569  -0.9485  -0.9397
 -0.8931  -0.8707  -0.8450  -0.8156  -0.7938  -0.7850  -0.7819  -0.7635
 -0.7557  -0.7308  -0.7272  -0.7116  -0.6982  -0.6863  -0.6830  -0.6795
 -0.6747  -0.6598  -0.6571  -0.6506  -0.6287  -0.6177  -0.6156  -0.6079
 -0.5991  -0.5848  -0.5757  -0.5688  -0.5649  -0.5606  -0.5534  -0.5422
 -0.5320  -0.5296  -0.5210  -0.5163  -0.5141  -0.5088  -0.5066  -0.4958
 -0.4876  -0.4824  -0.4758  -0.4738  -0.4683  -0.4617  -0.4574  -0.4104
 -0.3984  -0.3807  -0.3550  -0.3491  -0.3247  -0.2905  -0.2509

          Ground-State Mulliken Net Atomic Charges

     Atom                 Charge (a.u.)
  ----------------------------------------
      1 C                    -0.195623
      2 C                    -0.253557
      3 S                    -0.027043
      4 C                    -0.022200
      5 H                     0.195498
      6 C                    -0.024015
      7 C                     0.228323
      8 C                     0.241921
      9 C                    -0.046154
     10 C                    -0.001460
     11 O                    -0.333360
     12 O                    -0.340935
     13 C                    -0.085679
     14 H                     0.121384
     15 H                     0.090437
     16 H                     0.093181
     17 C                    -0.088403
     18 H                     0.125168
     19 H                     0.093386
     20 H                     0.090501
     21 C                    -0.292752
     22 S                    -0.020911
     23 C                     0.015876
     24 H                     0.191796
     25 H                     0.205077
     26 C                    -0.108081
     27 S                     0.132006
     28 C                    -0.146383
     29 C                    -0.013590
     30 C                    -0.088644
     31 S                     0.065260
     32 C                    -0.151273
     33 C                     0.398795
     34 F                    -0.205692
     35 C                     0.446640
     36 O                    -0.461558
     37 O                    -0.300991
     38 C                    -0.058225
     39 H                     0.121508
     40 H                     0.095394
     41 H                     0.095151
     42 H                     0.219226
  ----------------------------------------
  Sum of atomic charges =     0.000000

                    Cartesian Multipole Moments
 -----------------------------------------------------------------
    Charge (ESU x 10^10)
                 0.0000
    Dipole Moment (Debye)
         X       3.1239      Y       1.9261      Z       2.2422
       Tot       4.3007
    Quadrupole Moments (Debye-Ang)
        XX    -172.2512     XY       8.9910     YY    -176.3017
        XZ     -15.2781     YZ      -2.9398     ZZ    -199.7011

 Total job time:  291.77s(wall), 9206.86s(cpu)
        *  Thank you very much for using Q-Chem.  Have a nice day.  *
