 Q-Chem 5.4, Q-Chem, Inc., Pleasanton, CA (2021)
 Q-Chem 5.4.0 for Intel X86 EM64T Linux

User input:
--------------------------------------------------------------
$molecule
0 1
C	-0.014560	-8.517702	-0.320589
C	0.180211	-7.641575	0.737240
S	-0.299553	-7.638634	-1.842356
C	0.114873	-6.264785	0.366488
H	0.368061	-7.966081	1.768528
C	-0.131236	-6.072714	-1.038637
C	-0.253435	-4.787049	-1.588197
C	0.249014	-5.162801	1.258831
C	0.122513	-3.874817	0.709695
C	-0.121043	-3.683952	-0.697430
O	0.505933	-5.499772	2.553323
O	-0.512697	-4.459055	-2.888369
C	-0.080869	-5.329063	-3.927625
H	-0.173159	-4.755694	-4.869656
H	-0.716363	-6.238095	-4.007459
H	0.978072	-5.637262	-3.789565
C	0.246949	-4.572261	3.600064
H	0.344574	-5.139743	4.544887
H	-0.779898	-4.153131	3.532074
H	0.983261	-3.739531	3.612378
C	-0.188009	-2.306654	-1.064246
S	0.278644	-2.306501	1.517360
C	-0.000000	-1.435185	-0.000000
H	-0.373017	-1.978138	-2.094685
H	-0.018474	-9.614033	-0.322246
C	0.000000	0.000000	0.000000
S	0.309893	0.850039	1.507541
C	0.847011	2.328006	0.718873
C	0.310046	0.849645	-1.067872
C	0.783331	2.156746	-0.686410
S	0.229416	0.619785	-2.805516
C	0.823328	2.267711	-3.054530
C	1.063278	2.934142	-1.862551
F	1.515925	4.191824	-1.819088
C	0.978337	2.688069	-4.456084
O	0.722535	1.961921	-5.406510
O	1.433229	3.959697	-4.569225
C	1.607467	4.423139	-5.916207
H	1.977475	5.460158	-5.833064
H	0.647388	4.396602	-6.470168
H	2.339490	3.791823	-6.459293
H	1.161798	3.197007	1.306486
$end

$rem
JOBTYPE		SP
EXCHANGE	HF
CORRELATION	pRIMP2
BASIS		cc-pvtz
METHOD		rimp2
AUX_BASIS	rimp2-cc-pvtz
SOLVENT_METHOD	PCM
PURECART	11111
SYMMETRY	false
MEM_TOTAL	110000
SCF_CONVERGENCE = 6
THRESH=10
GUI = 2
$end

$solvent
dielectric 4.90
$end
--------------------------------------------------------------

             Standard Nuclear Orientation (Angstroms)
    I     Atom           X                Y                Z
 ----------------------------------------------------------------
    1      C      -0.0145600000    -8.5177020000    -0.3205890000
    2      C       0.1802110000    -7.6415750000     0.7372400000
    3      S      -0.2995530000    -7.6386340000    -1.8423560000
    4      C       0.1148730000    -6.2647850000     0.3664880000
    5      H       0.3680610000    -7.9660810000     1.7685280000
    6      C      -0.1312360000    -6.0727140000    -1.0386370000
    7      C      -0.2534350000    -4.7870490000    -1.5881970000
    8      C       0.2490140000    -5.1628010000     1.2588310000
    9      C       0.1225130000    -3.8748170000     0.7096950000
   10      C      -0.1210430000    -3.6839520000    -0.6974300000
   11      O       0.5059330000    -5.4997720000     2.5533230000
   12      O      -0.5126970000    -4.4590550000    -2.8883690000
   13      C      -0.0808690000    -5.3290630000    -3.9276250000
   14      H      -0.1731590000    -4.7556940000    -4.8696560000
   15      H      -0.7163630000    -6.2380950000    -4.0074590000
   16      H       0.9780720000    -5.6372620000    -3.7895650000
   17      C       0.2469490000    -4.5722610000     3.6000640000
   18      H       0.3445740000    -5.1397430000     4.5448870000
   19      H      -0.7798980000    -4.1531310000     3.5320740000
   20      H       0.9832610000    -3.7395310000     3.6123780000
   21      C      -0.1880090000    -2.3066540000    -1.0642460000
   22      S       0.2786440000    -2.3065010000     1.5173600000
   23      C       0.0000000000    -1.4351850000     0.0000000000
   24      H      -0.3730170000    -1.9781380000    -2.0946850000
   25      H      -0.0184740000    -9.6140330000    -0.3222460000
   26      C       0.0000000000     0.0000000000     0.0000000000
   27      S       0.3098930000     0.8500390000     1.5075410000
   28      C       0.8470110000     2.3280060000     0.7188730000
   29      C       0.3100460000     0.8496450000    -1.0678720000
   30      C       0.7833310000     2.1567460000    -0.6864100000
   31      S       0.2294160000     0.6197850000    -2.8055160000
   32      C       0.8233280000     2.2677110000    -3.0545300000
   33      C       1.0632780000     2.9341420000    -1.8625510000
   34      F       1.5159250000     4.1918240000    -1.8190880000
   35      C       0.9783370000     2.6880690000    -4.4560840000
   36      O       0.7225350000     1.9619210000    -5.4065100000
   37      O       1.4332290000     3.9596970000    -4.5692250000
   38      C       1.6074670000     4.4231390000    -5.9162070000
   39      H       1.9774750000     5.4601580000    -5.8330640000
   40      H       0.6473880000     4.3966020000    -6.4701680000
   41      H       2.3394900000     3.7918230000    -6.4592930000
   42      H       1.1617980000     3.1970070000     1.3064860000
 ----------------------------------------------------------------

   10   -2754.3090472588      7.31e-07  Convergence criterion met
 Total energy in the final basis set =    -2754.3090472588
        RIMP2         total energy =     -2759.3636824710 a.u.

                    Orbital Energies (a.u.)
 --------------------------------------------------------------

 Alpha MOs
 -- Occupied --
-92.0164 -92.0012 -91.9908 -91.9858 -26.3442 -20.6150 -20.5928 -20.5902
-20.5616 -11.4098 -11.3838 -11.3197 -11.3162 -11.3135 -11.3026 -11.2993
-11.2982 -11.2975 -11.2890 -11.2876 -11.2867 -11.2857 -11.2850 -11.2838
-11.2787 -11.2617 -11.2576 -11.2531 -11.2496  -9.0152  -9.0012  -8.9915
 -8.9857  -6.6959  -6.6954  -6.6948  -6.6821  -6.6814  -6.6803  -6.6725
 -6.6718  -6.6708  -6.6667  -6.6661  -6.6652  -1.6612  -1.4676  -1.4168
 -1.4130  -1.3703  -1.2237  -1.1944  -1.1661  -1.1376  -1.0856  -1.0517
 -1.0428  -1.0246  -1.0014  -0.9885  -0.9645  -0.9598  -0.9503  -0.9396
 -0.8963  -0.8690  -0.8516  -0.8092  -0.7990  -0.7883  -0.7857  -0.7640
 -0.7557  -0.7340  -0.7260  -0.7108  -0.7018  -0.6860  -0.6833  -0.6813
 -0.6741  -0.6591  -0.6590  -0.6520  -0.6306  -0.6195  -0.6167  -0.6021
 -0.5992  -0.5857  -0.5793  -0.5711  -0.5649  -0.5605  -0.5566  -0.5483
 -0.5357  -0.5306  -0.5229  -0.5193  -0.5171  -0.5117  -0.5051  -0.4953
 -0.4872  -0.4816  -0.4772  -0.4745  -0.4698  -0.4646  -0.4602  -0.4272
 -0.3963  -0.3837  -0.3613  -0.3484  -0.3279  -0.2897  -0.2496

          Ground-State Mulliken Net Atomic Charges

     Atom                 Charge (a.u.)
  ----------------------------------------
      1 C                    -0.191118
      2 C                    -0.254264
      3 S                    -0.022524
      4 C                    -0.017552
      5 H                     0.195964
      6 C                    -0.026509
      7 C                     0.243141
      8 C                     0.242356
      9 C                    -0.041731
     10 C                    -0.022439
     11 O                    -0.332894
     12 O                    -0.341279
     13 C                    -0.086351
     14 H                     0.123464
     15 H                     0.091390
     16 H                     0.093680
     17 C                    -0.088793
     18 H                     0.125975
     19 H                     0.094984
     20 H                     0.089533
     21 C                    -0.236074
     22 S                    -0.038999
     23 C                    -0.025607
     24 H                     0.189754
     25 H                     0.206063
     26 C                     0.018492
     27 S                     0.082477
     28 C                    -0.180624
     29 C                     0.019933
     30 C                    -0.116358
     31 S                     0.010790
     32 C                    -0.161451
     33 C                     0.404164
     34 F                    -0.205599
     35 C                     0.445603
     36 O                    -0.460976
     37 O                    -0.301022
     38 C                    -0.058426
     39 H                     0.121491
     40 H                     0.095225
     41 H                     0.095194
     42 H                     0.220915
  ----------------------------------------
  Sum of atomic charges =     0.000000

                    Cartesian Multipole Moments
 -----------------------------------------------------------------
    Charge (ESU x 10^10)
                 0.0000
    Dipole Moment (Debye)
         X       1.3283      Y       1.4388      Z       3.0680
       Tot       3.6397
    Quadrupole Moments (Debye-Ang)
        XX    -200.2187     XY       3.9468     YY    -162.6751
        XZ      -4.0676     YZ      -6.9991     ZZ    -180.8773

 Total job time:  16519.98s(wall), 8963.72s(cpu)
        *  Thank you very much for using Q-Chem.  Have a nice day.  *
