 Q-Chem 5.4, Q-Chem, Inc., Pleasanton, CA (2021)
 Q-Chem 5.4.0 for Intel X86 EM64T Linux

User input:
--------------------------------------------------------------
$molecule
0 1
C	-0.095966	-8.517702	0.306235
C	0.082807	-7.641575	-0.754415
S	-0.348635	-7.638634	1.833702
C	0.017401	-6.264785	-0.383675
H	0.259008	-7.966081	-1.787757
C	-0.231913	-6.072714	1.020885
C	-0.305044	-4.787049	1.579097
C	0.196549	-5.162801	-1.268082
C	0.127606	-3.874817	-0.708796
C	-0.124792	-3.683952	0.696769
O	0.397867	-5.499772	-2.572378
O	-0.506103	-4.459055	2.889532
C	-1.267335	-5.329063	3.718420
H	-1.502804	-4.755694	4.635204
H	-0.697471	-6.238095	4.010790
H	-2.215194	-5.637262	3.226506
C	0.999238	-4.572261	-3.467415
H	1.230649	-5.139743	-4.388648
H	1.940905	-4.153131	-3.052323
H	0.311543	-3.739531	-3.730819
C	-0.187323	-2.306654	1.064366
S	0.257128	-2.306501	-1.521154
C	-0.000000	-1.435185	0.000000
H	-0.365903	-1.978138	2.095939
H	-0.092855	-9.614033	0.309131
C	0.000000	0.000000	0.000000
S	0.000474	0.904764	1.507541
C	-0.000295	2.477305	0.718873
C	0.000752	0.904447	-1.067872
C	-0.001560	2.294593	-0.686410
S	0.003602	0.660872	-2.805516
C	-0.001928	2.412546	-3.054530
C	-0.004381	3.120854	-1.862551
F	-0.009185	4.457503	-1.819088
C	-0.000038	2.860570	-4.456084
O	0.007944	2.090724	-5.406510
O	-0.007501	4.211092	-4.569225
C	-0.002278	4.706177	-5.916207
H	-0.009265	5.807207	-5.833064
H	-0.895381	4.352875	-6.470168
H	0.901521	4.363301	-6.459293
H	-0.001708	3.401562	1.306486
$end

$rem
JOBTYPE		SP
EXCHANGE	HF
CORRELATION	pRIMP2
BASIS		cc-pvtz
METHOD		rimp2
AUX_BASIS	rimp2-cc-pvtz
SOLVENT_METHOD	PCM
PURECART	11111
SYMMETRY	false
MEM_TOTAL	110000
SCF_CONVERGENCE = 6
THRESH=10
GUI = 2
$end

$solvent
dielectric 4.90
$end
--------------------------------------------------------------

             Standard Nuclear Orientation (Angstroms)
    I     Atom           X                Y                Z
 ----------------------------------------------------------------
    1      C      -0.0959660000    -8.5177020000     0.3062350000
    2      C       0.0828070000    -7.6415750000    -0.7544150000
    3      S      -0.3486350000    -7.6386340000     1.8337020000
    4      C       0.0174010000    -6.2647850000    -0.3836750000
    5      H       0.2590080000    -7.9660810000    -1.7877570000
    6      C      -0.2319130000    -6.0727140000     1.0208850000
    7      C      -0.3050440000    -4.7870490000     1.5790970000
    8      C       0.1965490000    -5.1628010000    -1.2680820000
    9      C       0.1276060000    -3.8748170000    -0.7087960000
   10      C      -0.1247920000    -3.6839520000     0.6967690000
   11      O       0.3978670000    -5.4997720000    -2.5723780000
   12      O      -0.5061030000    -4.4590550000     2.8895320000
   13      C      -1.2673350000    -5.3290630000     3.7184200000
   14      H      -1.5028040000    -4.7556940000     4.6352040000
   15      H      -0.6974710000    -6.2380950000     4.0107900000
   16      H      -2.2151940000    -5.6372620000     3.2265060000
   17      C       0.9992380000    -4.5722610000    -3.4674150000
   18      H       1.2306490000    -5.1397430000    -4.3886480000
   19      H       1.9409050000    -4.1531310000    -3.0523230000
   20      H       0.3115430000    -3.7395310000    -3.7308190000
   21      C      -0.1873230000    -2.3066540000     1.0643660000
   22      S       0.2571280000    -2.3065010000    -1.5211540000
   23      C       0.0000000000    -1.4351850000     0.0000000000
   24      H      -0.3659030000    -1.9781380000     2.0959390000
   25      H      -0.0928550000    -9.6140330000     0.3091310000
   26      C       0.0000000000     0.0000000000     0.0000000000
   27      S       0.0004740000     0.9047640000     1.5075410000
   28      C      -0.0002950000     2.4773050000     0.7188730000
   29      C       0.0007520000     0.9044470000    -1.0678720000
   30      C      -0.0015600000     2.2945930000    -0.6864100000
   31      S       0.0036020000     0.6608720000    -2.8055160000
   32      C      -0.0019280000     2.4125460000    -3.0545300000
   33      C      -0.0043810000     3.1208540000    -1.8625510000
   34      F      -0.0091850000     4.4575030000    -1.8190880000
   35      C      -0.0000380000     2.8605700000    -4.4560840000
   36      O       0.0079440000     2.0907240000    -5.4065100000
   37      O      -0.0075010000     4.2110920000    -4.5692250000
   38      C      -0.0022780000     4.7061770000    -5.9162070000
   39      H      -0.0092650000     5.8072070000    -5.8330640000
   40      H      -0.8953810000     4.3528750000    -6.4701680000
   41      H       0.9015210000     4.3633010000    -6.4592930000
   42      H      -0.0017080000     3.4015620000     1.3064860000
 ----------------------------------------------------------------

   10   -2754.3162006928      7.80e-07  Convergence criterion met
 Total energy in the final basis set =    -2754.3162006928
        RIMP2         total energy =     -2759.3694575397 a.u.

                    Orbital Energies (a.u.)
 --------------------------------------------------------------

 Alpha MOs
 -- Occupied --
-92.0152 -91.9987 -91.9915 -91.9862 -26.3435 -20.6148 -20.5925 -20.5914
-20.5614 -11.4095 -11.3828 -11.3202 -11.3170 -11.3107 -11.3025 -11.3006
-11.2983 -11.2975 -11.2888 -11.2867 -11.2867 -11.2862 -11.2858 -11.2844
-11.2791 -11.2625 -11.2582 -11.2550 -11.2499  -9.0138  -8.9989  -8.9921
 -8.9862  -6.6946  -6.6941  -6.6935  -6.6799  -6.6791  -6.6780  -6.6731
 -6.6724  -6.6714  -6.6672  -6.6665  -6.6657  -1.6605  -1.4673  -1.4166
 -1.4141  -1.3700  -1.2225  -1.1950  -1.1662  -1.1366  -1.0863  -1.0524
 -1.0417  -1.0243  -1.0025  -0.9884  -0.9645  -0.9586  -0.9500  -0.9413
 -0.8961  -0.8682  -0.8523  -0.8153  -0.7922  -0.7882  -0.7859  -0.7653
 -0.7555  -0.7343  -0.7254  -0.7104  -0.6990  -0.6860  -0.6837  -0.6819
 -0.6739  -0.6593  -0.6584  -0.6526  -0.6311  -0.6199  -0.6169  -0.6030
 -0.5976  -0.5853  -0.5789  -0.5700  -0.5685  -0.5603  -0.5575  -0.5535
 -0.5326  -0.5294  -0.5244  -0.5204  -0.5181  -0.5116  -0.5064  -0.4949
 -0.4873  -0.4782  -0.4773  -0.4752  -0.4699  -0.4643  -0.4594  -0.4275
 -0.3934  -0.3861  -0.3617  -0.3518  -0.3248  -0.2912  -0.2484

          Ground-State Mulliken Net Atomic Charges

     Atom                 Charge (a.u.)
  ----------------------------------------
      1 C                    -0.190189
      2 C                    -0.253363
      3 S                    -0.023001
      4 C                    -0.018728
      5 H                     0.196441
      6 C                    -0.027624
      7 C                     0.241939
      8 C                     0.244866
      9 C                    -0.033652
     10 C                    -0.017444
     11 O                    -0.332582
     12 O                    -0.340871
     13 C                    -0.085727
     14 H                     0.122226
     15 H                     0.091279
     16 H                     0.094041
     17 C                    -0.090244
     18 H                     0.126481
     19 H                     0.095372
     20 H                     0.091339
     21 C                    -0.273526
     22 S                    -0.049696
     23 C                     0.046399
     24 H                     0.185411
     25 H                     0.206253
     26 C                     0.028641
     27 S                     0.085716
     28 C                    -0.182108
     29 C                    -0.000872
     30 C                    -0.130512
     31 S                     0.001282
     32 C                    -0.166911
     33 C                     0.413606
     34 F                    -0.207062
     35 C                     0.442153
     36 O                    -0.461333
     37 O                    -0.300646
     38 C                    -0.058792
     39 H                     0.121482
     40 H                     0.095235
     41 H                     0.095105
     42 H                     0.219617
  ----------------------------------------
  Sum of atomic charges =     0.000000

                    Cartesian Multipole Moments
 -----------------------------------------------------------------
    Charge (ESU x 10^10)
                 0.0000
    Dipole Moment (Debye)
         X      -0.2055      Y       1.2294      Z       2.7073
       Tot       2.9804
    Quadrupole Moments (Debye-Ang)
        XX    -198.2719     XY       1.3175     YY    -160.0961
        XZ      -9.1863     YZ      -6.9402     ZZ    -184.9234

 Total job time:  333.24s(wall), 9859.00s(cpu)
        *  Thank you very much for using Q-Chem.  Have a nice day.  *
