 Q-Chem 5.4, Q-Chem, Inc., Pleasanton, CA (2021)
 Q-Chem 5.4.0 for Intel X86 EM64T Linux

User input:
--------------------------------------------------------------
$molecule
0 1
C	-0.123330	-8.517702	-0.296276
C	0.421494	-7.641575	0.631143
S	-0.911611	-7.638634	-1.628795
C	0.233291	-6.264785	0.305097
H	0.950737	-7.966081	1.535988
C	-0.478557	-6.072714	-0.931114
C	-0.781346	-4.787049	-1.405737
C	0.664542	-5.162801	1.097747
C	0.357854	-3.874817	0.624993
C	-0.352278	-3.683952	-0.613970
O	1.348709	-5.499772	2.226300
O	-1.469658	-4.459055	-2.538827
C	-1.419319	-5.329063	-3.663102
H	-1.828237	-4.755694	-4.516756
H	-2.043793	-6.238095	-3.520769
H	-0.377021	-5.637262	-3.895546
C	1.463351	-4.572261	3.298492
H	1.878237	-5.139743	4.152945
H	0.475176	-4.153131	3.585804
H	2.159469	-3.739531	3.058230
C	-0.540664	-2.306654	-0.935761
S	0.780808	-2.306501	1.330550
C	-0.000000	-1.435185	-0.000000
H	-1.066946	-1.978138	-1.840780
H	-0.127575	-9.614033	-0.296494
C	0.000000	0.000000	0.000000
S	0.079327	0.901280	1.507541
C	0.215617	2.467903	0.718873
C	0.079577	0.900940	-1.067872
C	0.198433	2.285998	-0.686410
S	0.061187	0.658044	-2.805516
C	0.208347	2.403534	-3.054530
C	0.267636	3.109360	-1.862551
F	0.379347	4.441341	-1.819088
C	0.249278	2.849688	-4.456084
O	0.190132	2.082076	-5.406510
O	0.359548	4.195721	-4.569225
C	0.407901	4.688467	-5.916207
H	0.496901	5.785916	-5.833064
H	-0.512596	4.414348	-6.470168
H	1.278377	4.268124	-6.459293
H	0.294764	3.388767	1.306486
$end

$rem
JOBTYPE		SP
EXCHANGE	HF
CORRELATION	pRIMP2
BASIS		cc-pvtz
METHOD		rimp2
AUX_BASIS	rimp2-cc-pvtz
SOLVENT_METHOD	PCM
PURECART	11111
SYMMETRY	false
MEM_TOTAL	110000
SCF_CONVERGENCE = 6
THRESH=10
GUI = 2
$end

$solvent
dielectric 4.90
$end
--------------------------------------------------------------

             Standard Nuclear Orientation (Angstroms)
    I     Atom           X                Y                Z
 ----------------------------------------------------------------
    1      C      -0.1233300000    -8.5177020000    -0.2962760000
    2      C       0.4214940000    -7.6415750000     0.6311430000
    3      S      -0.9116110000    -7.6386340000    -1.6287950000
    4      C       0.2332910000    -6.2647850000     0.3050970000
    5      H       0.9507370000    -7.9660810000     1.5359880000
    6      C      -0.4785570000    -6.0727140000    -0.9311140000
    7      C      -0.7813460000    -4.7870490000    -1.4057370000
    8      C       0.6645420000    -5.1628010000     1.0977470000
    9      C       0.3578540000    -3.8748170000     0.6249930000
   10      C      -0.3522780000    -3.6839520000    -0.6139700000
   11      O       1.3487090000    -5.4997720000     2.2263000000
   12      O      -1.4696580000    -4.4590550000    -2.5388270000
   13      C      -1.4193190000    -5.3290630000    -3.6631020000
   14      H      -1.8282370000    -4.7556940000    -4.5167560000
   15      H      -2.0437930000    -6.2380950000    -3.5207690000
   16      H      -0.3770210000    -5.6372620000    -3.8955460000
   17      C       1.4633510000    -4.5722610000     3.2984920000
   18      H       1.8782370000    -5.1397430000     4.1529450000
   19      H       0.4751760000    -4.1531310000     3.5858040000
   20      H       2.1594690000    -3.7395310000     3.0582300000
   21      C      -0.5406640000    -2.3066540000    -0.9357610000
   22      S       0.7808080000    -2.3065010000     1.3305500000
   23      C       0.0000000000    -1.4351850000     0.0000000000
   24      H      -1.0669460000    -1.9781380000    -1.8407800000
   25      H      -0.1275750000    -9.6140330000    -0.2964940000
   26      C       0.0000000000     0.0000000000     0.0000000000
   27      S       0.0793270000     0.9012800000     1.5075410000
   28      C       0.2156170000     2.4679030000     0.7188730000
   29      C       0.0795770000     0.9009400000    -1.0678720000
   30      C       0.1984330000     2.2859980000    -0.6864100000
   31      S       0.0611870000     0.6580440000    -2.8055160000
   32      C       0.2083470000     2.4035340000    -3.0545300000
   33      C       0.2676360000     3.1093600000    -1.8625510000
   34      F       0.3793470000     4.4413410000    -1.8190880000
   35      C       0.2492780000     2.8496880000    -4.4560840000
   36      O       0.1901320000     2.0820760000    -5.4065100000
   37      O       0.3595480000     4.1957210000    -4.5692250000
   38      C       0.4079010000     4.6884670000    -5.9162070000
   39      H       0.4969010000     5.7859160000    -5.8330640000
   40      H      -0.5125960000     4.4143480000    -6.4701680000
   41      H       1.2783770000     4.2681240000    -6.4592930000
   42      H       0.2947640000     3.3887670000     1.3064860000
 ----------------------------------------------------------------

   10   -2754.3166309657      7.36e-07  Convergence criterion met
 Total energy in the final basis set =    -2754.3166309657
        RIMP2         total energy =     -2759.3682978361 a.u.

                    Orbital Energies (a.u.)
 --------------------------------------------------------------

 Alpha MOs
 -- Occupied --
-92.0160 -91.9984 -91.9916 -91.9865 -26.3432 -20.6147 -20.5931 -20.5911
-20.5612 -11.4093 -11.3823 -11.3201 -11.3177 -11.3094 -11.3014 -11.2996
-11.2975 -11.2967 -11.2887 -11.2878 -11.2869 -11.2855 -11.2854 -11.2844
-11.2797 -11.2620 -11.2589 -11.2563 -11.2501  -9.0146  -8.9984  -8.9921
 -8.9864  -6.6953  -6.6948  -6.6942  -6.6794  -6.6787  -6.6776  -6.6731
 -6.6724  -6.6714  -6.6673  -6.6667  -6.6659  -1.6602  -1.4672  -1.4171
 -1.4139  -1.3699  -1.2216  -1.1951  -1.1663  -1.1364  -1.0855  -1.0524
 -1.0417  -1.0233  -1.0022  -0.9885  -0.9638  -0.9600  -0.9506  -0.9392
 -0.8966  -0.8678  -0.8524  -0.8081  -0.7987  -0.7878  -0.7866  -0.7646
 -0.7553  -0.7345  -0.7251  -0.7097  -0.7021  -0.6854  -0.6836  -0.6807
 -0.6738  -0.6595  -0.6583  -0.6525  -0.6308  -0.6200  -0.6172  -0.6032
 -0.5980  -0.5857  -0.5786  -0.5707  -0.5658  -0.5599  -0.5552  -0.5501
 -0.5357  -0.5306  -0.5225  -0.5186  -0.5169  -0.5112  -0.5051  -0.4953
 -0.4878  -0.4803  -0.4768  -0.4741  -0.4694  -0.4674  -0.4614  -0.4223
 -0.3964  -0.3852  -0.3598  -0.3496  -0.3256  -0.2905  -0.2521

          Ground-State Mulliken Net Atomic Charges

     Atom                 Charge (a.u.)
  ----------------------------------------
      1 C                    -0.188928
      2 C                    -0.254205
      3 S                    -0.021389
      4 C                    -0.015202
      5 H                     0.196222
      6 C                    -0.027271
      7 C                     0.243754
      8 C                     0.239653
      9 C                    -0.042962
     10 C                    -0.027009
     11 O                    -0.332862
     12 O                    -0.340092
     13 C                    -0.085984
     14 H                     0.123436
     15 H                     0.091052
     16 H                     0.094103
     17 C                    -0.087856
     18 H                     0.125537
     19 H                     0.094761
     20 H                     0.089796
     21 C                    -0.234595
     22 S                    -0.025948
     23 C                    -0.022833
     24 H                     0.196499
     25 H                     0.206406
     26 C                    -0.000143
     27 S                     0.083852
     28 C                    -0.185276
     29 C                     0.029650
     30 C                    -0.118802
     31 S                     0.005539
     32 C                    -0.155279
     33 C                     0.397415
     34 F                    -0.206788
     35 C                     0.444766
     36 O                    -0.460791
     37 O                    -0.300567
     38 C                    -0.058665
     39 H                     0.121410
     40 H                     0.095141
     41 H                     0.095101
     42 H                     0.219353
  ----------------------------------------
  Sum of atomic charges =     0.000000

                    Cartesian Multipole Moments
 -----------------------------------------------------------------
    Charge (ESU x 10^10)
                 0.0000
    Dipole Moment (Debye)
         X       0.5072      Y       1.0186      Z       2.9746
       Tot       3.1848
    Quadrupole Moments (Debye-Ang)
        XX    -200.0655     XY       0.2810     YY    -159.3169
        XZ       6.3560     YZ      -6.6115     ZZ    -183.1370

 Total job time:  285.04s(wall), 9318.54s(cpu)
        *  Thank you very much for using Q-Chem.  Have a nice day.  *
