 Q-Chem 5.4, Q-Chem, Inc., Pleasanton, CA (2021)
 Q-Chem 5.4.0 for Intel X86 EM64T Linux

User input:
--------------------------------------------------------------
$molecule
0 1
C	0.147685	-8.517702	-0.284919
C	-0.212552	-7.641575	0.728574
S	0.661757	-7.638634	-1.745304
C	-0.083761	-6.264785	0.374824
H	-0.565513	-7.966081	1.715621
C	0.405665	-6.072714	-0.965104
C	0.574617	-4.787049	-1.502136
C	-0.413763	-5.162801	1.214687
C	-0.248748	-3.874817	0.675870
C	0.243888	-3.683952	-0.664513
O	-0.838511	-5.499772	2.464209
O	1.000176	-4.459055	-2.757750
C	1.893778	-5.329063	-3.441858
H	2.284868	-4.755694	-4.303826
H	1.383341	-6.238095	-3.828743
H	2.741817	-5.637262	-2.792824
C	-1.586168	-4.572261	3.241222
H	-1.974033	-5.139743	4.108274
H	-2.441448	-4.153131	2.668916
H	-0.954660	-3.739531	3.620041
C	0.369302	-2.306654	-1.015668
S	-0.517367	-2.306501	1.453394
C	0.000000	-1.435185	0.000000
H	0.724300	-1.978138	-2.000559
H	0.145124	-9.614033	-0.288311
C	0.000000	0.000000	0.000000
S	0.000474	0.904764	1.507541
C	-0.000295	2.477305	0.718873
C	0.000752	0.904447	-1.067872
C	-0.001560	2.294593	-0.686410
S	0.003602	0.660872	-2.805516
C	-0.001928	2.412546	-3.054530
C	-0.004381	3.120854	-1.862551
F	-0.009185	4.457503	-1.819088
C	-0.000038	2.860570	-4.456084
O	0.007944	2.090724	-5.406510
O	-0.007501	4.211092	-4.569225
C	-0.002278	4.706177	-5.916207
H	-0.009265	5.807207	-5.833064
H	-0.895381	4.352875	-6.470168
H	0.901521	4.363301	-6.459293
H	-0.001708	3.401562	1.306486
$end

$rem
JOBTYPE		SP
EXCHANGE	HF
CORRELATION	pRIMP2
BASIS		cc-pvtz
METHOD		rimp2
AUX_BASIS	rimp2-cc-pvtz
SOLVENT_METHOD	PCM
PURECART	11111
SYMMETRY	false
MEM_TOTAL	110000
SCF_CONVERGENCE = 6
THRESH=10
GUI = 2
$end

$solvent
dielectric 4.90
$end
--------------------------------------------------------------

             Standard Nuclear Orientation (Angstroms)
    I     Atom           X                Y                Z
 ----------------------------------------------------------------
    1      C       0.1476850000    -8.5177020000    -0.2849190000
    2      C      -0.2125520000    -7.6415750000     0.7285740000
    3      S       0.6617570000    -7.6386340000    -1.7453040000
    4      C      -0.0837610000    -6.2647850000     0.3748240000
    5      H      -0.5655130000    -7.9660810000     1.7156210000
    6      C       0.4056650000    -6.0727140000    -0.9651040000
    7      C       0.5746170000    -4.7870490000    -1.5021360000
    8      C      -0.4137630000    -5.1628010000     1.2146870000
    9      C      -0.2487480000    -3.8748170000     0.6758700000
   10      C       0.2438880000    -3.6839520000    -0.6645130000
   11      O      -0.8385110000    -5.4997720000     2.4642090000
   12      O       1.0001760000    -4.4590550000    -2.7577500000
   13      C       1.8937780000    -5.3290630000    -3.4418580000
   14      H       2.2848680000    -4.7556940000    -4.3038260000
   15      H       1.3833410000    -6.2380950000    -3.8287430000
   16      H       2.7418170000    -5.6372620000    -2.7928240000
   17      C      -1.5861680000    -4.5722610000     3.2412220000
   18      H      -1.9740330000    -5.1397430000     4.1082740000
   19      H      -2.4414480000    -4.1531310000     2.6689160000
   20      H      -0.9546600000    -3.7395310000     3.6200410000
   21      C       0.3693020000    -2.3066540000    -1.0156680000
   22      S      -0.5173670000    -2.3065010000     1.4533940000
   23      C       0.0000000000    -1.4351850000     0.0000000000
   24      H       0.7243000000    -1.9781380000    -2.0005590000
   25      H       0.1451240000    -9.6140330000    -0.2883110000
   26      C       0.0000000000     0.0000000000     0.0000000000
   27      S       0.0004740000     0.9047640000     1.5075410000
   28      C      -0.0002950000     2.4773050000     0.7188730000
   29      C       0.0007520000     0.9044470000    -1.0678720000
   30      C      -0.0015600000     2.2945930000    -0.6864100000
   31      S       0.0036020000     0.6608720000    -2.8055160000
   32      C      -0.0019280000     2.4125460000    -3.0545300000
   33      C      -0.0043810000     3.1208540000    -1.8625510000
   34      F      -0.0091850000     4.4575030000    -1.8190880000
   35      C      -0.0000380000     2.8605700000    -4.4560840000
   36      O       0.0079440000     2.0907240000    -5.4065100000
   37      O      -0.0075010000     4.2110920000    -4.5692250000
   38      C      -0.0022780000     4.7061770000    -5.9162070000
   39      H      -0.0092650000     5.8072070000    -5.8330640000
   40      H      -0.8953810000     4.3528750000    -6.4701680000
   41      H       0.9015210000     4.3633010000    -6.4592930000
   42      H      -0.0017080000     3.4015620000     1.3064860000
 ----------------------------------------------------------------

   10   -2754.3169210822      7.53e-07  Convergence criterion met
 Total energy in the final basis set =    -2754.3169210822
        RIMP2         total energy =     -2759.3691028366 a.u.

                    Orbital Energies (a.u.)
 --------------------------------------------------------------

 Alpha MOs
 -- Occupied --
-92.0163 -91.9990 -91.9916 -91.9865 -26.3434 -20.6148 -20.5931 -20.5912
-20.5613 -11.4094 -11.3826 -11.3203 -11.3178 -11.3096 -11.3021 -11.2994
-11.2977 -11.2974 -11.2888 -11.2878 -11.2872 -11.2857 -11.2856 -11.2845
-11.2797 -11.2624 -11.2590 -11.2566 -11.2501  -9.0149  -8.9990  -8.9921
 -8.9864  -6.6957  -6.6951  -6.6946  -6.6800  -6.6793  -6.6782  -6.6731
 -6.6724  -6.6715  -6.6674  -6.6668  -6.6659  -1.6604  -1.4673  -1.4172
 -1.4139  -1.3699  -1.2219  -1.1953  -1.1665  -1.1367  -1.0858  -1.0526
 -1.0419  -1.0236  -1.0023  -0.9888  -0.9641  -0.9600  -0.9507  -0.9394
 -0.8969  -0.8681  -0.8527  -0.8083  -0.7992  -0.7882  -0.7865  -0.7646
 -0.7554  -0.7347  -0.7253  -0.7099  -0.7022  -0.6857  -0.6838  -0.6808
 -0.6738  -0.6596  -0.6586  -0.6526  -0.6310  -0.6201  -0.6172  -0.6024
 -0.5981  -0.5848  -0.5796  -0.5710  -0.5651  -0.5621  -0.5541  -0.5507
 -0.5358  -0.5304  -0.5247  -0.5191  -0.5166  -0.5100  -0.5063  -0.4961
 -0.4880  -0.4817  -0.4767  -0.4740  -0.4693  -0.4662  -0.4601  -0.4261
 -0.3966  -0.3848  -0.3608  -0.3491  -0.3272  -0.2895  -0.2512

          Ground-State Mulliken Net Atomic Charges

     Atom                 Charge (a.u.)
  ----------------------------------------
      1 C                    -0.189076
      2 C                    -0.254069
      3 S                    -0.021041
      4 C                    -0.016626
      5 H                     0.196205
      6 C                    -0.028652
      7 C                     0.247176
      8 C                     0.241100
      9 C                    -0.040615
     10 C                    -0.032539
     11 O                    -0.332998
     12 O                    -0.339678
     13 C                    -0.086297
     14 H                     0.123398
     15 H                     0.091444
     16 H                     0.093839
     17 C                    -0.088477
     18 H                     0.126029
     19 H                     0.095332
     20 H                     0.089461
     21 C                    -0.216138
     22 S                    -0.035884
     23 C                    -0.015848
     24 H                     0.191873
     25 H                     0.206422
     26 C                    -0.002248
     27 S                     0.081369
     28 C                    -0.189212
     29 C                     0.031331
     30 C                    -0.124102
     31 S                     0.005549
     32 C                    -0.159736
     33 C                     0.403968
     34 F                    -0.206866
     35 C                     0.443731
     36 O                    -0.460824
     37 O                    -0.300573
     38 C                    -0.058705
     39 H                     0.121456
     40 H                     0.095262
     41 H                     0.095090
     42 H                     0.220169
  ----------------------------------------
  Sum of atomic charges =     0.000000

                    Cartesian Multipole Moments
 -----------------------------------------------------------------
    Charge (ESU x 10^10)
                 0.0000
    Dipole Moment (Debye)
         X       0.1772      Y       1.0459      Z       3.1786
       Tot       3.3509
    Quadrupole Moments (Debye-Ang)
        XX    -194.5727     XY      -1.3899     YY    -158.9514
        XZ     -11.6088     YZ      -7.8424     ZZ    -188.6741

 Total job time:  304.41s(wall), 9295.74s(cpu)
        *  Thank you very much for using Q-Chem.  Have a nice day.  *
