 Q-Chem 5.4, Q-Chem, Inc., Pleasanton, CA (2021)
 Q-Chem 5.4.0 for Intel X86 EM64T Linux

User input:
--------------------------------------------------------------
$molecule
0 1
C	0.014560	-8.517702	0.320589
C	-0.180211	-7.641575	-0.737240
S	0.299553	-7.638634	1.842356
C	-0.114873	-6.264785	-0.366488
H	-0.368061	-7.966081	-1.768528
C	0.131236	-6.072714	1.038637
C	0.253435	-4.787049	1.588197
C	-0.249014	-5.162801	-1.258831
C	-0.122513	-3.874817	-0.709695
C	0.121043	-3.683952	0.697430
O	-0.505933	-5.499772	-2.553323
O	0.512697	-4.459055	2.888369
C	0.080869	-5.329063	3.927625
H	0.173159	-4.755694	4.869656
H	0.716363	-6.238095	4.007459
H	-0.978072	-5.637262	3.789565
C	-0.246949	-4.572261	-3.600064
H	-0.344574	-5.139743	-4.544887
H	0.779898	-4.153131	-3.532074
H	-0.983261	-3.739531	-3.612378
C	0.188009	-2.306654	1.064246
S	-0.278644	-2.306501	-1.517360
C	0.000000	-1.435185	0.000000
H	0.373017	-1.978138	2.094685
H	0.018474	-9.614033	0.322246
C	0.000000	0.000000	0.000000
S	0.234628	0.873813	1.507541
C	0.640889	2.392969	0.718873
C	0.234815	0.873434	-1.067872
C	0.592377	2.216811	-0.686410
S	0.174526	0.637422	-2.805516
C	0.622551	2.330840	-3.054530
C	0.803505	3.015647	-1.862551
F	1.144815	4.307994	-1.819088
C	0.740334	2.763108	-4.456084
O	0.548793	2.017428	-5.406510
O	1.082665	4.069544	-4.569225
C	1.215848	4.546407	-5.916207
H	1.494066	5.611729	-5.833064
H	0.261736	4.436296	-6.470168
H	2.000108	3.981294	-6.459293
H	0.878739	3.286099	1.306486
$end

$rem
JOBTYPE		SP
EXCHANGE	HF
CORRELATION	pRIMP2
BASIS		cc-pvtz
METHOD		rimp2
AUX_BASIS	rimp2-cc-pvtz
SOLVENT_METHOD	PCM
PURECART	11111
SYMMETRY	false
MEM_TOTAL	110000
SCF_CONVERGENCE = 6
THRESH=10
GUI = 2
$end

$solvent
dielectric 4.90
$end
--------------------------------------------------------------

             Standard Nuclear Orientation (Angstroms)
    I     Atom           X                Y                Z
 ----------------------------------------------------------------
    1      C       0.0145600000    -8.5177020000     0.3205890000
    2      C      -0.1802110000    -7.6415750000    -0.7372400000
    3      S       0.2995530000    -7.6386340000     1.8423560000
    4      C      -0.1148730000    -6.2647850000    -0.3664880000
    5      H      -0.3680610000    -7.9660810000    -1.7685280000
    6      C       0.1312360000    -6.0727140000     1.0386370000
    7      C       0.2534350000    -4.7870490000     1.5881970000
    8      C      -0.2490140000    -5.1628010000    -1.2588310000
    9      C      -0.1225130000    -3.8748170000    -0.7096950000
   10      C       0.1210430000    -3.6839520000     0.6974300000
   11      O      -0.5059330000    -5.4997720000    -2.5533230000
   12      O       0.5126970000    -4.4590550000     2.8883690000
   13      C       0.0808690000    -5.3290630000     3.9276250000
   14      H       0.1731590000    -4.7556940000     4.8696560000
   15      H       0.7163630000    -6.2380950000     4.0074590000
   16      H      -0.9780720000    -5.6372620000     3.7895650000
   17      C      -0.2469490000    -4.5722610000    -3.6000640000
   18      H      -0.3445740000    -5.1397430000    -4.5448870000
   19      H       0.7798980000    -4.1531310000    -3.5320740000
   20      H      -0.9832610000    -3.7395310000    -3.6123780000
   21      C       0.1880090000    -2.3066540000     1.0642460000
   22      S      -0.2786440000    -2.3065010000    -1.5173600000
   23      C       0.0000000000    -1.4351850000     0.0000000000
   24      H       0.3730170000    -1.9781380000     2.0946850000
   25      H       0.0184740000    -9.6140330000     0.3222460000
   26      C       0.0000000000     0.0000000000     0.0000000000
   27      S       0.2346280000     0.8738130000     1.5075410000
   28      C       0.6408890000     2.3929690000     0.7188730000
   29      C       0.2348150000     0.8734340000    -1.0678720000
   30      C       0.5923770000     2.2168110000    -0.6864100000
   31      S       0.1745260000     0.6374220000    -2.8055160000
   32      C       0.6225510000     2.3308400000    -3.0545300000
   33      C       0.8035050000     3.0156470000    -1.8625510000
   34      F       1.1448150000     4.3079940000    -1.8190880000
   35      C       0.7403340000     2.7631080000    -4.4560840000
   36      O       0.5487930000     2.0174280000    -5.4065100000
   37      O       1.0826650000     4.0695440000    -4.5692250000
   38      C       1.2158480000     4.5464070000    -5.9162070000
   39      H       1.4940660000     5.6117290000    -5.8330640000
   40      H       0.2617360000     4.4362960000    -6.4701680000
   41      H       2.0001080000     3.9812940000    -6.4592930000
   42      H       0.8787390000     3.2860990000     1.3064860000
 ----------------------------------------------------------------

   10   -2754.3120874792      7.51e-07  Convergence criterion met
 Total energy in the final basis set =    -2754.3120874792
        RIMP2         total energy =     -2759.3663585243 a.u.

                    Orbital Energies (a.u.)
 --------------------------------------------------------------

 Alpha MOs
 -- Occupied --
-92.0152 -91.9996 -91.9909 -91.9858 -26.3438 -20.6149 -20.5923 -20.5908
-20.5615 -11.4097 -11.3832 -11.3199 -11.3162 -11.3127 -11.3028 -11.3005
-11.2984 -11.2977 -11.2889 -11.2865 -11.2862 -11.2860 -11.2860 -11.2840
-11.2786 -11.2620 -11.2575 -11.2531 -11.2496  -9.0138  -8.9997  -8.9915
 -8.9858  -6.6946  -6.6940  -6.6935  -6.6807  -6.6800  -6.6788  -6.6725
 -6.6718  -6.6709  -6.6668  -6.6661  -6.6653  -1.6608  -1.4674  -1.4163
 -1.4136  -1.3702  -1.2234  -1.1945  -1.1658  -1.1370  -1.0861  -1.0519
 -1.0420  -1.0247  -1.0019  -0.9882  -0.9646  -0.9584  -0.9497  -0.9414
 -0.8956  -0.8686  -0.8516  -0.8157  -0.7923  -0.7879  -0.7856  -0.7650
 -0.7556  -0.7338  -0.7257  -0.7107  -0.6989  -0.6860  -0.6834  -0.6820
 -0.6740  -0.6592  -0.6584  -0.6523  -0.6308  -0.6196  -0.6165  -0.6030
 -0.5983  -0.5860  -0.5785  -0.5691  -0.5682  -0.5620  -0.5561  -0.5534
 -0.5325  -0.5292  -0.5231  -0.5203  -0.5182  -0.5115  -0.5061  -0.4944
 -0.4870  -0.4790  -0.4772  -0.4748  -0.4700  -0.4643  -0.4591  -0.4272
 -0.3927  -0.3860  -0.3616  -0.3520  -0.3244  -0.2916  -0.2479

          Ground-State Mulliken Net Atomic Charges

     Atom                 Charge (a.u.)
  ----------------------------------------
      1 C                    -0.191504
      2 C                    -0.253057
      3 S                    -0.023632
      4 C                    -0.017680
      5 H                     0.196308
      6 C                    -0.026273
      7 C                     0.236108
      8 C                     0.244181
      9 C                    -0.035675
     10 C                    -0.016868
     11 O                    -0.332838
     12 O                    -0.341210
     13 C                    -0.085601
     14 H                     0.122054
     15 H                     0.091098
     16 H                     0.093825
     17 C                    -0.089143
     18 H                     0.125883
     19 H                     0.095751
     20 H                     0.090434
     21 C                    -0.269980
     22 S                    -0.041599
     23 C                     0.020678
     24 H                     0.186283
     25 H                     0.206040
     26 C                     0.021041
     27 S                     0.085134
     28 C                    -0.176522
     29 C                     0.012234
     30 C                    -0.124996
     31 S                     0.007121
     32 C                    -0.166583
     33 C                     0.409292
     34 F                    -0.206222
     35 C                     0.444731
     36 O                    -0.461154
     37 O                    -0.300887
     38 C                    -0.058525
     39 H                     0.121457
     40 H                     0.095149
     41 H                     0.095138
     42 H                     0.220008
  ----------------------------------------
  Sum of atomic charges =     0.000000

                    Cartesian Multipole Moments
 -----------------------------------------------------------------
    Charge (ESU x 10^10)
                 0.0000
    Dipole Moment (Debye)
         X       0.5067      Y       1.4274      Z       2.6976
       Tot       3.0938
    Quadrupole Moments (Debye-Ang)
        XX    -201.0589     XY       5.5439     YY    -162.2360
        XZ      -3.4305     YZ      -6.9706     ZZ    -180.9593

 Total job time:  303.69s(wall), 9305.30s(cpu)
        *  Thank you very much for using Q-Chem.  Have a nice day.  *
