 Q-Chem 5.4, Q-Chem, Inc., Pleasanton, CA (2021)
 Q-Chem 5.4.0 for Intel X86 EM64T Linux

User input:
--------------------------------------------------------------
$molecule
0 1
C	-0.320589	-8.517702	0.014560
C	0.737240	-7.641575	-0.180211
S	-1.842356	-7.638634	0.299553
C	0.366488	-6.264785	-0.114873
H	1.768528	-7.966081	-0.368061
C	-1.038637	-6.072714	0.131236
C	-1.588197	-4.787049	0.253435
C	1.258831	-5.162801	-0.249014
C	0.709695	-3.874817	-0.122513
C	-0.697430	-3.683952	0.121043
O	2.553323	-5.499772	-0.505933
O	-2.888369	-4.459055	0.512697
C	-3.927625	-5.329063	0.080869
H	-4.869656	-4.755694	0.173159
H	-4.007459	-6.238095	0.716363
H	-3.789565	-5.637262	-0.978072
C	3.600064	-4.572261	-0.246949
H	4.544887	-5.139743	-0.344574
H	3.532074	-4.153131	0.779898
H	3.612378	-3.739531	-0.983261
C	-1.064246	-2.306654	0.188009
S	1.517360	-2.306501	-0.278644
C	-0.000000	-1.435185	-0.000000
H	-2.094685	-1.978138	0.373017
H	-0.322246	-9.614033	0.018474
C	0.000000	0.000000	0.000000
S	0.079327	0.901280	1.507541
C	0.215617	2.467903	0.718873
C	0.079577	0.900940	-1.067872
C	0.198433	2.285998	-0.686410
S	0.061187	0.658044	-2.805516
C	0.208347	2.403534	-3.054530
C	0.267636	3.109360	-1.862551
F	0.379347	4.441341	-1.819088
C	0.249278	2.849688	-4.456084
O	0.190132	2.082076	-5.406510
O	0.359548	4.195721	-4.569225
C	0.407901	4.688467	-5.916207
H	0.496901	5.785916	-5.833064
H	-0.512596	4.414348	-6.470168
H	1.278377	4.268124	-6.459293
H	0.294764	3.388767	1.306486
$end

$rem
JOBTYPE		SP
EXCHANGE	HF
CORRELATION	pRIMP2
BASIS		cc-pvtz
METHOD		rimp2
AUX_BASIS	rimp2-cc-pvtz
SOLVENT_METHOD	PCM
PURECART	11111
SYMMETRY	false
MEM_TOTAL	110000
SCF_CONVERGENCE = 6
THRESH=10
GUI = 2
$end

$solvent
dielectric 4.90
$end
--------------------------------------------------------------

             Standard Nuclear Orientation (Angstroms)
    I     Atom           X                Y                Z
 ----------------------------------------------------------------
    1      C      -0.3205890000    -8.5177020000     0.0145600000
    2      C       0.7372400000    -7.6415750000    -0.1802110000
    3      S      -1.8423560000    -7.6386340000     0.2995530000
    4      C       0.3664880000    -6.2647850000    -0.1148730000
    5      H       1.7685280000    -7.9660810000    -0.3680610000
    6      C      -1.0386370000    -6.0727140000     0.1312360000
    7      C      -1.5881970000    -4.7870490000     0.2534350000
    8      C       1.2588310000    -5.1628010000    -0.2490140000
    9      C       0.7096950000    -3.8748170000    -0.1225130000
   10      C      -0.6974300000    -3.6839520000     0.1210430000
   11      O       2.5533230000    -5.4997720000    -0.5059330000
   12      O      -2.8883690000    -4.4590550000     0.5126970000
   13      C      -3.9276250000    -5.3290630000     0.0808690000
   14      H      -4.8696560000    -4.7556940000     0.1731590000
   15      H      -4.0074590000    -6.2380950000     0.7163630000
   16      H      -3.7895650000    -5.6372620000    -0.9780720000
   17      C       3.6000640000    -4.5722610000    -0.2469490000
   18      H       4.5448870000    -5.1397430000    -0.3445740000
   19      H       3.5320740000    -4.1531310000     0.7798980000
   20      H       3.6123780000    -3.7395310000    -0.9832610000
   21      C      -1.0642460000    -2.3066540000     0.1880090000
   22      S       1.5173600000    -2.3065010000    -0.2786440000
   23      C       0.0000000000    -1.4351850000     0.0000000000
   24      H      -2.0946850000    -1.9781380000     0.3730170000
   25      H      -0.3222460000    -9.6140330000     0.0184740000
   26      C       0.0000000000     0.0000000000     0.0000000000
   27      S       0.0793270000     0.9012800000     1.5075410000
   28      C       0.2156170000     2.4679030000     0.7188730000
   29      C       0.0795770000     0.9009400000    -1.0678720000
   30      C       0.1984330000     2.2859980000    -0.6864100000
   31      S       0.0611870000     0.6580440000    -2.8055160000
   32      C       0.2083470000     2.4035340000    -3.0545300000
   33      C       0.2676360000     3.1093600000    -1.8625510000
   34      F       0.3793470000     4.4413410000    -1.8190880000
   35      C       0.2492780000     2.8496880000    -4.4560840000
   36      O       0.1901320000     2.0820760000    -5.4065100000
   37      O       0.3595480000     4.1957210000    -4.5692250000
   38      C       0.4079010000     4.6884670000    -5.9162070000
   39      H       0.4969010000     5.7859160000    -5.8330640000
   40      H      -0.5125960000     4.4143480000    -6.4701680000
   41      H       1.2783770000     4.2681240000    -6.4592930000
   42      H       0.2947640000     3.3887670000     1.3064860000
 ----------------------------------------------------------------

   10   -2754.3140154634      6.96e-07  Convergence criterion met
 Total energy in the final basis set =    -2754.3140154634
        RIMP2         total energy =     -2759.3633287093 a.u.

                    Orbital Energies (a.u.)
 --------------------------------------------------------------

 Alpha MOs
 -- Occupied --
-92.0146 -91.9965 -91.9890 -91.9866 -26.3425 -20.6142 -20.5923 -20.5919
-20.5604 -11.4085 -11.3813 -11.3192 -11.3188 -11.3084 -11.2997 -11.2966
-11.2962 -11.2914 -11.2884 -11.2869 -11.2864 -11.2863 -11.2841 -11.2833
-11.2804 -11.2605 -11.2596 -11.2585 -11.2501  -9.0129  -8.9965  -8.9893
 -8.9865  -6.6936  -6.6930  -6.6925  -6.6775  -6.6768  -6.6757  -6.6702
 -6.6696  -6.6686  -6.6675  -6.6669  -6.6660  -1.6596  -1.4666  -1.4165
 -1.4146  -1.3692  -1.2196  -1.1945  -1.1653  -1.1347  -1.0843  -1.0521
 -1.0403  -1.0216  -1.0018  -0.9877  -0.9618  -0.9600  -0.9503  -0.9385
 -0.8958  -0.8665  -0.8514  -0.8100  -0.7923  -0.7888  -0.7864  -0.7650
 -0.7548  -0.7340  -0.7244  -0.7089  -0.7003  -0.6845  -0.6834  -0.6800
 -0.6733  -0.6592  -0.6570  -0.6528  -0.6305  -0.6203  -0.6172  -0.6048
 -0.5967  -0.5852  -0.5774  -0.5694  -0.5665  -0.5596  -0.5557  -0.5510
 -0.5320  -0.5304  -0.5240  -0.5160  -0.5149  -0.5086  -0.5039  -0.4950
 -0.4897  -0.4791  -0.4750  -0.4727  -0.4694  -0.4662  -0.4608  -0.4055
 -0.3983  -0.3868  -0.3573  -0.3482  -0.3155  -0.2972  -0.2595

          Ground-State Mulliken Net Atomic Charges

     Atom                 Charge (a.u.)
  ----------------------------------------
      1 C                    -0.187216
      2 C                    -0.254287
      3 S                    -0.021896
      4 C                    -0.012805
      5 H                     0.196534
      6 C                    -0.027921
      7 C                     0.246469
      8 C                     0.237925
      9 C                    -0.043950
     10 C                    -0.031454
     11 O                    -0.333239
     12 O                    -0.339806
     13 C                    -0.085798
     14 H                     0.122732
     15 H                     0.091030
     16 H                     0.094538
     17 C                    -0.086263
     18 H                     0.124702
     19 H                     0.094244
     20 H                     0.090467
     21 C                    -0.217166
     22 S                     0.001447
     23 C                    -0.057833
     24 H                     0.197131
     25 H                     0.206610
     26 C                    -0.015998
     27 S                     0.109030
     28 C                    -0.187840
     29 C                     0.005005
     30 C                    -0.106144
     31 S                     0.008031
     32 C                    -0.154731
     33 C                     0.392347
     34 F                    -0.207195
     35 C                     0.445441
     36 O                    -0.461270
     37 O                    -0.300643
     38 C                    -0.058644
     39 H                     0.121180
     40 H                     0.095043
     41 H                     0.094948
     42 H                     0.217246
  ----------------------------------------
  Sum of atomic charges =     0.000000

                    Cartesian Multipole Moments
 -----------------------------------------------------------------
    Charge (ESU x 10^10)
                -0.0000
    Dipole Moment (Debye)
         X       0.2291      Y       0.7800      Z       2.8098
       Tot       2.9250
    Quadrupole Moments (Debye-Ang)
        XX    -176.7702     XY       2.1490     YY    -159.0779
        XZ       0.8992     YZ      -5.9360     ZZ    -206.7493

 Total job time:  283.01s(wall), 9369.41s(cpu)
        *  Thank you very much for using Q-Chem.  Have a nice day.  *
