 Q-Chem 5.4, Q-Chem, Inc., Pleasanton, CA (2021)
 Q-Chem 5.4.0 for Intel X86 EM64T Linux

User input:
--------------------------------------------------------------
$molecule
0 1
C	-0.236226	-8.517702	0.217225
C	0.448921	-7.641575	-0.611939
S	-1.218777	-7.638634	1.413715
C	0.206907	-6.264785	-0.323572
H	1.118185	-7.966081	-1.418739
C	-0.711285	-6.072714	0.768156
C	-1.053725	-4.787049	1.215016
C	0.804258	-5.162801	-0.999917
C	0.464908	-3.874817	-0.550033
C	-0.456457	-3.683952	0.541024
O	1.630752	-5.499772	-2.028811
O	-1.883064	-4.459055	2.249357
C	-2.956754	-5.329063	2.586579
H	-3.619069	-4.755694	3.262802
H	-2.609423	-6.238095	3.124711
H	-3.531667	-5.637262	1.686639
C	2.599073	-4.572261	-2.503251
H	3.260097	-5.139743	-3.185356
H	3.207034	-4.153131	-1.672937
H	2.135214	-3.739531	-3.075213
C	-0.694410	-2.306654	0.828107
S	0.983256	-2.306501	-1.188794
C	-0.000000	-1.435185	-0.000000
H	-1.364851	-1.978138	1.632185
H	-0.234980	-9.614033	0.221288
C	0.000000	0.000000	0.000000
S	0.783786	0.451972	1.507541
C	2.145261	1.238908	0.718873
C	0.783650	0.451572	-1.067872
C	1.986396	1.148648	-0.686410
S	0.574133	0.327317	-2.805516
C	2.088363	1.207943	-3.054530
C	2.700548	1.564221	-1.862551
F	3.855718	2.236706	-1.819088
C	2.477307	1.430318	-4.456084
O	1.814592	1.038482	-5.406510
O	3.643162	2.112042	-4.569225
C	4.074530	2.355061	-5.916207
H	5.024556	2.911627	-5.833064
H	3.322010	2.951860	-6.470168
H	4.229490	1.400910	-6.459293
H	2.944986	1.702260	1.306486
$end

$rem
JOBTYPE		SP
EXCHANGE	HF
CORRELATION	pRIMP2
BASIS		cc-pvtz
METHOD		rimp2
AUX_BASIS	rimp2-cc-pvtz
SOLVENT_METHOD	PCM
PURECART	11111
SYMMETRY	false
MEM_TOTAL	110000
SCF_CONVERGENCE = 6
THRESH=10
GUI = 2
$end

$solvent
dielectric 4.90
$end
--------------------------------------------------------------

             Standard Nuclear Orientation (Angstroms)
    I     Atom           X                Y                Z
 ----------------------------------------------------------------
    1      C      -0.2362260000    -8.5177020000     0.2172250000
    2      C       0.4489210000    -7.6415750000    -0.6119390000
    3      S      -1.2187770000    -7.6386340000     1.4137150000
    4      C       0.2069070000    -6.2647850000    -0.3235720000
    5      H       1.1181850000    -7.9660810000    -1.4187390000
    6      C      -0.7112850000    -6.0727140000     0.7681560000
    7      C      -1.0537250000    -4.7870490000     1.2150160000
    8      C       0.8042580000    -5.1628010000    -0.9999170000
    9      C       0.4649080000    -3.8748170000    -0.5500330000
   10      C      -0.4564570000    -3.6839520000     0.5410240000
   11      O       1.6307520000    -5.4997720000    -2.0288110000
   12      O      -1.8830640000    -4.4590550000     2.2493570000
   13      C      -2.9567540000    -5.3290630000     2.5865790000
   14      H      -3.6190690000    -4.7556940000     3.2628020000
   15      H      -2.6094230000    -6.2380950000     3.1247110000
   16      H      -3.5316670000    -5.6372620000     1.6866390000
   17      C       2.5990730000    -4.5722610000    -2.5032510000
   18      H       3.2600970000    -5.1397430000    -3.1853560000
   19      H       3.2070340000    -4.1531310000    -1.6729370000
   20      H       2.1352140000    -3.7395310000    -3.0752130000
   21      C      -0.6944100000    -2.3066540000     0.8281070000
   22      S       0.9832560000    -2.3065010000    -1.1887940000
   23      C       0.0000000000    -1.4351850000     0.0000000000
   24      H      -1.3648510000    -1.9781380000     1.6321850000
   25      H      -0.2349800000    -9.6140330000     0.2212880000
   26      C       0.0000000000     0.0000000000     0.0000000000
   27      S       0.7837860000     0.4519720000     1.5075410000
   28      C       2.1452610000     1.2389080000     0.7188730000
   29      C       0.7836500000     0.4515720000    -1.0678720000
   30      C       1.9863960000     1.1486480000    -0.6864100000
   31      S       0.5741330000     0.3273170000    -2.8055160000
   32      C       2.0883630000     1.2079430000    -3.0545300000
   33      C       2.7005480000     1.5642210000    -1.8625510000
   34      F       3.8557180000     2.2367060000    -1.8190880000
   35      C       2.4773070000     1.4303180000    -4.4560840000
   36      O       1.8145920000     1.0384820000    -5.4065100000
   37      O       3.6431620000     2.1120420000    -4.5692250000
   38      C       4.0745300000     2.3550610000    -5.9162070000
   39      H       5.0245560000     2.9116270000    -5.8330640000
   40      H       3.3220100000     2.9518600000    -6.4701680000
   41      H       4.2294900000     1.4009100000    -6.4592930000
   42      H       2.9449860000     1.7022600000     1.3064860000
 ----------------------------------------------------------------

   10   -2754.2426512166      7.97e-07  Convergence criterion met
 Total energy in the final basis set =    -2754.2426512166
        RIMP2         total energy =     -2759.3114270939 a.u.

                    Orbital Energies (a.u.)
 --------------------------------------------------------------

 Alpha MOs
 -- Occupied --
-92.0168 -92.0098 -91.9823 -91.9821 -26.3468 -20.6163 -20.5900 -20.5862
-20.5629 -11.4115 -11.3875 -11.3375 -11.3210 -11.3156 -11.3083 -11.2998
-11.2935 -11.2901 -11.2899 -11.2856 -11.2834 -11.2799 -11.2757 -11.2739
-11.2704 -11.2554 -11.2509 -11.2469 -11.2345  -9.0160  -9.0096  -8.9832
 -8.9823  -6.6965  -6.6956  -6.6954  -6.6904  -6.6897  -6.6887  -6.6641
 -6.6633  -6.6633  -6.6627  -6.6624  -6.6618  -1.6638  -1.4689  -1.4139
 -1.4091  -1.3717  -1.2368  -1.1884  -1.1639  -1.1405  -1.0861  -1.0477
 -1.0437  -1.0291  -0.9967  -0.9868  -0.9667  -0.9554  -0.9476  -0.9404
 -0.8917  -0.8730  -0.8427  -0.8182  -0.7953  -0.7843  -0.7796  -0.7631
 -0.7559  -0.7294  -0.7286  -0.7131  -0.6975  -0.6873  -0.6842  -0.6779
 -0.6754  -0.6618  -0.6562  -0.6494  -0.6292  -0.6166  -0.6152  -0.6095
 -0.5997  -0.5844  -0.5751  -0.5711  -0.5651  -0.5586  -0.5522  -0.5411
 -0.5327  -0.5285  -0.5209  -0.5178  -0.5135  -0.5096  -0.5060  -0.4957
 -0.4884  -0.4821  -0.4769  -0.4741  -0.4677  -0.4584  -0.4556  -0.4135
 -0.3972  -0.3784  -0.3570  -0.3459  -0.3274  -0.2893  -0.2464

          Ground-State Mulliken Net Atomic Charges

     Atom                 Charge (a.u.)
  ----------------------------------------
      1 C                    -0.200821
      2 C                    -0.252565
      3 S                    -0.030046
      4 C                    -0.028307
      5 H                     0.194929
      6 C                    -0.023655
      7 C                     0.222590
      8 C                     0.245274
      9 C                    -0.051818
     10 C                     0.005081
     11 O                    -0.333350
     12 O                    -0.341863
     13 C                    -0.085488
     14 H                     0.120727
     15 H                     0.089803
     16 H                     0.092524
     17 C                    -0.088786
     18 H                     0.125224
     19 H                     0.092835
     20 H                     0.090766
     21 C                    -0.326985
     22 S                    -0.029530
     23 C                     0.052080
     24 H                     0.186529
     25 H                     0.204210
     26 C                    -0.180909
     27 S                     0.140928
     28 C                    -0.117683
     29 C                     0.048882
     30 C                    -0.105435
     31 S                     0.081909
     32 C                    -0.153606
     33 C                     0.400528
     34 F                    -0.204768
     35 C                     0.447773
     36 O                    -0.461912
     37 O                    -0.301006
     38 C                    -0.058063
     39 H                     0.121716
     40 H                     0.095563
     41 H                     0.095216
     42 H                     0.221510
  ----------------------------------------
  Sum of atomic charges =     0.000000

                    Cartesian Multipole Moments
 -----------------------------------------------------------------
    Charge (ESU x 10^10)
                 0.0000
    Dipole Moment (Debye)
         X       4.0632      Y       2.4734      Z       1.9022
       Tot       5.1230
    Quadrupole Moments (Debye-Ang)
        XX    -172.6395     XY       8.1341     YY    -184.2168
        XZ     -17.6023     YZ      -1.2855     ZZ    -194.9597

 Total job time:  300.18s(wall), 9804.73s(cpu)
        *  Thank you very much for using Q-Chem.  Have a nice day.  *
