 Q-Chem 5.4, Q-Chem, Inc., Pleasanton, CA (2021)
 Q-Chem 5.4.0 for Intel X86 EM64T Linux

User input:
--------------------------------------------------------------
$molecule
0 1
C	0.306235	-8.517702	0.095966
C	-0.754415	-7.641575	-0.082807
S	1.833702	-7.638634	0.348635
C	-0.383675	-6.264785	-0.017401
H	-1.787757	-7.966081	-0.259008
C	1.020885	-6.072714	0.231913
C	1.579097	-4.787049	0.305044
C	-1.268082	-5.162801	-0.196549
C	-0.708796	-3.874817	-0.127606
C	0.696769	-3.683952	0.124792
O	-2.572378	-5.499772	-0.397867
O	2.889532	-4.459055	0.506103
C	3.718420	-5.329063	1.267335
H	4.635204	-4.755694	1.502804
H	4.010790	-6.238095	0.697471
H	3.226506	-5.637262	2.215194
C	-3.467415	-4.572261	-0.999238
H	-4.388648	-5.139743	-1.230649
H	-3.052323	-4.153131	-1.940905
H	-3.730819	-3.739531	-0.311543
C	1.064366	-2.306654	0.187323
S	-1.521154	-2.306501	-0.257128
C	0.000000	-1.435185	0.000000
H	2.095939	-1.978138	0.365903
H	0.309131	-9.614033	0.092855
C	0.000000	0.000000	0.000000
S	0.234628	0.873813	1.507541
C	0.640889	2.392969	0.718873
C	0.234815	0.873434	-1.067872
C	0.592377	2.216811	-0.686410
S	0.174526	0.637422	-2.805516
C	0.622551	2.330840	-3.054530
C	0.803505	3.015647	-1.862551
F	1.144815	4.307994	-1.819088
C	0.740334	2.763108	-4.456084
O	0.548793	2.017428	-5.406510
O	1.082665	4.069544	-4.569225
C	1.215848	4.546407	-5.916207
H	1.494066	5.611729	-5.833064
H	0.261736	4.436296	-6.470168
H	2.000108	3.981294	-6.459293
H	0.878739	3.286099	1.306486
$end

$rem
JOBTYPE		SP
EXCHANGE	HF
CORRELATION	pRIMP2
BASIS		cc-pvtz
METHOD		rimp2
AUX_BASIS	rimp2-cc-pvtz
SOLVENT_METHOD	PCM
PURECART	11111
SYMMETRY	false
MEM_TOTAL	110000
SCF_CONVERGENCE = 6
THRESH=10
GUI = 2
$end

$solvent
dielectric 4.90
$end
--------------------------------------------------------------

             Standard Nuclear Orientation (Angstroms)
    I     Atom           X                Y                Z
 ----------------------------------------------------------------
    1      C       0.3062350000    -8.5177020000     0.0959660000
    2      C      -0.7544150000    -7.6415750000    -0.0828070000
    3      S       1.8337020000    -7.6386340000     0.3486350000
    4      C      -0.3836750000    -6.2647850000    -0.0174010000
    5      H      -1.7877570000    -7.9660810000    -0.2590080000
    6      C       1.0208850000    -6.0727140000     0.2319130000
    7      C       1.5790970000    -4.7870490000     0.3050440000
    8      C      -1.2680820000    -5.1628010000    -0.1965490000
    9      C      -0.7087960000    -3.8748170000    -0.1276060000
   10      C       0.6967690000    -3.6839520000     0.1247920000
   11      O      -2.5723780000    -5.4997720000    -0.3978670000
   12      O       2.8895320000    -4.4590550000     0.5061030000
   13      C       3.7184200000    -5.3290630000     1.2673350000
   14      H       4.6352040000    -4.7556940000     1.5028040000
   15      H       4.0107900000    -6.2380950000     0.6974710000
   16      H       3.2265060000    -5.6372620000     2.2151940000
   17      C      -3.4674150000    -4.5722610000    -0.9992380000
   18      H      -4.3886480000    -5.1397430000    -1.2306490000
   19      H      -3.0523230000    -4.1531310000    -1.9409050000
   20      H      -3.7308190000    -3.7395310000    -0.3115430000
   21      C       1.0643660000    -2.3066540000     0.1873230000
   22      S      -1.5211540000    -2.3065010000    -0.2571280000
   23      C       0.0000000000    -1.4351850000     0.0000000000
   24      H       2.0959390000    -1.9781380000     0.3659030000
   25      H       0.3091310000    -9.6140330000     0.0928550000
   26      C       0.0000000000     0.0000000000     0.0000000000
   27      S       0.2346280000     0.8738130000     1.5075410000
   28      C       0.6408890000     2.3929690000     0.7188730000
   29      C       0.2348150000     0.8734340000    -1.0678720000
   30      C       0.5923770000     2.2168110000    -0.6864100000
   31      S       0.1745260000     0.6374220000    -2.8055160000
   32      C       0.6225510000     2.3308400000    -3.0545300000
   33      C       0.8035050000     3.0156470000    -1.8625510000
   34      F       1.1448150000     4.3079940000    -1.8190880000
   35      C       0.7403340000     2.7631080000    -4.4560840000
   36      O       0.5487930000     2.0174280000    -5.4065100000
   37      O       1.0826650000     4.0695440000    -4.5692250000
   38      C       1.2158480000     4.5464070000    -5.9162070000
   39      H       1.4940660000     5.6117290000    -5.8330640000
   40      H       0.2617360000     4.4362960000    -6.4701680000
   41      H       2.0001080000     3.9812940000    -6.4592930000
   42      H       0.8787390000     3.2860990000     1.3064860000
 ----------------------------------------------------------------

   10   -2754.3100725244      7.06e-07  Convergence criterion met
 Total energy in the final basis set =    -2754.3100725244
        RIMP2         total energy =     -2759.3605351191 a.u.

                    Orbital Energies (a.u.)
 --------------------------------------------------------------

 Alpha MOs
 -- Occupied --
-92.0147 -91.9972 -91.9880 -91.9863 -26.3427 -20.6142 -20.5922 -20.5916
-20.5604 -11.4086 -11.3816 -11.3189 -11.3182 -11.3099 -11.3012 -11.2962
-11.2949 -11.2918 -11.2884 -11.2867 -11.2863 -11.2857 -11.2839 -11.2835
-11.2800 -11.2605 -11.2591 -11.2578 -11.2499  -9.0130  -8.9972  -8.9884
 -8.9863  -6.6937  -6.6932  -6.6926  -6.6782  -6.6774  -6.6763  -6.6694
 -6.6687  -6.6677  -6.6672  -6.6666  -6.6658  -1.6598  -1.4666  -1.4163
 -1.4144  -1.3693  -1.2202  -1.1941  -1.1650  -1.1350  -1.0842  -1.0518
 -1.0407  -1.0218  -1.0013  -0.9876  -0.9617  -0.9600  -0.9501  -0.9388
 -0.8954  -0.8667  -0.8506  -0.8102  -0.7925  -0.7889  -0.7863  -0.7647
 -0.7548  -0.7337  -0.7247  -0.7092  -0.7002  -0.6845  -0.6831  -0.6801
 -0.6733  -0.6591  -0.6569  -0.6526  -0.6302  -0.6201  -0.6169  -0.6047
 -0.5970  -0.5855  -0.5763  -0.5700  -0.5669  -0.5618  -0.5541  -0.5523
 -0.5305  -0.5292  -0.5233  -0.5163  -0.5146  -0.5088  -0.5038  -0.4941
 -0.4895  -0.4789  -0.4752  -0.4728  -0.4700  -0.4655  -0.4609  -0.4050
 -0.3977  -0.3869  -0.3583  -0.3469  -0.3146  -0.2987  -0.2587

          Ground-State Mulliken Net Atomic Charges

     Atom                 Charge (a.u.)
  ----------------------------------------
      1 C                    -0.188122
      2 C                    -0.254040
      3 S                    -0.022279
      4 C                    -0.014895
      5 H                     0.196421
      6 C                    -0.028491
      7 C                     0.241421
      8 C                     0.242581
      9 C                    -0.051808
     10 C                    -0.024908
     11 O                    -0.333589
     12 O                    -0.339951
     13 C                    -0.085735
     14 H                     0.122574
     15 H                     0.091287
     16 H                     0.093815
     17 C                    -0.086239
     18 H                     0.124506
     19 H                     0.095192
     20 H                     0.089587
     21 C                    -0.204904
     22 S                     0.003513
     23 C                    -0.040212
     24 H                     0.198866
     25 H                     0.206454
     26 C                    -0.054630
     27 S                     0.109873
     28 C                    -0.185935
     29 C                     0.008154
     30 C                    -0.102253
     31 S                     0.009571
     32 C                    -0.154171
     33 C                     0.391854
     34 F                    -0.206863
     35 C                     0.445736
     36 O                    -0.461381
     37 O                    -0.300776
     38 C                    -0.058458
     39 H                     0.121152
     40 H                     0.094966
     41 H                     0.094998
     42 H                     0.217117
  ----------------------------------------
  Sum of atomic charges =     0.000000

                    Cartesian Multipole Moments
 -----------------------------------------------------------------
    Charge (ESU x 10^10)
                -0.0000
    Dipole Moment (Debye)
         X       0.6463      Y       0.9250      Z       3.2655
       Tot       3.4549
    Quadrupole Moments (Debye-Ang)
        XX    -179.8569     XY       3.7699     YY    -160.8509
        XZ       7.4003     YZ      -8.4849     ZZ    -202.7240

 Total job time:  313.36s(wall), 9153.49s(cpu)
        *  Thank you very much for using Q-Chem.  Have a nice day.  *
