 Q-Chem 5.4, Q-Chem, Inc., Pleasanton, CA (2021)
 Q-Chem 5.4.0 for Intel X86 EM64T Linux

User input:
--------------------------------------------------------------
$molecule
0 1
C	-0.070009	-8.517702	-0.313191
C	0.305494	-7.641575	0.694746
S	-0.614924	-7.638634	-1.762350
C	0.176768	-6.264785	0.340973
H	0.669571	-7.966081	1.677747
C	-0.309600	-6.072714	-1.000069
C	-0.525372	-4.787049	-1.520060
C	0.463825	-5.162801	1.196466
C	0.243888	-3.874817	0.677639
C	-0.240312	-3.683952	-0.665815
O	0.941626	-5.499772	2.426678
O	-1.006468	-4.459055	-2.755460
C	-0.761666	-5.329063	-3.853913
H	-1.016135	-4.755694	-4.765607
H	-1.401368	-6.238095	-3.822182
H	0.305161	-5.637262	-3.901833
C	0.868342	-4.572261	3.502489
H	1.128551	-5.139743	4.416005
H	-0.154712	-4.153131	3.613841
H	1.595605	-3.739531	3.386756
C	-0.369957	-2.306654	-1.015430
S	0.537898	-2.306501	1.445922
C	-0.000000	-1.435185	-0.000000
H	-0.731088	-1.978138	-1.998088
H	-0.074151	-9.614033	-0.314143
C	0.000000	0.000000	0.000000
S	0.452792	0.783312	1.507541
C	1.238397	2.145556	0.718873
C	0.452875	0.782898	-1.067872
C	1.145945	1.987956	-0.686410
S	0.333556	0.570531	-2.805516
C	1.204604	2.090290	-3.054530
C	1.556633	2.704929	-1.862551
F	2.220797	3.864903	-1.819088
C	1.430252	2.477345	-4.456084
O	1.052242	1.806648	-5.406510
O	2.099050	3.650663	-4.569225
C	2.351116	4.076808	-5.916207
H	2.895579	5.033821	-5.833064
H	1.401015	4.217390	-6.470168
H	2.962391	3.327969	-6.459293
H	1.699302	2.946693	1.306486
$end

$rem
JOBTYPE		SP
EXCHANGE	HF
CORRELATION	pRIMP2
BASIS		cc-pvtz
METHOD		rimp2
AUX_BASIS	rimp2-cc-pvtz
SOLVENT_METHOD	PCM
PURECART	11111
SYMMETRY	false
MEM_TOTAL	110000
SCF_CONVERGENCE = 6
THRESH=10
GUI = 2
$end

$solvent
dielectric 4.90
$end
--------------------------------------------------------------

             Standard Nuclear Orientation (Angstroms)
    I     Atom           X                Y                Z
 ----------------------------------------------------------------
    1      C      -0.0700090000    -8.5177020000    -0.3131910000
    2      C       0.3054940000    -7.6415750000     0.6947460000
    3      S      -0.6149240000    -7.6386340000    -1.7623500000
    4      C       0.1767680000    -6.2647850000     0.3409730000
    5      H       0.6695710000    -7.9660810000     1.6777470000
    6      C      -0.3096000000    -6.0727140000    -1.0000690000
    7      C      -0.5253720000    -4.7870490000    -1.5200600000
    8      C       0.4638250000    -5.1628010000     1.1964660000
    9      C       0.2438880000    -3.8748170000     0.6776390000
   10      C      -0.2403120000    -3.6839520000    -0.6658150000
   11      O       0.9416260000    -5.4997720000     2.4266780000
   12      O      -1.0064680000    -4.4590550000    -2.7554600000
   13      C      -0.7616660000    -5.3290630000    -3.8539130000
   14      H      -1.0161350000    -4.7556940000    -4.7656070000
   15      H      -1.4013680000    -6.2380950000    -3.8221820000
   16      H       0.3051610000    -5.6372620000    -3.9018330000
   17      C       0.8683420000    -4.5722610000     3.5024890000
   18      H       1.1285510000    -5.1397430000     4.4160050000
   19      H      -0.1547120000    -4.1531310000     3.6138410000
   20      H       1.5956050000    -3.7395310000     3.3867560000
   21      C      -0.3699570000    -2.3066540000    -1.0154300000
   22      S       0.5378980000    -2.3065010000     1.4459220000
   23      C       0.0000000000    -1.4351850000     0.0000000000
   24      H      -0.7310880000    -1.9781380000    -1.9980880000
   25      H      -0.0741510000    -9.6140330000    -0.3141430000
   26      C       0.0000000000     0.0000000000     0.0000000000
   27      S       0.4527920000     0.7833120000     1.5075410000
   28      C       1.2383970000     2.1455560000     0.7188730000
   29      C       0.4528750000     0.7828980000    -1.0678720000
   30      C       1.1459450000     1.9879560000    -0.6864100000
   31      S       0.3335560000     0.5705310000    -2.8055160000
   32      C       1.2046040000     2.0902900000    -3.0545300000
   33      C       1.5566330000     2.7049290000    -1.8625510000
   34      F       2.2207970000     3.8649030000    -1.8190880000
   35      C       1.4302520000     2.4773450000    -4.4560840000
   36      O       1.0522420000     1.8066480000    -5.4065100000
   37      O       2.0990500000     3.6506630000    -4.5692250000
   38      C       2.3511160000     4.0768080000    -5.9162070000
   39      H       2.8955790000     5.0338210000    -5.8330640000
   40      H       1.4010150000     4.2173900000    -6.4701680000
   41      H       2.9623910000     3.3279690000    -6.4592930000
   42      H       1.6993020000     2.9466930000     1.3064860000
 ----------------------------------------------------------------

   10   -2754.2997699001      7.08e-07  Convergence criterion met
 Total energy in the final basis set =    -2754.2997699001
        RIMP2         total energy =     -2759.3562805768 a.u.

                    Orbital Energies (a.u.)
 --------------------------------------------------------------

 Alpha MOs
 -- Occupied --
-92.0160 -92.0028 -91.9903 -91.9850 -26.3446 -20.6152 -20.5924 -20.5891
-20.5618 -11.4101 -11.3845 -11.3191 -11.3174 -11.3143 -11.3065 -11.2984
-11.2973 -11.2952 -11.2891 -11.2874 -11.2874 -11.2845 -11.2835 -11.2830
-11.2775 -11.2605 -11.2561 -11.2490 -11.2489  -9.0150  -9.0026  -8.9909
 -8.9850  -6.6958  -6.6951  -6.6946  -6.6836  -6.6828  -6.6818  -6.6718
 -6.6711  -6.6701  -6.6659  -6.6653  -6.6645  -1.6616  -1.4678  -1.4163
 -1.4120  -1.3705  -1.2255  -1.1933  -1.1655  -1.1382  -1.0851  -1.0506
 -1.0434  -1.0252  -1.0004  -0.9880  -0.9647  -0.9595  -0.9498  -0.9393
 -0.8955  -0.8696  -0.8502  -0.8098  -0.7983  -0.7877  -0.7851  -0.7633
 -0.7558  -0.7329  -0.7264  -0.7114  -0.7011  -0.6860  -0.6824  -0.6815
 -0.6743  -0.6590  -0.6586  -0.6513  -0.6299  -0.6188  -0.6163  -0.6026
 -0.6001  -0.5871  -0.5785  -0.5708  -0.5647  -0.5608  -0.5561  -0.5457
 -0.5350  -0.5308  -0.5220  -0.5177  -0.5169  -0.5116  -0.5046  -0.4948
 -0.4872  -0.4822  -0.4761  -0.4748  -0.4693  -0.4640  -0.4602  -0.4255
 -0.3957  -0.3829  -0.3606  -0.3482  -0.3269  -0.2907  -0.2491

          Ground-State Mulliken Net Atomic Charges

     Atom                 Charge (a.u.)
  ----------------------------------------
      1 C                    -0.193360
      2 C                    -0.253992
      3 S                    -0.023887
      4 C                    -0.019634
      5 H                     0.195642
      6 C                    -0.025634
      7 C                     0.237264
      8 C                     0.242182
      9 C                    -0.047650
     10 C                    -0.016388
     11 O                    -0.332927
     12 O                    -0.341351
     13 C                    -0.086008
     14 H                     0.122925
     15 H                     0.090908
     16 H                     0.093341
     17 C                    -0.088472
     18 H                     0.125751
     19 H                     0.094690
     20 H                     0.089372
     21 C                    -0.255707
     22 S                    -0.030065
     23 C                    -0.016996
     24 H                     0.191505
     25 H                     0.205607
     26 C                    -0.008806
     27 S                     0.083850
     28 C                    -0.165956
     29 C                     0.030024
     30 C                    -0.112422
     31 S                     0.020159
     32 C                    -0.159138
     33 C                     0.400907
     34 F                    -0.205143
     35 C                     0.446830
     36 O                    -0.460856
     37 O                    -0.301095
     38 C                    -0.058378
     39 H                     0.121542
     40 H                     0.095213
     41 H                     0.095252
     42 H                     0.220902
  ----------------------------------------
  Sum of atomic charges =     0.000000

                    Cartesian Multipole Moments
 -----------------------------------------------------------------
    Charge (ESU x 10^10)
                 0.0000
    Dipole Moment (Debye)
         X       1.9937      Y       1.8136      Z       3.0263
       Tot       4.0525
    Quadrupole Moments (Debye-Ang)
        XX    -197.6668     XY       5.8796     YY    -167.2660
        XZ      -0.9363     YZ      -6.5363     ZZ    -180.9745

 Total job time:  281.22s(wall), 8733.51s(cpu)
        *  Thank you very much for using Q-Chem.  Have a nice day.  *
