 Q-Chem 5.4, Q-Chem, Inc., Pleasanton, CA (2021)
 Q-Chem 5.4.0 for Intel X86 EM64T Linux

User input:
--------------------------------------------------------------
$molecule
0 1
C	-0.284919	-8.517702	-0.147685
C	0.728574	-7.641575	0.212552
S	-1.745304	-7.638634	-0.661757
C	0.374824	-6.264785	0.083761
H	1.715621	-7.966081	0.565513
C	-0.965104	-6.072714	-0.405665
C	-1.502136	-4.787049	-0.574617
C	1.214687	-5.162801	0.413763
C	0.675870	-3.874817	0.248748
C	-0.664513	-3.683952	-0.243888
O	2.464209	-5.499772	0.838511
O	-2.757750	-4.459055	-1.000176
C	-3.441858	-5.329063	-1.893778
H	-4.303826	-4.755694	-2.284868
H	-3.828743	-6.238095	-1.383341
H	-2.792824	-5.637262	-2.741817
C	3.241222	-4.572261	1.586168
H	4.108274	-5.139743	1.974033
H	2.668916	-4.153131	2.441448
H	3.620041	-3.739531	0.954660
C	-1.015668	-2.306654	-0.369302
S	1.453394	-2.306501	0.517367
C	-0.000000	-1.435185	-0.000000
H	-2.000559	-1.978138	-0.724300
H	-0.288311	-9.614033	-0.145124
C	0.000000	0.000000	0.000000
S	0.309893	0.850039	1.507541
C	0.847011	2.328006	0.718873
C	0.310046	0.849645	-1.067872
C	0.783331	2.156746	-0.686410
S	0.229416	0.619785	-2.805516
C	0.823328	2.267711	-3.054530
C	1.063278	2.934142	-1.862551
F	1.515925	4.191824	-1.819088
C	0.978337	2.688069	-4.456084
O	0.722535	1.961921	-5.406510
O	1.433229	3.959697	-4.569225
C	1.607467	4.423139	-5.916207
H	1.977475	5.460158	-5.833064
H	0.647388	4.396602	-6.470168
H	2.339490	3.791823	-6.459293
H	1.161798	3.197007	1.306486
$end

$rem
JOBTYPE		SP
EXCHANGE	HF
CORRELATION	pRIMP2
BASIS		cc-pvtz
METHOD		rimp2
AUX_BASIS	rimp2-cc-pvtz
SOLVENT_METHOD	PCM
PURECART	11111
SYMMETRY	false
MEM_TOTAL	110000
SCF_CONVERGENCE = 6
THRESH=10
GUI = 2
$end

$solvent
dielectric 4.90
$end
--------------------------------------------------------------

             Standard Nuclear Orientation (Angstroms)
    I     Atom           X                Y                Z
 ----------------------------------------------------------------
    1      C      -0.2849190000    -8.5177020000    -0.1476850000
    2      C       0.7285740000    -7.6415750000     0.2125520000
    3      S      -1.7453040000    -7.6386340000    -0.6617570000
    4      C       0.3748240000    -6.2647850000     0.0837610000
    5      H       1.7156210000    -7.9660810000     0.5655130000
    6      C      -0.9651040000    -6.0727140000    -0.4056650000
    7      C      -1.5021360000    -4.7870490000    -0.5746170000
    8      C       1.2146870000    -5.1628010000     0.4137630000
    9      C       0.6758700000    -3.8748170000     0.2487480000
   10      C      -0.6645130000    -3.6839520000    -0.2438880000
   11      O       2.4642090000    -5.4997720000     0.8385110000
   12      O      -2.7577500000    -4.4590550000    -1.0001760000
   13      C      -3.4418580000    -5.3290630000    -1.8937780000
   14      H      -4.3038260000    -4.7556940000    -2.2848680000
   15      H      -3.8287430000    -6.2380950000    -1.3833410000
   16      H      -2.7928240000    -5.6372620000    -2.7418170000
   17      C       3.2412220000    -4.5722610000     1.5861680000
   18      H       4.1082740000    -5.1397430000     1.9740330000
   19      H       2.6689160000    -4.1531310000     2.4414480000
   20      H       3.6200410000    -3.7395310000     0.9546600000
   21      C      -1.0156680000    -2.3066540000    -0.3693020000
   22      S       1.4533940000    -2.3065010000     0.5173670000
   23      C       0.0000000000    -1.4351850000     0.0000000000
   24      H      -2.0005590000    -1.9781380000    -0.7243000000
   25      H      -0.2883110000    -9.6140330000    -0.1451240000
   26      C       0.0000000000     0.0000000000     0.0000000000
   27      S       0.3098930000     0.8500390000     1.5075410000
   28      C       0.8470110000     2.3280060000     0.7188730000
   29      C       0.3100460000     0.8496450000    -1.0678720000
   30      C       0.7833310000     2.1567460000    -0.6864100000
   31      S       0.2294160000     0.6197850000    -2.8055160000
   32      C       0.8233280000     2.2677110000    -3.0545300000
   33      C       1.0632780000     2.9341420000    -1.8625510000
   34      F       1.5159250000     4.1918240000    -1.8190880000
   35      C       0.9783370000     2.6880690000    -4.4560840000
   36      O       0.7225350000     1.9619210000    -5.4065100000
   37      O       1.4332290000     3.9596970000    -4.5692250000
   38      C       1.6074670000     4.4231390000    -5.9162070000
   39      H       1.9774750000     5.4601580000    -5.8330640000
   40      H       0.6473880000     4.3966020000    -6.4701680000
   41      H       2.3394900000     3.7918230000    -6.4592930000
   42      H       1.1617980000     3.1970070000     1.3064860000
 ----------------------------------------------------------------

   10   -2754.3079742567      7.12e-07  Convergence criterion met
 Total energy in the final basis set =    -2754.3079742567
        RIMP2         total energy =     -2759.3590204323 a.u.

                    Orbital Energies (a.u.)
 --------------------------------------------------------------

 Alpha MOs
 -- Occupied --
-92.0142 -91.9978 -91.9891 -91.9862 -26.3429 -20.6143 -20.5924 -20.5912
-20.5606 -11.4088 -11.3819 -11.3190 -11.3177 -11.3115 -11.3023 -11.2965
-11.2942 -11.2915 -11.2885 -11.2872 -11.2858 -11.2858 -11.2839 -11.2837
-11.2798 -11.2599 -11.2589 -11.2558 -11.2499  -9.0128  -8.9978  -8.9895
 -8.9862  -6.6935  -6.6929  -6.6924  -6.6788  -6.6780  -6.6769  -6.6704
 -6.6698  -6.6688  -6.6671  -6.6665  -6.6657  -1.6600  -1.4668  -1.4165
 -1.4140  -1.3694  -1.2211  -1.1940  -1.1651  -1.1356  -1.0841  -1.0517
 -1.0411  -1.0222  -1.0013  -0.9874  -0.9615  -0.9607  -0.9503  -0.9384
 -0.8957  -0.8671  -0.8506  -0.8088  -0.7946  -0.7878  -0.7863  -0.7646
 -0.7549  -0.7336  -0.7248  -0.7092  -0.7010  -0.6846  -0.6828  -0.6802
 -0.6734  -0.6591  -0.6573  -0.6525  -0.6302  -0.6198  -0.6172  -0.6049
 -0.5975  -0.5864  -0.5770  -0.5692  -0.5659  -0.5605  -0.5553  -0.5458
 -0.5343  -0.5305  -0.5228  -0.5158  -0.5152  -0.5095  -0.5038  -0.4940
 -0.4892  -0.4797  -0.4744  -0.4732  -0.4694  -0.4670  -0.4617  -0.4083
 -0.3962  -0.3865  -0.3565  -0.3501  -0.3152  -0.2976  -0.2579

          Ground-State Mulliken Net Atomic Charges

     Atom                 Charge (a.u.)
  ----------------------------------------
      1 C                    -0.188232
      2 C                    -0.254742
      3 S                    -0.022184
      4 C                    -0.013913
      5 H                     0.196231
      6 C                    -0.027407
      7 C                     0.242852
      8 C                     0.239796
      9 C                    -0.042726
     10 C                    -0.025387
     11 O                    -0.333265
     12 O                    -0.339963
     13 C                    -0.085835
     14 H                     0.122774
     15 H                     0.090816
     16 H                     0.094377
     17 C                    -0.086620
     18 H                     0.124879
     19 H                     0.094237
     20 H                     0.090057
     21 C                    -0.220843
     22 S                    -0.001505
     23 C                    -0.068116
     24 H                     0.198374
     25 H                     0.206396
     26 C                    -0.018366
     27 S                     0.104198
     28 C                    -0.180785
     29 C                     0.006299
     30 C                    -0.096347
     31 S                     0.010736
     32 C                    -0.151966
     33 C                     0.388946
     34 F                    -0.206649
     35 C                     0.445684
     36 O                    -0.461187
     37 O                    -0.300902
     38 C                    -0.058393
     39 H                     0.121184
     40 H                     0.094999
     41 H                     0.095033
     42 H                     0.217468
  ----------------------------------------
  Sum of atomic charges =     0.000000

                    Cartesian Multipole Moments
 -----------------------------------------------------------------
    Charge (ESU x 10^10)
                 0.0000
    Dipole Moment (Debye)
         X       1.1532      Y       0.9659      Z       2.7887
       Tot       3.1686
    Quadrupole Moments (Debye-Ang)
        XX    -182.6966     XY       5.0106     YY    -161.6800
        XZ       9.1750     YZ      -5.3873     ZZ    -198.9074

 Total job time:  289.58s(wall), 9678.68s(cpu)
        *  Thank you very much for using Q-Chem.  Have a nice day.  *
