 Q-Chem 5.4, Q-Chem, Inc., Pleasanton, CA (2021)
 Q-Chem 5.4.0 for Intel X86 EM64T Linux

User input:
--------------------------------------------------------------
$molecule
0 1
C	-0.296276	-8.517702	0.123330
C	0.631143	-7.641575	-0.421494
S	-1.628795	-7.638634	0.911611
C	0.305097	-6.264785	-0.233291
H	1.535988	-7.966081	-0.950737
C	-0.931114	-6.072714	0.478557
C	-1.405737	-4.787049	0.781346
C	1.097747	-5.162801	-0.664542
C	0.624993	-3.874817	-0.357854
C	-0.613970	-3.683952	0.352278
O	2.226300	-5.499772	-1.348709
O	-2.538827	-4.459055	1.469658
C	-3.663102	-5.329063	1.419319
H	-4.516756	-4.755694	1.828237
H	-3.520769	-6.238095	2.043793
H	-3.895546	-5.637262	0.377021
C	3.298492	-4.572261	-1.463351
H	4.152945	-5.139743	-1.878237
H	3.585804	-4.153131	-0.475176
H	3.058230	-3.739531	-2.159469
C	-0.935761	-2.306654	0.540664
S	1.330550	-2.306501	-0.780808
C	0.000000	-1.435185	0.000000
H	-1.840780	-1.978138	1.066946
H	-0.296494	-9.614033	0.127575
C	0.000000	0.000000	0.000000
S	0.693394	0.581209	1.507541
C	1.897536	1.592607	0.718873
C	0.693330	0.580791	-1.067872
C	1.756758	1.476132	-0.686410
S	0.508573	0.422041	-2.805516
C	1.846879	1.552232	-3.054530
C	2.387897	2.009402	-1.862551
F	3.408741	2.872264	-1.819088
C	2.191300	1.838768	-4.456084
O	1.606694	1.337806	-5.406510
O	3.221062	2.712584	-4.569225
C	3.603677	3.026817	-5.916207
H	4.442623	3.739898	-5.833064
H	2.758956	3.483875	-6.470168
H	3.921969	2.114070	-6.459293
H	2.604650	2.187790	1.306486
$end

$rem
JOBTYPE		SP
EXCHANGE	HF
CORRELATION	pRIMP2
BASIS		cc-pvtz
METHOD		rimp2
AUX_BASIS	rimp2-cc-pvtz
SOLVENT_METHOD	PCM
PURECART	11111
SYMMETRY	false
MEM_TOTAL	110000
SCF_CONVERGENCE = 6
THRESH=10
GUI = 2
$end

$solvent
dielectric 4.90
$end
--------------------------------------------------------------

             Standard Nuclear Orientation (Angstroms)
    I     Atom           X                Y                Z
 ----------------------------------------------------------------
    1      C      -0.2962760000    -8.5177020000     0.1233300000
    2      C       0.6311430000    -7.6415750000    -0.4214940000
    3      S      -1.6287950000    -7.6386340000     0.9116110000
    4      C       0.3050970000    -6.2647850000    -0.2332910000
    5      H       1.5359880000    -7.9660810000    -0.9507370000
    6      C      -0.9311140000    -6.0727140000     0.4785570000
    7      C      -1.4057370000    -4.7870490000     0.7813460000
    8      C       1.0977470000    -5.1628010000    -0.6645420000
    9      C       0.6249930000    -3.8748170000    -0.3578540000
   10      C      -0.6139700000    -3.6839520000     0.3522780000
   11      O       2.2263000000    -5.4997720000    -1.3487090000
   12      O      -2.5388270000    -4.4590550000     1.4696580000
   13      C      -3.6631020000    -5.3290630000     1.4193190000
   14      H      -4.5167560000    -4.7556940000     1.8282370000
   15      H      -3.5207690000    -6.2380950000     2.0437930000
   16      H      -3.8955460000    -5.6372620000     0.3770210000
   17      C       3.2984920000    -4.5722610000    -1.4633510000
   18      H       4.1529450000    -5.1397430000    -1.8782370000
   19      H       3.5858040000    -4.1531310000    -0.4751760000
   20      H       3.0582300000    -3.7395310000    -2.1594690000
   21      C      -0.9357610000    -2.3066540000     0.5406640000
   22      S       1.3305500000    -2.3065010000    -0.7808080000
   23      C       0.0000000000    -1.4351850000     0.0000000000
   24      H      -1.8407800000    -1.9781380000     1.0669460000
   25      H      -0.2964940000    -9.6140330000     0.1275750000
   26      C       0.0000000000     0.0000000000     0.0000000000
   27      S       0.6933940000     0.5812090000     1.5075410000
   28      C       1.8975360000     1.5926070000     0.7188730000
   29      C       0.6933300000     0.5807910000    -1.0678720000
   30      C       1.7567580000     1.4761320000    -0.6864100000
   31      S       0.5085730000     0.4220410000    -2.8055160000
   32      C       1.8468790000     1.5522320000    -3.0545300000
   33      C       2.3878970000     2.0094020000    -1.8625510000
   34      F       3.4087410000     2.8722640000    -1.8190880000
   35      C       2.1913000000     1.8387680000    -4.4560840000
   36      O       1.6066940000     1.3378060000    -5.4065100000
   37      O       3.2210620000     2.7125840000    -4.5692250000
   38      C       3.6036770000     3.0268170000    -5.9162070000
   39      H       4.4426230000     3.7398980000    -5.8330640000
   40      H       2.7589560000     3.4838750000    -6.4701680000
   41      H       3.9219690000     2.1140700000    -6.4592930000
   42      H       2.6046500000     2.1877900000     1.3064860000
 ----------------------------------------------------------------

   10   -2754.2699750003      8.51e-07  Convergence criterion met
 Total energy in the final basis set =    -2754.2699750003
        RIMP2         total energy =     -2759.3316888777 a.u.

                    Orbital Energies (a.u.)
 --------------------------------------------------------------

 Alpha MOs
 -- Occupied --
-92.0146 -92.0049 -91.9842 -91.9838 -26.3452 -20.6154 -20.5909 -20.5888
-20.5619 -11.4103 -11.3852 -11.3274 -11.3168 -11.3132 -11.3127 -11.2985
-11.2899 -11.2893 -11.2876 -11.2861 -11.2847 -11.2816 -11.2810 -11.2770
-11.2768 -11.2568 -11.2550 -11.2483 -11.2441  -9.0136  -9.0047  -8.9846
 -8.9842  -6.6942  -6.6934  -6.6931  -6.6856  -6.6849  -6.6839  -6.6655
 -6.6652  -6.6648  -6.6645  -6.6638  -6.6637  -1.6622  -1.4680  -1.4148
 -1.4116  -1.3707  -1.2297  -1.1907  -1.1638  -1.1386  -1.0842  -1.0490
 -1.0435  -1.0256  -0.9984  -0.9864  -0.9647  -0.9575  -0.9488  -0.9393
 -0.8934  -0.8703  -0.8451  -0.8147  -0.7937  -0.7853  -0.7825  -0.7637
 -0.7557  -0.7311  -0.7271  -0.7115  -0.6986  -0.6861  -0.6828  -0.6797
 -0.6746  -0.6596  -0.6574  -0.6509  -0.6287  -0.6180  -0.6159  -0.6080
 -0.5990  -0.5857  -0.5754  -0.5687  -0.5646  -0.5617  -0.5536  -0.5401
 -0.5318  -0.5301  -0.5209  -0.5164  -0.5139  -0.5087  -0.5057  -0.4955
 -0.4879  -0.4826  -0.4755  -0.4737  -0.4675  -0.4632  -0.4582  -0.4061
 -0.3990  -0.3814  -0.3543  -0.3501  -0.3220  -0.2932  -0.2531

          Ground-State Mulliken Net Atomic Charges

     Atom                 Charge (a.u.)
  ----------------------------------------
      1 C                    -0.194010
      2 C                    -0.253762
      3 S                    -0.026328
      4 C                    -0.020241
      5 H                     0.195578
      6 C                    -0.025244
      7 C                     0.231900
      8 C                     0.241265
      9 C                    -0.044314
     10 C                    -0.005362
     11 O                    -0.333474
     12 O                    -0.340533
     13 C                    -0.085615
     14 H                     0.121660
     15 H                     0.090387
     16 H                     0.093437
     17 C                    -0.087757
     18 H                     0.125033
     19 H                     0.093541
     20 H                     0.090082
     21 C                    -0.274375
     22 S                    -0.019862
     23 C                    -0.009428
     24 H                     0.193227
     25 H                     0.205339
     26 C                    -0.099693
     27 S                     0.129654
     28 C                    -0.144438
     29 C                    -0.021486
     30 C                    -0.087908
     31 S                     0.063896
     32 C                    -0.149456
     33 C                     0.396354
     34 F                    -0.205529
     35 C                     0.447114
     36 O                    -0.461496
     37 O                    -0.301047
     38 C                    -0.058226
     39 H                     0.121446
     40 H                     0.095359
     41 H                     0.095182
     42 H                     0.219130
  ----------------------------------------
  Sum of atomic charges =     0.000000

                    Cartesian Multipole Moments
 -----------------------------------------------------------------
    Charge (ESU x 10^10)
                 0.0000
    Dipole Moment (Debye)
         X       3.1018      Y       1.7081      Z       2.3259
       Tot       4.2366
    Quadrupole Moments (Debye-Ang)
        XX    -169.3297     XY       8.9882     YY    -174.9206
        XZ     -12.1911     YZ      -3.1009     ZZ    -202.7346

 Total job time:  326.89s(wall), 9904.25s(cpu)
        *  Thank you very much for using Q-Chem.  Have a nice day.  *
