 Q-Chem 5.4, Q-Chem, Inc., Pleasanton, CA (2021)
 Q-Chem 5.4.0 for Intel X86 EM64T Linux

User input:
--------------------------------------------------------------
$molecule
0 1
C	0.147685	-8.517702	-0.284919
C	-0.212552	-7.641575	0.728574
S	0.661757	-7.638634	-1.745304
C	-0.083761	-6.264785	0.374824
H	-0.565513	-7.966081	1.715621
C	0.405665	-6.072714	-0.965104
C	0.574617	-4.787049	-1.502136
C	-0.413763	-5.162801	1.214687
C	-0.248748	-3.874817	0.675870
C	0.243888	-3.683952	-0.664513
O	-0.838511	-5.499772	2.464209
O	1.000176	-4.459055	-2.757750
C	1.893778	-5.329063	-3.441858
H	2.284868	-4.755694	-4.303826
H	1.383341	-6.238095	-3.828743
H	2.741817	-5.637262	-2.792824
C	-1.586168	-4.572261	3.241222
H	-1.974033	-5.139743	4.108274
H	-2.441448	-4.153131	2.668916
H	-0.954660	-3.739531	3.620041
C	0.369302	-2.306654	-1.015668
S	-0.517367	-2.306501	1.453394
C	-0.000000	-1.435185	-0.000000
H	0.724300	-1.978138	-2.000559
H	0.145124	-9.614033	-0.288311
C	0.000000	0.000000	0.000000
S	0.452792	0.783312	1.507541
C	1.238397	2.145556	0.718873
C	0.452875	0.782898	-1.067872
C	1.145945	1.987956	-0.686410
S	0.333556	0.570531	-2.805516
C	1.204604	2.090290	-3.054530
C	1.556633	2.704929	-1.862551
F	2.220797	3.864903	-1.819088
C	1.430252	2.477345	-4.456084
O	1.052242	1.806648	-5.406510
O	2.099050	3.650663	-4.569225
C	2.351116	4.076808	-5.916207
H	2.895579	5.033821	-5.833064
H	1.401015	4.217390	-6.470168
H	2.962391	3.327969	-6.459293
H	1.699302	2.946693	1.306486
$end

$rem
JOBTYPE		SP
EXCHANGE	HF
CORRELATION	pRIMP2
BASIS		cc-pvtz
METHOD		rimp2
AUX_BASIS	rimp2-cc-pvtz
SOLVENT_METHOD	PCM
PURECART	11111
SYMMETRY	false
MEM_TOTAL	110000
SCF_CONVERGENCE = 6
THRESH=10
GUI = 2
$end

$solvent
dielectric 4.90
$end
--------------------------------------------------------------

             Standard Nuclear Orientation (Angstroms)
    I     Atom           X                Y                Z
 ----------------------------------------------------------------
    1      C       0.1476850000    -8.5177020000    -0.2849190000
    2      C      -0.2125520000    -7.6415750000     0.7285740000
    3      S       0.6617570000    -7.6386340000    -1.7453040000
    4      C      -0.0837610000    -6.2647850000     0.3748240000
    5      H      -0.5655130000    -7.9660810000     1.7156210000
    6      C       0.4056650000    -6.0727140000    -0.9651040000
    7      C       0.5746170000    -4.7870490000    -1.5021360000
    8      C      -0.4137630000    -5.1628010000     1.2146870000
    9      C      -0.2487480000    -3.8748170000     0.6758700000
   10      C       0.2438880000    -3.6839520000    -0.6645130000
   11      O      -0.8385110000    -5.4997720000     2.4642090000
   12      O       1.0001760000    -4.4590550000    -2.7577500000
   13      C       1.8937780000    -5.3290630000    -3.4418580000
   14      H       2.2848680000    -4.7556940000    -4.3038260000
   15      H       1.3833410000    -6.2380950000    -3.8287430000
   16      H       2.7418170000    -5.6372620000    -2.7928240000
   17      C      -1.5861680000    -4.5722610000     3.2412220000
   18      H      -1.9740330000    -5.1397430000     4.1082740000
   19      H      -2.4414480000    -4.1531310000     2.6689160000
   20      H      -0.9546600000    -3.7395310000     3.6200410000
   21      C       0.3693020000    -2.3066540000    -1.0156680000
   22      S      -0.5173670000    -2.3065010000     1.4533940000
   23      C       0.0000000000    -1.4351850000     0.0000000000
   24      H       0.7243000000    -1.9781380000    -2.0005590000
   25      H       0.1451240000    -9.6140330000    -0.2883110000
   26      C       0.0000000000     0.0000000000     0.0000000000
   27      S       0.4527920000     0.7833120000     1.5075410000
   28      C       1.2383970000     2.1455560000     0.7188730000
   29      C       0.4528750000     0.7828980000    -1.0678720000
   30      C       1.1459450000     1.9879560000    -0.6864100000
   31      S       0.3335560000     0.5705310000    -2.8055160000
   32      C       1.2046040000     2.0902900000    -3.0545300000
   33      C       1.5566330000     2.7049290000    -1.8625510000
   34      F       2.2207970000     3.8649030000    -1.8190880000
   35      C       1.4302520000     2.4773450000    -4.4560840000
   36      O       1.0522420000     1.8066480000    -5.4065100000
   37      O       2.0990500000     3.6506630000    -4.5692250000
   38      C       2.3511160000     4.0768080000    -5.9162070000
   39      H       2.8955790000     5.0338210000    -5.8330640000
   40      H       1.4010150000     4.2173900000    -6.4701680000
   41      H       2.9623910000     3.3279690000    -6.4592930000
   42      H       1.6993020000     2.9466930000     1.3064860000
 ----------------------------------------------------------------

   10   -2754.2999659614      7.38e-07  Convergence criterion met
 Total energy in the final basis set =    -2754.2999659614
        RIMP2         total energy =     -2759.3564270036 a.u.

                    Orbital Energies (a.u.)
 --------------------------------------------------------------

 Alpha MOs
 -- Occupied --
-92.0159 -92.0021 -91.9883 -91.9854 -26.3443 -20.6152 -20.5923 -20.5896
-20.5617 -11.4100 -11.3839 -11.3190 -11.3169 -11.3152 -11.3052 -11.2982
-11.2970 -11.2945 -11.2891 -11.2872 -11.2870 -11.2848 -11.2847 -11.2832
-11.2781 -11.2606 -11.2568 -11.2502 -11.2492  -9.0148  -9.0020  -8.9891
 -8.9853  -6.6955  -6.6949  -6.6944  -6.6830  -6.6823  -6.6812  -6.6702
 -6.6695  -6.6685  -6.6663  -6.6657  -6.6648  -1.6614  -1.4677  -1.4163
 -1.4125  -1.3704  -1.2250  -1.1935  -1.1654  -1.1379  -1.0852  -1.0509
 -1.0432  -1.0248  -1.0003  -0.9880  -0.9643  -0.9594  -0.9499  -0.9397
 -0.8954  -0.8693  -0.8500  -0.8093  -0.7986  -0.7880  -0.7853  -0.7635
 -0.7557  -0.7332  -0.7262  -0.7111  -0.7014  -0.6860  -0.6826  -0.6814
 -0.6742  -0.6590  -0.6586  -0.6516  -0.6301  -0.6190  -0.6164  -0.6038
 -0.5995  -0.5813  -0.5796  -0.5709  -0.5647  -0.5612  -0.5568  -0.5477
 -0.5342  -0.5305  -0.5236  -0.5175  -0.5156  -0.5095  -0.5059  -0.4958
 -0.4870  -0.4818  -0.4769  -0.4742  -0.4694  -0.4647  -0.4590  -0.4246
 -0.3948  -0.3838  -0.3606  -0.3491  -0.3271  -0.2895  -0.2494

          Ground-State Mulliken Net Atomic Charges

     Atom                 Charge (a.u.)
  ----------------------------------------
      1 C                    -0.192408
      2 C                    -0.253953
      3 S                    -0.023379
      4 C                    -0.019504
      5 H                     0.195790
      6 C                    -0.026652
      7 C                     0.239321
      8 C                     0.245306
      9 C                    -0.042204
     10 C                    -0.020926
     11 O                    -0.333282
     12 O                    -0.340516
     13 C                    -0.086133
     14 H                     0.122988
     15 H                     0.091033
     16 H                     0.093276
     17 C                    -0.087931
     18 H                     0.125817
     19 H                     0.095090
     20 H                     0.089134
     21 C                    -0.240054
     22 S                    -0.039896
     23 C                    -0.002529
     24 H                     0.192478
     25 H                     0.205809
     26 C                    -0.005415
     27 S                     0.107689
     28 C                    -0.188500
     29 C                    -0.032961
     30 C                    -0.093368
     31 S                     0.031572
     32 C                    -0.162369
     33 C                     0.405878
     34 F                    -0.205883
     35 C                     0.444755
     36 O                    -0.460771
     37 O                    -0.300926
     38 C                    -0.058359
     39 H                     0.121538
     40 H                     0.095287
     41 H                     0.095142
     42 H                     0.220018
  ----------------------------------------
  Sum of atomic charges =     0.000000

                    Cartesian Multipole Moments
 -----------------------------------------------------------------
    Charge (ESU x 10^10)
                -0.0000
    Dipole Moment (Debye)
         X       1.7924      Y       1.6058      Z       3.1043
       Tot       3.9278
    Quadrupole Moments (Debye-Ang)
        XX    -190.3666     XY       6.0264     YY    -166.2906
        XZ     -15.1808     YZ      -7.0853     ZZ    -188.4069

 Total job time:  296.15s(wall), 9073.89s(cpu)
        *  Thank you very much for using Q-Chem.  Have a nice day.  *
