 Q-Chem 5.4, Q-Chem, Inc., Pleasanton, CA (2021)
 Q-Chem 5.4.0 for Intel X86 EM64T Linux

User input:
--------------------------------------------------------------
$molecule
0 1
C	-0.194917	-8.517702	0.254945
C	0.335839	-7.641575	-0.680596
S	-0.954772	-7.638634	1.603876
C	0.147576	-6.264785	-0.354585
H	0.854836	-7.966081	-1.591356
C	-0.567090	-6.072714	0.879999
C	-0.826731	-4.787049	1.379534
C	0.618405	-5.162801	-1.124384
C	0.362333	-3.874817	-0.622407
C	-0.355575	-3.683952	0.612067
O	1.253677	-5.499772	-2.281166
O	-1.463859	-4.459055	2.542174
C	-2.462679	-5.329063	3.060718
H	-2.997507	-4.755694	3.841678
H	-2.027179	-6.238095	3.530361
H	-3.185132	-5.637262	2.274283
C	2.124902	-4.572261	-2.916545
H	2.657438	-5.139743	-3.703073
H	2.867810	-4.153131	-2.204417
H	1.568770	-3.739531	-3.399269
C	-0.540061	-2.306654	0.936109
S	0.761887	-2.306501	-1.341474
C	0.000000	-1.435185	0.000000
H	-1.060690	-1.978138	1.844392
H	-0.192984	-9.614033	0.258730
C	0.000000	0.000000	0.000000
S	0.000474	0.904764	1.507541
C	-0.000295	2.477305	0.718873
C	0.000752	0.904447	-1.067872
C	-0.001560	2.294593	-0.686410
S	0.003602	0.660872	-2.805516
C	-0.001928	2.412546	-3.054530
C	-0.004381	3.120854	-1.862551
F	-0.009185	4.457503	-1.819088
C	-0.000038	2.860570	-4.456084
O	0.007944	2.090724	-5.406510
O	-0.007501	4.211092	-4.569225
C	-0.002278	4.706177	-5.916207
H	-0.009265	5.807207	-5.833064
H	-0.895381	4.352875	-6.470168
H	0.901521	4.363301	-6.459293
H	-0.001708	3.401562	1.306486
$end

$rem
JOBTYPE		SP
EXCHANGE	HF
CORRELATION	pRIMP2
BASIS		cc-pvtz
METHOD		rimp2
AUX_BASIS	rimp2-cc-pvtz
SOLVENT_METHOD	PCM
PURECART	11111
SYMMETRY	false
MEM_TOTAL	110000
SCF_CONVERGENCE = 6
THRESH=10
GUI = 2
$end

$solvent
dielectric 4.90
$end
--------------------------------------------------------------

             Standard Nuclear Orientation (Angstroms)
    I     Atom           X                Y                Z
 ----------------------------------------------------------------
    1      C      -0.1949170000    -8.5177020000     0.2549450000
    2      C       0.3358390000    -7.6415750000    -0.6805960000
    3      S      -0.9547720000    -7.6386340000     1.6038760000
    4      C       0.1475760000    -6.2647850000    -0.3545850000
    5      H       0.8548360000    -7.9660810000    -1.5913560000
    6      C      -0.5670900000    -6.0727140000     0.8799990000
    7      C      -0.8267310000    -4.7870490000     1.3795340000
    8      C       0.6184050000    -5.1628010000    -1.1243840000
    9      C       0.3623330000    -3.8748170000    -0.6224070000
   10      C      -0.3555750000    -3.6839520000     0.6120670000
   11      O       1.2536770000    -5.4997720000    -2.2811660000
   12      O      -1.4638590000    -4.4590550000     2.5421740000
   13      C      -2.4626790000    -5.3290630000     3.0607180000
   14      H      -2.9975070000    -4.7556940000     3.8416780000
   15      H      -2.0271790000    -6.2380950000     3.5303610000
   16      H      -3.1851320000    -5.6372620000     2.2742830000
   17      C       2.1249020000    -4.5722610000    -2.9165450000
   18      H       2.6574380000    -5.1397430000    -3.7030730000
   19      H       2.8678100000    -4.1531310000    -2.2044170000
   20      H       1.5687700000    -3.7395310000    -3.3992690000
   21      C      -0.5400610000    -2.3066540000     0.9361090000
   22      S       0.7618870000    -2.3065010000    -1.3414740000
   23      C       0.0000000000    -1.4351850000     0.0000000000
   24      H      -1.0606900000    -1.9781380000     1.8443920000
   25      H      -0.1929840000    -9.6140330000     0.2587300000
   26      C       0.0000000000     0.0000000000     0.0000000000
   27      S       0.0004740000     0.9047640000     1.5075410000
   28      C      -0.0002950000     2.4773050000     0.7188730000
   29      C       0.0007520000     0.9044470000    -1.0678720000
   30      C      -0.0015600000     2.2945930000    -0.6864100000
   31      S       0.0036020000     0.6608720000    -2.8055160000
   32      C      -0.0019280000     2.4125460000    -3.0545300000
   33      C      -0.0043810000     3.1208540000    -1.8625510000
   34      F      -0.0091850000     4.4575030000    -1.8190880000
   35      C      -0.0000380000     2.8605700000    -4.4560840000
   36      O       0.0079440000     2.0907240000    -5.4065100000
   37      O      -0.0075010000     4.2110920000    -4.5692250000
   38      C      -0.0022780000     4.7061770000    -5.9162070000
   39      H      -0.0092650000     5.8072070000    -5.8330640000
   40      H      -0.8953810000     4.3528750000    -6.4701680000
   41      H       0.9015210000     4.3633010000    -6.4592930000
   42      H      -0.0017080000     3.4015620000     1.3064860000
 ----------------------------------------------------------------

   10   -2754.3168140184      7.47e-07  Convergence criterion met
 Total energy in the final basis set =    -2754.3168140184
        RIMP2         total energy =     -2759.3689794516 a.u.

                    Orbital Energies (a.u.)
 --------------------------------------------------------------

 Alpha MOs
 -- Occupied --
-92.0154 -91.9978 -91.9911 -91.9865 -26.3430 -20.6146 -20.5925 -20.5916
-20.5610 -11.4091 -11.3820 -11.3200 -11.3177 -11.3091 -11.3015 -11.2997
-11.2970 -11.2970 -11.2887 -11.2868 -11.2867 -11.2863 -11.2851 -11.2844
-11.2796 -11.2621 -11.2587 -11.2562 -11.2501  -9.0138  -8.9979  -8.9916
 -8.9864  -6.6946  -6.6940  -6.6935  -6.6789  -6.6781  -6.6770  -6.6725
 -6.6719  -6.6709  -6.6674  -6.6667  -6.6659  -1.6601  -1.4670  -1.4166
 -1.4143  -1.3697  -1.2216  -1.1950  -1.1661  -1.1360  -1.0858  -1.0524
 -1.0412  -1.0234  -1.0024  -0.9883  -0.9640  -0.9587  -0.9501  -0.9404
 -0.8961  -0.8676  -0.8521  -0.8141  -0.7919  -0.7877  -0.7867  -0.7653
 -0.7552  -0.7342  -0.7249  -0.7099  -0.6992  -0.6855  -0.6836  -0.6813
 -0.6737  -0.6593  -0.6580  -0.6527  -0.6309  -0.6201  -0.6169  -0.6035
 -0.5973  -0.5853  -0.5781  -0.5702  -0.5676  -0.5592  -0.5576  -0.5536
 -0.5321  -0.5294  -0.5248  -0.5181  -0.5168  -0.5102  -0.5067  -0.4958
 -0.4881  -0.4783  -0.4768  -0.4740  -0.4697  -0.4652  -0.4597  -0.4233
 -0.3951  -0.3857  -0.3598  -0.3506  -0.3246  -0.2904  -0.2515

          Ground-State Mulliken Net Atomic Charges

     Atom                 Charge (a.u.)
  ----------------------------------------
      1 C                    -0.189359
      2 C                    -0.253297
      3 S                    -0.022224
      4 C                    -0.017425
      5 H                     0.196504
      6 C                    -0.027920
      7 C                     0.243115
      8 C                     0.242759
      9 C                    -0.040842
     10 C                    -0.020715
     11 O                    -0.332879
     12 O                    -0.340382
     13 C                    -0.085746
     14 H                     0.122353
     15 H                     0.091168
     16 H                     0.094244
     17 C                    -0.088581
     18 H                     0.125716
     19 H                     0.094972
     20 H                     0.091190
     21 C                    -0.262161
     22 S                    -0.025969
     23 C                     0.016764
     24 H                     0.192054
     25 H                     0.206366
     26 C                     0.014534
     27 S                     0.095014
     28 C                    -0.186507
     29 C                    -0.008296
     30 C                    -0.117791
     31 S                     0.004895
     32 C                    -0.159915
     33 C                     0.402249
     34 F                    -0.207149
     35 C                     0.443588
     36 O                    -0.460953
     37 O                    -0.300587
     38 C                    -0.058723
     39 H                     0.121372
     40 H                     0.095176
     41 H                     0.095006
     42 H                     0.218382
  ----------------------------------------
  Sum of atomic charges =     0.000000

                    Cartesian Multipole Moments
 -----------------------------------------------------------------
    Charge (ESU x 10^10)
                 0.0000
    Dipole Moment (Debye)
         X      -0.1230      Y       1.0106      Z       2.7315
       Tot       2.9151
    Quadrupole Moments (Debye-Ang)
        XX    -190.2662     XY       1.1718     YY    -159.6050
        XZ     -12.6424     YZ      -6.6513     ZZ    -193.0670

 Total job time:  294.44s(wall), 9237.78s(cpu)
        *  Thank you very much for using Q-Chem.  Have a nice day.  *
