 Q-Chem 5.4, Q-Chem, Inc., Pleasanton, CA (2021)
 Q-Chem 5.4.0 for Intel X86 EM64T Linux

User input:
--------------------------------------------------------------
$molecule
0 1
C	-0.194917	-8.517702	0.254945
C	0.335839	-7.641575	-0.680596
S	-0.954772	-7.638634	1.603876
C	0.147576	-6.264785	-0.354585
H	0.854836	-7.966081	-1.591356
C	-0.567090	-6.072714	0.879999
C	-0.826731	-4.787049	1.379534
C	0.618405	-5.162801	-1.124384
C	0.362333	-3.874817	-0.622407
C	-0.355575	-3.683952	0.612067
O	1.253677	-5.499772	-2.281166
O	-1.463859	-4.459055	2.542174
C	-2.462679	-5.329063	3.060718
H	-2.997507	-4.755694	3.841678
H	-2.027179	-6.238095	3.530361
H	-3.185132	-5.637262	2.274283
C	2.124902	-4.572261	-2.916545
H	2.657438	-5.139743	-3.703073
H	2.867810	-4.153131	-2.204417
H	1.568770	-3.739531	-3.399269
C	-0.540061	-2.306654	0.936109
S	0.761887	-2.306501	-1.341474
C	-0.000000	-1.435185	-0.000000
H	-1.060690	-1.978138	1.844392
H	-0.192984	-9.614033	0.258730
C	0.000000	0.000000	0.000000
S	0.581934	0.692785	1.507541
C	1.592155	1.897915	0.718873
C	0.581944	0.692363	-1.067872
C	1.473741	1.758764	-0.686410
S	0.427560	0.503942	-2.805516
C	1.549278	1.849357	-3.054530
C	2.002690	2.393529	-1.862551
F	2.858191	3.420549	-1.819088
C	1.838710	2.191348	-4.456084
O	1.349977	1.596481	-5.406510
O	2.701091	3.230705	-4.569225
C	3.023327	3.606605	-5.916207
H	3.725703	4.454534	-5.833064
H	2.112072	3.910035	-6.470168
H	3.495281	2.762996	-6.459293
H	2.185174	2.606846	1.306486
$end

$rem
JOBTYPE		SP
EXCHANGE	HF
CORRELATION	pRIMP2
BASIS		cc-pvtz
METHOD		rimp2
AUX_BASIS	rimp2-cc-pvtz
SOLVENT_METHOD	PCM
PURECART	11111
SYMMETRY	false
MEM_TOTAL	110000
SCF_CONVERGENCE = 6
THRESH=10
GUI = 2
$end

$solvent
dielectric 4.90
$end
--------------------------------------------------------------

             Standard Nuclear Orientation (Angstroms)
    I     Atom           X                Y                Z
 ----------------------------------------------------------------
    1      C      -0.1949170000    -8.5177020000     0.2549450000
    2      C       0.3358390000    -7.6415750000    -0.6805960000
    3      S      -0.9547720000    -7.6386340000     1.6038760000
    4      C       0.1475760000    -6.2647850000    -0.3545850000
    5      H       0.8548360000    -7.9660810000    -1.5913560000
    6      C      -0.5670900000    -6.0727140000     0.8799990000
    7      C      -0.8267310000    -4.7870490000     1.3795340000
    8      C       0.6184050000    -5.1628010000    -1.1243840000
    9      C       0.3623330000    -3.8748170000    -0.6224070000
   10      C      -0.3555750000    -3.6839520000     0.6120670000
   11      O       1.2536770000    -5.4997720000    -2.2811660000
   12      O      -1.4638590000    -4.4590550000     2.5421740000
   13      C      -2.4626790000    -5.3290630000     3.0607180000
   14      H      -2.9975070000    -4.7556940000     3.8416780000
   15      H      -2.0271790000    -6.2380950000     3.5303610000
   16      H      -3.1851320000    -5.6372620000     2.2742830000
   17      C       2.1249020000    -4.5722610000    -2.9165450000
   18      H       2.6574380000    -5.1397430000    -3.7030730000
   19      H       2.8678100000    -4.1531310000    -2.2044170000
   20      H       1.5687700000    -3.7395310000    -3.3992690000
   21      C      -0.5400610000    -2.3066540000     0.9361090000
   22      S       0.7618870000    -2.3065010000    -1.3414740000
   23      C       0.0000000000    -1.4351850000     0.0000000000
   24      H      -1.0606900000    -1.9781380000     1.8443920000
   25      H      -0.1929840000    -9.6140330000     0.2587300000
   26      C       0.0000000000     0.0000000000     0.0000000000
   27      S       0.5819340000     0.6927850000     1.5075410000
   28      C       1.5921550000     1.8979150000     0.7188730000
   29      C       0.5819440000     0.6923630000    -1.0678720000
   30      C       1.4737410000     1.7587640000    -0.6864100000
   31      S       0.4275600000     0.5039420000    -2.8055160000
   32      C       1.5492780000     1.8493570000    -3.0545300000
   33      C       2.0026900000     2.3935290000    -1.8625510000
   34      F       2.8581910000     3.4205490000    -1.8190880000
   35      C       1.8387100000     2.1913480000    -4.4560840000
   36      O       1.3499770000     1.5964810000    -5.4065100000
   37      O       2.7010910000     3.2307050000    -4.5692250000
   38      C       3.0233270000     3.6066050000    -5.9162070000
   39      H       3.7257030000     4.4545340000    -5.8330640000
   40      H       2.1120720000     3.9100350000    -6.4701680000
   41      H       3.4952810000     2.7629960000    -6.4592930000
   42      H       2.1851740000     2.6068460000     1.3064860000
 ----------------------------------------------------------------

   10   -2754.2842658361      7.30e-07  Convergence criterion met
 Total energy in the final basis set =    -2754.2842658361
        RIMP2         total energy =     -2759.3447145542 a.u.

                    Orbital Energies (a.u.)
 --------------------------------------------------------------

 Alpha MOs
 -- Occupied --
-92.0150 -92.0033 -91.9860 -91.9843 -26.3447 -20.6154 -20.5910 -20.5887
-20.5619 -11.4102 -11.3845 -11.3222 -11.3176 -11.3126 -11.3095 -11.2981
-11.2948 -11.2893 -11.2879 -11.2873 -11.2859 -11.2848 -11.2821 -11.2806
-11.2765 -11.2586 -11.2546 -11.2483 -11.2450  -9.0139  -9.0033  -8.9868
 -8.9842  -6.6946  -6.6939  -6.6935  -6.6842  -6.6835  -6.6824  -6.6677
 -6.6670  -6.6660  -6.6652  -6.6646  -6.6637  -1.6618  -1.4679  -1.4150
 -1.4116  -1.3706  -1.2276  -1.1914  -1.1640  -1.1382  -1.0851  -1.0495
 -1.0429  -1.0259  -0.9992  -0.9867  -0.9650  -0.9569  -0.9486  -0.9407
 -0.8937  -0.8700  -0.8472  -0.8161  -0.7932  -0.7857  -0.7828  -0.7638
 -0.7556  -0.7315  -0.7266  -0.7111  -0.6980  -0.6862  -0.6829  -0.6806
 -0.6745  -0.6592  -0.6573  -0.6509  -0.6295  -0.6180  -0.6156  -0.6059
 -0.5991  -0.5824  -0.5780  -0.5687  -0.5656  -0.5588  -0.5554  -0.5495
 -0.5324  -0.5294  -0.5228  -0.5165  -0.5155  -0.5104  -0.5061  -0.4955
 -0.4867  -0.4816  -0.4762  -0.4742  -0.4699  -0.4613  -0.4574  -0.4195
 -0.3950  -0.3820  -0.3561  -0.3515  -0.3257  -0.2888  -0.2483

          Ground-State Mulliken Net Atomic Charges

     Atom                 Charge (a.u.)
  ----------------------------------------
      1 C                    -0.195573
      2 C                    -0.253231
      3 S                    -0.026167
      4 C                    -0.022618
      5 H                     0.195663
      6 C                    -0.024716
      7 C                     0.228814
      8 C                     0.243444
      9 C                    -0.048467
     10 C                    -0.003852
     11 O                    -0.333177
     12 O                    -0.341295
     13 C                    -0.085510
     14 H                     0.121373
     15 H                     0.090420
     16 H                     0.093335
     17 C                    -0.089246
     18 H                     0.125463
     19 H                     0.093861
     20 H                     0.091220
     21 C                    -0.291097
     22 S                    -0.022897
     23 C                     0.026229
     24 H                     0.189481
     25 H                     0.205231
     26 C                    -0.044930
     27 S                     0.121870
     28 C                    -0.167401
     29 C                    -0.030071
     30 C                    -0.086680
     31 S                     0.045299
     32 C                    -0.157914
     33 C                     0.402941
     34 F                    -0.206040
     35 C                     0.445786
     36 O                    -0.461393
     37 O                    -0.300895
     38 C                    -0.058330
     39 H                     0.121533
     40 H                     0.095362
     41 H                     0.095045
     42 H                     0.219128
  ----------------------------------------
  Sum of atomic charges =     0.000000

                    Cartesian Multipole Moments
 -----------------------------------------------------------------
    Charge (ESU x 10^10)
                 0.0000
    Dipole Moment (Debye)
         X       2.3015      Y       2.0000      Z       2.2913
       Tot       3.8140
    Quadrupole Moments (Debye-Ang)
        XX    -183.3490     XY       9.1558     YY    -172.6075
        XZ     -17.0148     YZ      -4.0521     ZZ    -192.1598

 Total job time:  304.63s(wall), 9481.49s(cpu)
        *  Thank you very much for using Q-Chem.  Have a nice day.  *
