 Q-Chem 5.4, Q-Chem, Inc., Pleasanton, CA (2021)
 Q-Chem 5.4.0 for Intel X86 EM64T Linux

User input:
--------------------------------------------------------------
$molecule
0 1
C	-0.296276	-8.517702	0.123330
C	0.631143	-7.641575	-0.421494
S	-1.628795	-7.638634	0.911611
C	0.305097	-6.264785	-0.233291
H	1.535988	-7.966081	-0.950737
C	-0.931114	-6.072714	0.478557
C	-1.405737	-4.787049	0.781346
C	1.097747	-5.162801	-0.664542
C	0.624993	-3.874817	-0.357854
C	-0.613970	-3.683952	0.352278
O	2.226300	-5.499772	-1.348709
O	-2.538827	-4.459055	1.469658
C	-3.663102	-5.329063	1.419319
H	-4.516756	-4.755694	1.828237
H	-3.520769	-6.238095	2.043793
H	-3.895546	-5.637262	0.377021
C	3.298492	-4.572261	-1.463351
H	4.152945	-5.139743	-1.878237
H	3.585804	-4.153131	-0.475176
H	3.058230	-3.739531	-2.159469
C	-0.935761	-2.306654	0.540664
S	1.330550	-2.306501	-0.780808
C	-0.000000	-1.435185	-0.000000
H	-1.840780	-1.978138	1.066946
H	-0.296494	-9.614033	0.127575
C	0.000000	0.000000	0.000000
S	0.382799	0.819795	1.507541
C	1.046687	2.245325	0.718873
C	0.382918	0.819389	-1.067872
C	0.968323	2.080267	-0.686410
S	0.282561	0.597432	-2.805516
C	1.017839	2.187324	-3.054530
C	1.314960	2.830306	-1.862551
F	1.875498	4.043751	-1.819088
C	1.208895	2.592573	-4.456084
O	0.890778	1.891482	-5.406510
O	1.772886	3.819715	-4.569225
C	1.986852	4.266207	-5.916207
H	2.445834	5.267032	-5.833064
H	1.028114	4.323448	-6.470168
H	2.661066	3.573494	-6.459293
H	1.436015	3.083584	1.306486
$end

$rem
JOBTYPE		SP
EXCHANGE	HF
CORRELATION	pRIMP2
BASIS		cc-pvtz
METHOD		rimp2
AUX_BASIS	rimp2-cc-pvtz
SOLVENT_METHOD	PCM
PURECART	11111
SYMMETRY	false
MEM_TOTAL	110000
SCF_CONVERGENCE = 6
THRESH=10
GUI = 2
$end

$solvent
dielectric 4.90
$end
--------------------------------------------------------------

             Standard Nuclear Orientation (Angstroms)
    I     Atom           X                Y                Z
 ----------------------------------------------------------------
    1      C      -0.2962760000    -8.5177020000     0.1233300000
    2      C       0.6311430000    -7.6415750000    -0.4214940000
    3      S      -1.6287950000    -7.6386340000     0.9116110000
    4      C       0.3050970000    -6.2647850000    -0.2332910000
    5      H       1.5359880000    -7.9660810000    -0.9507370000
    6      C      -0.9311140000    -6.0727140000     0.4785570000
    7      C      -1.4057370000    -4.7870490000     0.7813460000
    8      C       1.0977470000    -5.1628010000    -0.6645420000
    9      C       0.6249930000    -3.8748170000    -0.3578540000
   10      C      -0.6139700000    -3.6839520000     0.3522780000
   11      O       2.2263000000    -5.4997720000    -1.3487090000
   12      O      -2.5388270000    -4.4590550000     1.4696580000
   13      C      -3.6631020000    -5.3290630000     1.4193190000
   14      H      -4.5167560000    -4.7556940000     1.8282370000
   15      H      -3.5207690000    -6.2380950000     2.0437930000
   16      H      -3.8955460000    -5.6372620000     0.3770210000
   17      C       3.2984920000    -4.5722610000    -1.4633510000
   18      H       4.1529450000    -5.1397430000    -1.8782370000
   19      H       3.5858040000    -4.1531310000    -0.4751760000
   20      H       3.0582300000    -3.7395310000    -2.1594690000
   21      C      -0.9357610000    -2.3066540000     0.5406640000
   22      S       1.3305500000    -2.3065010000    -0.7808080000
   23      C       0.0000000000    -1.4351850000     0.0000000000
   24      H      -1.8407800000    -1.9781380000     1.0669460000
   25      H      -0.2964940000    -9.6140330000     0.1275750000
   26      C       0.0000000000     0.0000000000     0.0000000000
   27      S       0.3827990000     0.8197950000     1.5075410000
   28      C       1.0466870000     2.2453250000     0.7188730000
   29      C       0.3829180000     0.8193890000    -1.0678720000
   30      C       0.9683230000     2.0802670000    -0.6864100000
   31      S       0.2825610000     0.5974320000    -2.8055160000
   32      C       1.0178390000     2.1873240000    -3.0545300000
   33      C       1.3149600000     2.8303060000    -1.8625510000
   34      F       1.8754980000     4.0437510000    -1.8190880000
   35      C       1.2088950000     2.5925730000    -4.4560840000
   36      O       0.8907780000     1.8914820000    -5.4065100000
   37      O       1.7728860000     3.8197150000    -4.5692250000
   38      C       1.9868520000     4.2662070000    -5.9162070000
   39      H       2.4458340000     5.2670320000    -5.8330640000
   40      H       1.0281140000     4.3234480000    -6.4701680000
   41      H       2.6610660000     3.5734940000    -6.4592930000
   42      H       1.4360150000     3.0835840000     1.3064860000
 ----------------------------------------------------------------

   10   -2754.3047914501      7.51e-07  Convergence criterion met
 Total energy in the final basis set =    -2754.3047914501
        RIMP2         total energy =     -2759.3578246393 a.u.

                    Orbital Energies (a.u.)
 --------------------------------------------------------------

 Alpha MOs
 -- Occupied --
-92.0146 -91.9986 -91.9882 -91.9860 -26.3431 -20.6145 -20.5919 -20.5912
-20.5609 -11.4090 -11.3821 -11.3187 -11.3172 -11.3127 -11.3022 -11.2969
-11.2930 -11.2915 -11.2887 -11.2866 -11.2860 -11.2851 -11.2846 -11.2835
-11.2794 -11.2597 -11.2584 -11.2543 -11.2497  -9.0131  -8.9986  -8.9886
 -8.9860  -6.6938  -6.6932  -6.6927  -6.6795  -6.6788  -6.6777  -6.6695
 -6.6689  -6.6679  -6.6669  -6.6663  -6.6655  -1.6602  -1.4670  -1.4160
 -1.4139  -1.3696  -1.2221  -1.1936  -1.1648  -1.1359  -1.0843  -1.0514
 -1.0413  -1.0228  -1.0010  -0.9872  -0.9630  -0.9589  -0.9499  -0.9390
 -0.8953  -0.8675  -0.8498  -0.8122  -0.7919  -0.7871  -0.7859  -0.7647
 -0.7550  -0.7333  -0.7251  -0.7096  -0.6994  -0.6850  -0.6827  -0.6808
 -0.6736  -0.6588  -0.6575  -0.6523  -0.6299  -0.6197  -0.6168  -0.6053
 -0.5976  -0.5845  -0.5774  -0.5686  -0.5654  -0.5606  -0.5556  -0.5486
 -0.5323  -0.5304  -0.5234  -0.5158  -0.5148  -0.5082  -0.5057  -0.4960
 -0.4887  -0.4801  -0.4751  -0.4732  -0.4692  -0.4652  -0.4599  -0.4095
 -0.3989  -0.3846  -0.3556  -0.3500  -0.3210  -0.2923  -0.2565

          Ground-State Mulliken Net Atomic Charges

     Atom                 Charge (a.u.)
  ----------------------------------------
      1 C                    -0.188992
      2 C                    -0.254326
      3 S                    -0.023307
      4 C                    -0.015086
      5 H                     0.196274
      6 C                    -0.025911
      7 C                     0.237835
      8 C                     0.240213
      9 C                    -0.042722
     10 C                    -0.010918
     11 O                    -0.333316
     12 O                    -0.340084
     13 C                    -0.085662
     14 H                     0.122373
     15 H                     0.090901
     16 H                     0.094199
     17 C                    -0.087448
     18 H                     0.125093
     19 H                     0.094217
     20 H                     0.090671
     21 C                    -0.249025
     22 S                    -0.003893
     23 C                    -0.036051
     24 H                     0.196445
     25 H                     0.206280
     26 C                     0.012238
     27 S                     0.115185
     28 C                    -0.186136
     29 C                    -0.077463
     30 C                    -0.075802
     31 S                     0.027347
     32 C                    -0.153261
     33 C                     0.392957
     34 F                    -0.206829
     35 C                     0.445808
     36 O                    -0.461167
     37 O                    -0.300930
     38 C                    -0.058421
     39 H                     0.121287
     40 H                     0.095177
     41 H                     0.094982
     42 H                     0.217271
  ----------------------------------------
  Sum of atomic charges =     0.000000

                    Cartesian Multipole Moments
 -----------------------------------------------------------------
    Charge (ESU x 10^10)
                 0.0000
    Dipole Moment (Debye)
         X       1.2808      Y       1.0704      Z       2.6691
       Tot       3.1481
    Quadrupole Moments (Debye-Ang)
        XX    -176.1570     XY       7.0066     YY    -163.4057
        XZ      -9.9914     YZ      -5.4105     ZZ    -204.1982

 Total job time:  305.73s(wall), 10027.63s(cpu)
        *  Thank you very much for using Q-Chem.  Have a nice day.  *
