 Q-Chem 5.4, Q-Chem, Inc., Pleasanton, CA (2021)
 Q-Chem 5.4.0 for Intel X86 EM64T Linux

User input:
--------------------------------------------------------------
$molecule
0 1
C	-0.284919	-8.517702	-0.147685
C	0.728574	-7.641575	0.212552
S	-1.745304	-7.638634	-0.661757
C	0.374824	-6.264785	0.083761
H	1.715621	-7.966081	0.565513
C	-0.965104	-6.072714	-0.405665
C	-1.502136	-4.787049	-0.574617
C	1.214687	-5.162801	0.413763
C	0.675870	-3.874817	0.248748
C	-0.664513	-3.683952	-0.243888
O	2.464209	-5.499772	0.838511
O	-2.757750	-4.459055	-1.000176
C	-3.441858	-5.329063	-1.893778
H	-4.303826	-4.755694	-2.284868
H	-3.828743	-6.238095	-1.383341
H	-2.792824	-5.637262	-2.741817
C	3.241222	-4.572261	1.586168
H	4.108274	-5.139743	1.974033
H	2.668916	-4.153131	2.441448
H	3.620041	-3.739531	0.954660
C	-1.015668	-2.306654	-0.369302
S	1.453394	-2.306501	0.517367
C	0.000000	-1.435185	0.000000
H	-2.000559	-1.978138	-0.724300
H	-0.288311	-9.614033	-0.145124
C	0.000000	0.000000	0.000000
S	0.234628	0.873813	1.507541
C	0.640889	2.392969	0.718873
C	0.234815	0.873434	-1.067872
C	0.592377	2.216811	-0.686410
S	0.174526	0.637422	-2.805516
C	0.622551	2.330840	-3.054530
C	0.803505	3.015647	-1.862551
F	1.144815	4.307994	-1.819088
C	0.740334	2.763108	-4.456084
O	0.548793	2.017428	-5.406510
O	1.082665	4.069544	-4.569225
C	1.215848	4.546407	-5.916207
H	1.494066	5.611729	-5.833064
H	0.261736	4.436296	-6.470168
H	2.000108	3.981294	-6.459293
H	0.878739	3.286099	1.306486
$end

$rem
JOBTYPE		SP
EXCHANGE	HF
CORRELATION	pRIMP2
BASIS		cc-pvtz
METHOD		rimp2
AUX_BASIS	rimp2-cc-pvtz
SOLVENT_METHOD	PCM
PURECART	11111
SYMMETRY	false
MEM_TOTAL	110000
SCF_CONVERGENCE = 6
THRESH=10
GUI = 2
$end

$solvent
dielectric 4.90
$end
--------------------------------------------------------------

             Standard Nuclear Orientation (Angstroms)
    I     Atom           X                Y                Z
 ----------------------------------------------------------------
    1      C      -0.2849190000    -8.5177020000    -0.1476850000
    2      C       0.7285740000    -7.6415750000     0.2125520000
    3      S      -1.7453040000    -7.6386340000    -0.6617570000
    4      C       0.3748240000    -6.2647850000     0.0837610000
    5      H       1.7156210000    -7.9660810000     0.5655130000
    6      C      -0.9651040000    -6.0727140000    -0.4056650000
    7      C      -1.5021360000    -4.7870490000    -0.5746170000
    8      C       1.2146870000    -5.1628010000     0.4137630000
    9      C       0.6758700000    -3.8748170000     0.2487480000
   10      C      -0.6645130000    -3.6839520000    -0.2438880000
   11      O       2.4642090000    -5.4997720000     0.8385110000
   12      O      -2.7577500000    -4.4590550000    -1.0001760000
   13      C      -3.4418580000    -5.3290630000    -1.8937780000
   14      H      -4.3038260000    -4.7556940000    -2.2848680000
   15      H      -3.8287430000    -6.2380950000    -1.3833410000
   16      H      -2.7928240000    -5.6372620000    -2.7418170000
   17      C       3.2412220000    -4.5722610000     1.5861680000
   18      H       4.1082740000    -5.1397430000     1.9740330000
   19      H       2.6689160000    -4.1531310000     2.4414480000
   20      H       3.6200410000    -3.7395310000     0.9546600000
   21      C      -1.0156680000    -2.3066540000    -0.3693020000
   22      S       1.4533940000    -2.3065010000     0.5173670000
   23      C       0.0000000000    -1.4351850000     0.0000000000
   24      H      -2.0005590000    -1.9781380000    -0.7243000000
   25      H      -0.2883110000    -9.6140330000    -0.1451240000
   26      C       0.0000000000     0.0000000000     0.0000000000
   27      S       0.2346280000     0.8738130000     1.5075410000
   28      C       0.6408890000     2.3929690000     0.7188730000
   29      C       0.2348150000     0.8734340000    -1.0678720000
   30      C       0.5923770000     2.2168110000    -0.6864100000
   31      S       0.1745260000     0.6374220000    -2.8055160000
   32      C       0.6225510000     2.3308400000    -3.0545300000
   33      C       0.8035050000     3.0156470000    -1.8625510000
   34      F       1.1448150000     4.3079940000    -1.8190880000
   35      C       0.7403340000     2.7631080000    -4.4560840000
   36      O       0.5487930000     2.0174280000    -5.4065100000
   37      O       1.0826650000     4.0695440000    -4.5692250000
   38      C       1.2158480000     4.5464070000    -5.9162070000
   39      H       1.4940660000     5.6117290000    -5.8330640000
   40      H       0.2617360000     4.4362960000    -6.4701680000
   41      H       2.0001080000     3.9812940000    -6.4592930000
   42      H       0.8787390000     3.2860990000     1.3064860000
 ----------------------------------------------------------------

   10   -2754.3109803783      7.01e-07  Convergence criterion met
 Total energy in the final basis set =    -2754.3109803783
        RIMP2         total energy =     -2759.3612444980 a.u.

                    Orbital Energies (a.u.)
 --------------------------------------------------------------

 Alpha MOs
 -- Occupied --
-92.0143 -91.9972 -91.9894 -91.9864 -26.3427 -20.6143 -20.5925 -20.5914
-20.5606 -11.4087 -11.3816 -11.3192 -11.3181 -11.3102 -11.3013 -11.2964
-11.2956 -11.2918 -11.2885 -11.2873 -11.2861 -11.2859 -11.2839 -11.2837
-11.2800 -11.2602 -11.2592 -11.2568 -11.2500  -9.0128  -8.9971  -8.9898
 -8.9863  -6.6935  -6.6930  -6.6924  -6.6782  -6.6774  -6.6763  -6.6707
 -6.6701  -6.6691  -6.6673  -6.6667  -6.6658  -1.6598  -1.4667  -1.4166
 -1.4142  -1.3694  -1.2205  -1.1943  -1.1653  -1.1353  -1.0843  -1.0519
 -1.0408  -1.0219  -1.0016  -0.9876  -0.9615  -0.9607  -0.9504  -0.9384
 -0.8959  -0.8669  -0.8511  -0.8086  -0.7948  -0.7879  -0.7864  -0.7647
 -0.7549  -0.7338  -0.7247  -0.7090  -0.7011  -0.6846  -0.6831  -0.6801
 -0.6734  -0.6592  -0.6572  -0.6526  -0.6304  -0.6200  -0.6173  -0.6048
 -0.5973  -0.5861  -0.5772  -0.5692  -0.5662  -0.5602  -0.5553  -0.5471
 -0.5342  -0.5305  -0.5230  -0.5159  -0.5154  -0.5093  -0.5039  -0.4942
 -0.4893  -0.4794  -0.4746  -0.4731  -0.4696  -0.4672  -0.4617  -0.4083
 -0.3963  -0.3869  -0.3569  -0.3498  -0.3157  -0.2971  -0.2581

          Ground-State Mulliken Net Atomic Charges

     Atom                 Charge (a.u.)
  ----------------------------------------
      1 C                    -0.187814
      2 C                    -0.254713
      3 S                    -0.021887
      4 C                    -0.013554
      5 H                     0.196307
      6 C                    -0.027426
      7 C                     0.244279
      8 C                     0.239396
      9 C                    -0.042985
     10 C                    -0.027283
     11 O                    -0.333213
     12 O                    -0.339933
     13 C                    -0.085860
     14 H                     0.122853
     15 H                     0.090866
     16 H                     0.094448
     17 C                    -0.086650
     18 H                     0.124867
     19 H                     0.094262
     20 H                     0.090131
     21 C                    -0.219623
     22 S                    -0.001514
     23 C                    -0.066640
     24 H                     0.198515
     25 H                     0.206482
     26 C                    -0.016375
     27 S                     0.104596
     28 C                    -0.183650
     29 C                     0.010072
     30 C                    -0.100210
     31 S                     0.008227
     32 C                    -0.152075
     33 C                     0.389503
     34 F                    -0.206863
     35 C                     0.445278
     36 O                    -0.461172
     37 O                    -0.300783
     38 C                    -0.058441
     39 H                     0.121188
     40 H                     0.094963
     41 H                     0.095013
     42 H                     0.217417
  ----------------------------------------
  Sum of atomic charges =     0.000000

                    Cartesian Multipole Moments
 -----------------------------------------------------------------
    Charge (ESU x 10^10)
                 0.0000
    Dipole Moment (Debye)
         X       0.8687      Y       0.8872      Z       2.8077
       Tot       3.0700
    Quadrupole Moments (Debye-Ang)
        XX    -183.4594     XY       3.9008     YY    -160.4739
        XZ       9.7995     YZ      -5.5570     ZZ    -199.0309

 Total job time:  288.43s(wall), 9122.39s(cpu)
        *  Thank you very much for using Q-Chem.  Have a nice day.  *
