 Q-Chem 5.4, Q-Chem, Inc., Pleasanton, CA (2021)
 Q-Chem 5.4.0 for Intel X86 EM64T Linux

User input:
--------------------------------------------------------------
$molecule
0 1
C	0.296276	-8.517702	-0.123330
C	-0.631143	-7.641575	0.421494
S	1.628795	-7.638634	-0.911611
C	-0.305097	-6.264785	0.233291
H	-1.535988	-7.966081	0.950737
C	0.931114	-6.072714	-0.478557
C	1.405737	-4.787049	-0.781346
C	-1.097747	-5.162801	0.664542
C	-0.624993	-3.874817	0.357854
C	0.613970	-3.683952	-0.352278
O	-2.226300	-5.499772	1.348709
O	2.538827	-4.459055	-1.469658
C	3.663102	-5.329063	-1.419319
H	4.516756	-4.755694	-1.828237
H	3.520769	-6.238095	-2.043793
H	3.895546	-5.637262	-0.377021
C	-3.298492	-4.572261	1.463351
H	-4.152945	-5.139743	1.878237
H	-3.585804	-4.153131	0.475176
H	-3.058230	-3.739531	2.159469
C	0.935761	-2.306654	-0.540664
S	-1.330550	-2.306501	0.780808
C	-0.000000	-1.435185	-0.000000
H	1.840780	-1.978138	-1.066946
H	0.296494	-9.614033	-0.127575
C	0.000000	0.000000	0.000000
S	0.157577	0.890937	1.507541
C	0.429889	2.439720	0.718873
C	0.157797	0.890576	-1.067872
C	0.396915	2.260004	-0.686410
S	0.118307	0.650207	-2.805516
C	0.417036	2.376229	-3.054530
C	0.537616	3.074202	-1.862551
F	0.764992	4.391378	-1.819088
C	0.496696	2.817118	-4.456084
O	0.370874	2.057582	-5.406510
O	0.723861	4.148418	-4.569225
C	0.814976	4.635075	-5.916207
H	0.999286	5.720591	-5.833064
H	-0.125909	4.442226	-6.470168
H	1.645504	4.140465	-6.459293
H	0.588993	3.350182	1.306486
$end

$rem
JOBTYPE		SP
EXCHANGE	HF
CORRELATION	pRIMP2
BASIS		cc-pvtz
METHOD		rimp2
AUX_BASIS	rimp2-cc-pvtz
SOLVENT_METHOD	PCM
PURECART	11111
SYMMETRY	false
MEM_TOTAL	110000
SCF_CONVERGENCE = 6
THRESH=10
GUI = 2
$end

$solvent
dielectric 4.90
$end
--------------------------------------------------------------

             Standard Nuclear Orientation (Angstroms)
    I     Atom           X                Y                Z
 ----------------------------------------------------------------
    1      C       0.2962760000    -8.5177020000    -0.1233300000
    2      C      -0.6311430000    -7.6415750000     0.4214940000
    3      S       1.6287950000    -7.6386340000    -0.9116110000
    4      C      -0.3050970000    -6.2647850000     0.2332910000
    5      H      -1.5359880000    -7.9660810000     0.9507370000
    6      C       0.9311140000    -6.0727140000    -0.4785570000
    7      C       1.4057370000    -4.7870490000    -0.7813460000
    8      C      -1.0977470000    -5.1628010000     0.6645420000
    9      C      -0.6249930000    -3.8748170000     0.3578540000
   10      C       0.6139700000    -3.6839520000    -0.3522780000
   11      O      -2.2263000000    -5.4997720000     1.3487090000
   12      O       2.5388270000    -4.4590550000    -1.4696580000
   13      C       3.6631020000    -5.3290630000    -1.4193190000
   14      H       4.5167560000    -4.7556940000    -1.8282370000
   15      H       3.5207690000    -6.2380950000    -2.0437930000
   16      H       3.8955460000    -5.6372620000    -0.3770210000
   17      C      -3.2984920000    -4.5722610000     1.4633510000
   18      H      -4.1529450000    -5.1397430000     1.8782370000
   19      H      -3.5858040000    -4.1531310000     0.4751760000
   20      H      -3.0582300000    -3.7395310000     2.1594690000
   21      C       0.9357610000    -2.3066540000    -0.5406640000
   22      S      -1.3305500000    -2.3065010000     0.7808080000
   23      C       0.0000000000    -1.4351850000     0.0000000000
   24      H       1.8407800000    -1.9781380000    -1.0669460000
   25      H       0.2964940000    -9.6140330000    -0.1275750000
   26      C       0.0000000000     0.0000000000     0.0000000000
   27      S       0.1575770000     0.8909370000     1.5075410000
   28      C       0.4298890000     2.4397200000     0.7188730000
   29      C       0.1577970000     0.8905760000    -1.0678720000
   30      C       0.3969150000     2.2600040000    -0.6864100000
   31      S       0.1183070000     0.6502070000    -2.8055160000
   32      C       0.4170360000     2.3762290000    -3.0545300000
   33      C       0.5376160000     3.0742020000    -1.8625510000
   34      F       0.7649920000     4.3913780000    -1.8190880000
   35      C       0.4966960000     2.8171180000    -4.4560840000
   36      O       0.3708740000     2.0575820000    -5.4065100000
   37      O       0.7238610000     4.1484180000    -4.5692250000
   38      C       0.8149760000     4.6350750000    -5.9162070000
   39      H       0.9992860000     5.7205910000    -5.8330640000
   40      H      -0.1259090000     4.4422260000    -6.4701680000
   41      H       1.6455040000     4.1404650000    -6.4592930000
   42      H       0.5889930000     3.3501820000     1.3064860000
 ----------------------------------------------------------------

   10   -2754.3138385076      7.05e-07  Convergence criterion met
 Total energy in the final basis set =    -2754.3138385076
        RIMP2         total energy =     -2759.3639887993 a.u.

                    Orbital Energies (a.u.)
 --------------------------------------------------------------

 Alpha MOs
 -- Occupied --
-92.0146 -91.9967 -91.9894 -91.9865 -26.3426 -20.6143 -20.5926 -20.5915
-20.5606 -11.4087 -11.3814 -11.3194 -11.3183 -11.3093 -11.3004 -11.2973
-11.2965 -11.2933 -11.2885 -11.2872 -11.2864 -11.2861 -11.2842 -11.2839
-11.2801 -11.2610 -11.2593 -11.2578 -11.2501  -9.0131  -8.9967  -8.9898
 -8.9864  -6.6938  -6.6932  -6.6927  -6.6777  -6.6770  -6.6759  -6.6708
 -6.6701  -6.6691  -6.6674  -6.6668  -6.6659  -1.6597  -1.4667  -1.4167
 -1.4143  -1.3694  -1.2203  -1.1946  -1.1655  -1.1352  -1.0846  -1.0521
 -1.0408  -1.0220  -1.0017  -0.9879  -0.9621  -0.9602  -0.9504  -0.9387
 -0.8959  -0.8668  -0.8514  -0.8079  -0.7965  -0.7877  -0.7867  -0.7647
 -0.7549  -0.7340  -0.7246  -0.7090  -0.7015  -0.6846  -0.6832  -0.6801
 -0.6734  -0.6594  -0.6573  -0.6527  -0.6304  -0.6201  -0.6173  -0.6044
 -0.5971  -0.5840  -0.5776  -0.5706  -0.5663  -0.5615  -0.5535  -0.5503
 -0.5327  -0.5304  -0.5244  -0.5163  -0.5153  -0.5079  -0.5050  -0.4955
 -0.4889  -0.4794  -0.4752  -0.4730  -0.4690  -0.4673  -0.4609  -0.4119
 -0.3958  -0.3867  -0.3578  -0.3495  -0.3198  -0.2938  -0.2567

          Ground-State Mulliken Net Atomic Charges

     Atom                 Charge (a.u.)
  ----------------------------------------
      1 C                    -0.187967
      2 C                    -0.253934
      3 S                    -0.021446
      4 C                    -0.014876
      5 H                     0.196355
      6 C                    -0.028222
      7 C                     0.242098
      8 C                     0.240658
      9 C                    -0.049824
     10 C                    -0.024788
     11 O                    -0.333391
     12 O                    -0.339392
     13 C                    -0.085766
     14 H                     0.122931
     15 H                     0.091168
     16 H                     0.093779
     17 C                    -0.086670
     18 H                     0.124947
     19 H                     0.095192
     20 H                     0.089385
     21 C                    -0.218834
     22 S                    -0.005905
     23 C                    -0.023912
     24 H                     0.201540
     25 H                     0.206508
     26 C                    -0.037708
     27 S                     0.105803
     28 C                    -0.187091
     29 C                    -0.005895
     30 C                    -0.102144
     31 S                     0.011689
     32 C                    -0.153499
     33 C                     0.392517
     34 F                    -0.207313
     35 C                     0.445063
     36 O                    -0.461037
     37 O                    -0.300645
     38 C                    -0.058605
     39 H                     0.121206
     40 H                     0.095108
     41 H                     0.094976
     42 H                     0.217943
  ----------------------------------------
  Sum of atomic charges =     0.000000

                    Cartesian Multipole Moments
 -----------------------------------------------------------------
    Charge (ESU x 10^10)
                -0.0000
    Dipole Moment (Debye)
         X       0.5864      Y       0.8522      Z       3.2489
       Tot       3.4096
    Quadrupole Moments (Debye-Ang)
        XX    -178.4037     XY       1.5831     YY    -159.6703
        XZ      -8.1452     YZ      -8.1852     ZZ    -204.7059

 Total job time:  316.26s(wall), 10292.36s(cpu)
        *  Thank you very much for using Q-Chem.  Have a nice day.  *
