 Q-Chem 5.4, Q-Chem, Inc., Pleasanton, CA (2021)
 Q-Chem 5.4.0 for Intel X86 EM64T Linux

User input:
--------------------------------------------------------------
$molecule
0 1
C	-0.070009	-8.517702	-0.313191
C	0.305494	-7.641575	0.694746
S	-0.614924	-7.638634	-1.762350
C	0.176768	-6.264785	0.340973
H	0.669571	-7.966081	1.677747
C	-0.309600	-6.072714	-1.000069
C	-0.525372	-4.787049	-1.520060
C	0.463825	-5.162801	1.196466
C	0.243888	-3.874817	0.677639
C	-0.240312	-3.683952	-0.665815
O	0.941626	-5.499772	2.426678
O	-1.006468	-4.459055	-2.755460
C	-0.761666	-5.329063	-3.853913
H	-1.016135	-4.755694	-4.765607
H	-1.401368	-6.238095	-3.822182
H	0.305161	-5.637262	-3.901833
C	0.868342	-4.572261	3.502489
H	1.128551	-5.139743	4.416005
H	-0.154712	-4.153131	3.613841
H	1.595605	-3.739531	3.386756
C	-0.369957	-2.306654	-1.015430
S	0.537898	-2.306501	1.445922
C	-0.000000	-1.435185	-0.000000
H	-0.731088	-1.978138	-1.998088
H	-0.074151	-9.614033	-0.314143
C	0.000000	0.000000	0.000000
S	0.783786	0.451972	1.507541
C	2.145261	1.238908	0.718873
C	0.783650	0.451572	-1.067872
C	1.986396	1.148648	-0.686410
S	0.574133	0.327317	-2.805516
C	2.088363	1.207943	-3.054530
C	2.700548	1.564221	-1.862551
F	3.855718	2.236706	-1.819088
C	2.477307	1.430318	-4.456084
O	1.814592	1.038482	-5.406510
O	3.643162	2.112042	-4.569225
C	4.074530	2.355061	-5.916207
H	5.024556	2.911627	-5.833064
H	3.322010	2.951860	-6.470168
H	4.229490	1.400910	-6.459293
H	2.944986	1.702260	1.306486
$end

$rem
JOBTYPE		SP
EXCHANGE	HF
CORRELATION	pRIMP2
BASIS		cc-pvtz
METHOD		rimp2
AUX_BASIS	rimp2-cc-pvtz
SOLVENT_METHOD	PCM
PURECART	11111
SYMMETRY	false
MEM_TOTAL	110000
SCF_CONVERGENCE = 6
THRESH=10
GUI = 2
$end

$solvent
dielectric 4.90
$end
--------------------------------------------------------------

             Standard Nuclear Orientation (Angstroms)
    I     Atom           X                Y                Z
 ----------------------------------------------------------------
    1      C      -0.0700090000    -8.5177020000    -0.3131910000
    2      C       0.3054940000    -7.6415750000     0.6947460000
    3      S      -0.6149240000    -7.6386340000    -1.7623500000
    4      C       0.1767680000    -6.2647850000     0.3409730000
    5      H       0.6695710000    -7.9660810000     1.6777470000
    6      C      -0.3096000000    -6.0727140000    -1.0000690000
    7      C      -0.5253720000    -4.7870490000    -1.5200600000
    8      C       0.4638250000    -5.1628010000     1.1964660000
    9      C       0.2438880000    -3.8748170000     0.6776390000
   10      C      -0.2403120000    -3.6839520000    -0.6658150000
   11      O       0.9416260000    -5.4997720000     2.4266780000
   12      O      -1.0064680000    -4.4590550000    -2.7554600000
   13      C      -0.7616660000    -5.3290630000    -3.8539130000
   14      H      -1.0161350000    -4.7556940000    -4.7656070000
   15      H      -1.4013680000    -6.2380950000    -3.8221820000
   16      H       0.3051610000    -5.6372620000    -3.9018330000
   17      C       0.8683420000    -4.5722610000     3.5024890000
   18      H       1.1285510000    -5.1397430000     4.4160050000
   19      H      -0.1547120000    -4.1531310000     3.6138410000
   20      H       1.5956050000    -3.7395310000     3.3867560000
   21      C      -0.3699570000    -2.3066540000    -1.0154300000
   22      S       0.5378980000    -2.3065010000     1.4459220000
   23      C       0.0000000000    -1.4351850000     0.0000000000
   24      H      -0.7310880000    -1.9781380000    -1.9980880000
   25      H      -0.0741510000    -9.6140330000    -0.3141430000
   26      C       0.0000000000     0.0000000000     0.0000000000
   27      S       0.7837860000     0.4519720000     1.5075410000
   28      C       2.1452610000     1.2389080000     0.7188730000
   29      C       0.7836500000     0.4515720000    -1.0678720000
   30      C       1.9863960000     1.1486480000    -0.6864100000
   31      S       0.5741330000     0.3273170000    -2.8055160000
   32      C       2.0883630000     1.2079430000    -3.0545300000
   33      C       2.7005480000     1.5642210000    -1.8625510000
   34      F       3.8557180000     2.2367060000    -1.8190880000
   35      C       2.4773070000     1.4303180000    -4.4560840000
   36      O       1.8145920000     1.0384820000    -5.4065100000
   37      O       3.6431620000     2.1120420000    -4.5692250000
   38      C       4.0745300000     2.3550610000    -5.9162070000
   39      H       5.0245560000     2.9116270000    -5.8330640000
   40      H       3.3220100000     2.9518600000    -6.4701680000
   41      H       4.2294900000     1.4009100000    -6.4592930000
   42      H       2.9449860000     1.7022600000     1.3064860000
 ----------------------------------------------------------------

   10   -2754.2429405683      8.30e-07  Convergence criterion met
 Total energy in the final basis set =    -2754.2429405683
        RIMP2         total energy =     -2759.3100477850 a.u.

                    Orbital Energies (a.u.)
 --------------------------------------------------------------

 Alpha MOs
 -- Occupied --
-92.0156 -92.0131 -91.9862 -91.9812 -26.3480 -20.6165 -20.5904 -20.5843
-20.5631 -11.4119 -11.3894 -11.3395 -11.3270 -11.3157 -11.3055 -11.3005
-11.2976 -11.2920 -11.2899 -11.2863 -11.2821 -11.2793 -11.2755 -11.2730
-11.2721 -11.2558 -11.2487 -11.2462 -11.2297  -9.0157  -9.0126  -8.9869
 -8.9812  -6.6963  -6.6954  -6.6952  -6.6935  -6.6927  -6.6918  -6.6678
 -6.6670  -6.6660  -6.6622  -6.6616  -6.6608  -1.6649  -1.4691  -1.4142
 -1.4073  -1.3719  -1.2382  -1.1887  -1.1658  -1.1406  -1.0856  -1.0479
 -1.0453  -1.0298  -0.9961  -0.9877  -0.9678  -0.9571  -0.9474  -0.9383
 -0.8928  -0.8738  -0.8446  -0.8134  -0.7991  -0.7856  -0.7811  -0.7608
 -0.7566  -0.7296  -0.7291  -0.7155  -0.6986  -0.6875  -0.6842  -0.6779
 -0.6756  -0.6614  -0.6563  -0.6483  -0.6290  -0.6159  -0.6148  -0.6052
 -0.6026  -0.5890  -0.5804  -0.5701  -0.5624  -0.5619  -0.5531  -0.5391
 -0.5346  -0.5309  -0.5237  -0.5173  -0.5126  -0.5098  -0.5019  -0.4939
 -0.4886  -0.4812  -0.4773  -0.4744  -0.4666  -0.4571  -0.4548  -0.4255
 -0.3922  -0.3782  -0.3618  -0.3424  -0.3289  -0.2925  -0.2434

          Ground-State Mulliken Net Atomic Charges

     Atom                 Charge (a.u.)
  ----------------------------------------
      1 C                    -0.204503
      2 C                    -0.252499
      3 S                    -0.030850
      4 C                    -0.030824
      5 H                     0.194221
      6 C                    -0.022416
      7 C                     0.222483
      8 C                     0.245810
      9 C                    -0.057773
     10 C                    -0.000999
     11 O                    -0.333265
     12 O                    -0.343152
     13 C                    -0.085670
     14 H                     0.121248
     15 H                     0.089774
     16 H                     0.091474
     17 C                    -0.087970
     18 H                     0.125283
     19 H                     0.094195
     20 H                     0.088347
     21 C                    -0.307360
     22 S                    -0.035205
     23 C                     0.023740
     24 H                     0.184581
     25 H                     0.203515
     26 C                    -0.129180
     27 S                     0.102066
     28 C                    -0.112955
     29 C                     0.103754
     30 C                    -0.127654
     31 S                     0.065636
     32 C                    -0.158400
     33 C                     0.401377
     34 F                    -0.202860
     35 C                     0.449756
     36 O                    -0.461281
     37 O                    -0.301271
     38 C                    -0.058055
     39 H                     0.121773
     40 H                     0.095432
     41 H                     0.095568
     42 H                     0.224110
  ----------------------------------------
  Sum of atomic charges =     0.000000

                    Cartesian Multipole Moments
 -----------------------------------------------------------------
    Charge (ESU x 10^10)
                -0.0000
    Dipole Moment (Debye)
         X       4.5208      Y       3.1740      Z       3.0041
       Tot       6.2878
    Quadrupole Moments (Debye-Ang)
        XX    -187.5316     XY       6.3644     YY    -187.5904
        XZ      -3.8687     YZ      -5.4344     ZZ    -179.6567

 Total job time:  352.61s(wall), 11031.96s(cpu)
        *  Thank you very much for using Q-Chem.  Have a nice day.  *
