 Q-Chem 5.4, Q-Chem, Inc., Pleasanton, CA (2021)
 Q-Chem 5.4.0 for Intel X86 EM64T Linux

User input:
--------------------------------------------------------------
$molecule
0 1
C	-0.284919	-8.517702	-0.147685
C	0.728574	-7.641575	0.212552
S	-1.745304	-7.638634	-0.661757
C	0.374824	-6.264785	0.083761
H	1.715621	-7.966081	0.565513
C	-0.965104	-6.072714	-0.405665
C	-1.502136	-4.787049	-0.574617
C	1.214687	-5.162801	0.413763
C	0.675870	-3.874817	0.248748
C	-0.664513	-3.683952	-0.243888
O	2.464209	-5.499772	0.838511
O	-2.757750	-4.459055	-1.000176
C	-3.441858	-5.329063	-1.893778
H	-4.303826	-4.755694	-2.284868
H	-3.828743	-6.238095	-1.383341
H	-2.792824	-5.637262	-2.741817
C	3.241222	-4.572261	1.586168
H	4.108274	-5.139743	1.974033
H	2.668916	-4.153131	2.441448
H	3.620041	-3.739531	0.954660
C	-1.015668	-2.306654	-0.369302
S	1.453394	-2.306501	0.517367
C	0.000000	-1.435185	0.000000
H	-2.000559	-1.978138	-0.724300
H	-0.288311	-9.614033	-0.145124
C	0.000000	0.000000	0.000000
S	0.000474	0.904764	1.507541
C	-0.000295	2.477305	0.718873
C	0.000752	0.904447	-1.067872
C	-0.001560	2.294593	-0.686410
S	0.003602	0.660872	-2.805516
C	-0.001928	2.412546	-3.054530
C	-0.004381	3.120854	-1.862551
F	-0.009185	4.457503	-1.819088
C	-0.000038	2.860570	-4.456084
O	0.007944	2.090724	-5.406510
O	-0.007501	4.211092	-4.569225
C	-0.002278	4.706177	-5.916207
H	-0.009265	5.807207	-5.833064
H	-0.895381	4.352875	-6.470168
H	0.901521	4.363301	-6.459293
H	-0.001708	3.401562	1.306486
$end

$rem
JOBTYPE		SP
EXCHANGE	HF
CORRELATION	pRIMP2
BASIS		cc-pvtz
METHOD		rimp2
AUX_BASIS	rimp2-cc-pvtz
SOLVENT_METHOD	PCM
PURECART	11111
SYMMETRY	false
MEM_TOTAL	110000
SCF_CONVERGENCE = 6
THRESH=10
GUI = 2
$end

$solvent
dielectric 4.90
$end
--------------------------------------------------------------

             Standard Nuclear Orientation (Angstroms)
    I     Atom           X                Y                Z
 ----------------------------------------------------------------
    1      C      -0.2849190000    -8.5177020000    -0.1476850000
    2      C       0.7285740000    -7.6415750000     0.2125520000
    3      S      -1.7453040000    -7.6386340000    -0.6617570000
    4      C       0.3748240000    -6.2647850000     0.0837610000
    5      H       1.7156210000    -7.9660810000     0.5655130000
    6      C      -0.9651040000    -6.0727140000    -0.4056650000
    7      C      -1.5021360000    -4.7870490000    -0.5746170000
    8      C       1.2146870000    -5.1628010000     0.4137630000
    9      C       0.6758700000    -3.8748170000     0.2487480000
   10      C      -0.6645130000    -3.6839520000    -0.2438880000
   11      O       2.4642090000    -5.4997720000     0.8385110000
   12      O      -2.7577500000    -4.4590550000    -1.0001760000
   13      C      -3.4418580000    -5.3290630000    -1.8937780000
   14      H      -4.3038260000    -4.7556940000    -2.2848680000
   15      H      -3.8287430000    -6.2380950000    -1.3833410000
   16      H      -2.7928240000    -5.6372620000    -2.7418170000
   17      C       3.2412220000    -4.5722610000     1.5861680000
   18      H       4.1082740000    -5.1397430000     1.9740330000
   19      H       2.6689160000    -4.1531310000     2.4414480000
   20      H       3.6200410000    -3.7395310000     0.9546600000
   21      C      -1.0156680000    -2.3066540000    -0.3693020000
   22      S       1.4533940000    -2.3065010000     0.5173670000
   23      C       0.0000000000    -1.4351850000     0.0000000000
   24      H      -2.0005590000    -1.9781380000    -0.7243000000
   25      H      -0.2883110000    -9.6140330000    -0.1451240000
   26      C       0.0000000000     0.0000000000     0.0000000000
   27      S       0.0004740000     0.9047640000     1.5075410000
   28      C      -0.0002950000     2.4773050000     0.7188730000
   29      C       0.0007520000     0.9044470000    -1.0678720000
   30      C      -0.0015600000     2.2945930000    -0.6864100000
   31      S       0.0036020000     0.6608720000    -2.8055160000
   32      C      -0.0019280000     2.4125460000    -3.0545300000
   33      C      -0.0043810000     3.1208540000    -1.8625510000
   34      F      -0.0091850000     4.4575030000    -1.8190880000
   35      C      -0.0000380000     2.8605700000    -4.4560840000
   36      O       0.0079440000     2.0907240000    -5.4065100000
   37      O      -0.0075010000     4.2110920000    -4.5692250000
   38      C      -0.0022780000     4.7061770000    -5.9162070000
   39      H      -0.0092650000     5.8072070000    -5.8330640000
   40      H      -0.8953810000     4.3528750000    -6.4701680000
   41      H       0.9015210000     4.3633010000    -6.4592930000
   42      H      -0.0017080000     3.4015620000     1.3064860000
 ----------------------------------------------------------------

   10   -2754.3147470110      6.93e-07  Convergence criterion met
 Total energy in the final basis set =    -2754.3147470110
        RIMP2         total energy =     -2759.3640480617 a.u.

                    Orbital Energies (a.u.)
 --------------------------------------------------------------

 Alpha MOs
 -- Occupied --
-92.0144 -91.9963 -91.9895 -91.9866 -26.3424 -20.6142 -20.5926 -20.5917
-20.5605 -11.4086 -11.3812 -11.3194 -11.3187 -11.3086 -11.3000 -11.2974
-11.2963 -11.2923 -11.2885 -11.2873 -11.2866 -11.2861 -11.2842 -11.2834
-11.2803 -11.2608 -11.2596 -11.2584 -11.2502  -9.0129  -8.9963  -8.9899
 -8.9865  -6.6936  -6.6930  -6.6925  -6.6774  -6.6766  -6.6755  -6.6708
 -6.6701  -6.6692  -6.6675  -6.6669  -6.6660  -1.6596  -1.4667  -1.4167
 -1.4145  -1.3693  -1.2197  -1.1946  -1.1655  -1.1349  -1.0845  -1.0522
 -1.0405  -1.0216  -1.0018  -0.9878  -0.9615  -0.9606  -0.9505  -0.9385
 -0.8960  -0.8666  -0.8516  -0.8082  -0.7953  -0.7881  -0.7866  -0.7649
 -0.7548  -0.7341  -0.7244  -0.7088  -0.7013  -0.6845  -0.6833  -0.6799
 -0.6733  -0.6593  -0.6571  -0.6528  -0.6306  -0.6202  -0.6174  -0.6048
 -0.5969  -0.5852  -0.5774  -0.5695  -0.5668  -0.5593  -0.5551  -0.5506
 -0.5331  -0.5304  -0.5234  -0.5161  -0.5157  -0.5092  -0.5038  -0.4943
 -0.4894  -0.4788  -0.4753  -0.4730  -0.4699  -0.4671  -0.4615  -0.4080
 -0.3964  -0.3873  -0.3575  -0.3491  -0.3168  -0.2964  -0.2582

          Ground-State Mulliken Net Atomic Charges

     Atom                 Charge (a.u.)
  ----------------------------------------
      1 C                    -0.187367
      2 C                    -0.254399
      3 S                    -0.021421
      4 C                    -0.013712
      5 H                     0.196410
      6 C                    -0.027482
      7 C                     0.244541
      8 C                     0.239340
      9 C                    -0.048303
     10 C                    -0.029308
     11 O                    -0.333217
     12 O                    -0.339885
     13 C                    -0.085883
     14 H                     0.122949
     15 H                     0.090885
     16 H                     0.094540
     17 C                    -0.086578
     18 H                     0.124821
     19 H                     0.094198
     20 H                     0.090233
     21 C                    -0.217093
     22 S                    -0.000963
     23 C                    -0.049595
     24 H                     0.199127
     25 H                     0.206580
     26 C                    -0.028478
     27 S                     0.105959
     28 C                    -0.186033
     29 C                     0.018292
     30 C                    -0.108941
     31 S                     0.006265
     32 C                    -0.153286
     33 C                     0.391914
     34 F                    -0.207279
     35 C                     0.444893
     36 O                    -0.461292
     37 O                    -0.300579
     38 C                    -0.058653
     39 H                     0.121223
     40 H                     0.094963
     41 H                     0.095010
     42 H                     0.217606
  ----------------------------------------
  Sum of atomic charges =     0.000000

                    Cartesian Multipole Moments
 -----------------------------------------------------------------
    Charge (ESU x 10^10)
                -0.0000
    Dipole Moment (Debye)
         X       0.0899      Y       0.7861      Z       2.8320
       Tot       2.9404
    Quadrupole Moments (Debye-Ang)
        XX    -184.4832     XY       0.0429     YY    -158.9167
        XZ      11.7216     YZ      -5.7568     ZZ    -199.2026

 Total job time:  297.21s(wall), 9375.98s(cpu)
        *  Thank you very much for using Q-Chem.  Have a nice day.  *
