 Q-Chem 5.4, Q-Chem, Inc., Pleasanton, CA (2021)
 Q-Chem 5.4.0 for Intel X86 EM64T Linux

User input:
--------------------------------------------------------------
$molecule
0 1
C	-0.147685	-8.517702	0.284919
C	0.212552	-7.641575	-0.728574
S	-0.661757	-7.638634	1.745304
C	0.083761	-6.264785	-0.374824
H	0.565513	-7.966081	-1.715621
C	-0.405665	-6.072714	0.965104
C	-0.574617	-4.787049	1.502136
C	0.413763	-5.162801	-1.214687
C	0.248748	-3.874817	-0.675870
C	-0.243888	-3.683952	0.664513
O	0.838511	-5.499772	-2.464209
O	-1.000176	-4.459055	2.757750
C	-1.893778	-5.329063	3.441858
H	-2.284868	-4.755694	4.303826
H	-1.383341	-6.238095	3.828743
H	-2.741817	-5.637262	2.792824
C	1.586168	-4.572261	-3.241222
H	1.974033	-5.139743	-4.108274
H	2.441448	-4.153131	-2.668916
H	0.954660	-3.739531	-3.620041
C	-0.369302	-2.306654	1.015668
S	0.517367	-2.306501	-1.453394
C	-0.000000	-1.435185	-0.000000
H	-0.724300	-1.978138	2.000559
H	-0.145124	-9.614033	0.288311
C	0.000000	0.000000	0.000000
S	0.382799	0.819795	1.507541
C	1.046687	2.245325	0.718873
C	0.382918	0.819389	-1.067872
C	0.968323	2.080267	-0.686410
S	0.282561	0.597432	-2.805516
C	1.017839	2.187324	-3.054530
C	1.314960	2.830306	-1.862551
F	1.875498	4.043751	-1.819088
C	1.208895	2.592573	-4.456084
O	0.890778	1.891482	-5.406510
O	1.772886	3.819715	-4.569225
C	1.986852	4.266207	-5.916207
H	2.445834	5.267032	-5.833064
H	1.028114	4.323448	-6.470168
H	2.661066	3.573494	-6.459293
H	1.436015	3.083584	1.306486
$end

$rem
JOBTYPE		SP
EXCHANGE	HF
CORRELATION	pRIMP2
BASIS		cc-pvtz
METHOD		rimp2
AUX_BASIS	rimp2-cc-pvtz
SOLVENT_METHOD	PCM
PURECART	11111
SYMMETRY	false
MEM_TOTAL	110000
SCF_CONVERGENCE = 6
THRESH=10
GUI = 2
$end

$solvent
dielectric 4.90
$end
--------------------------------------------------------------

             Standard Nuclear Orientation (Angstroms)
    I     Atom           X                Y                Z
 ----------------------------------------------------------------
    1      C      -0.1476850000    -8.5177020000     0.2849190000
    2      C       0.2125520000    -7.6415750000    -0.7285740000
    3      S      -0.6617570000    -7.6386340000     1.7453040000
    4      C       0.0837610000    -6.2647850000    -0.3748240000
    5      H       0.5655130000    -7.9660810000    -1.7156210000
    6      C      -0.4056650000    -6.0727140000     0.9651040000
    7      C      -0.5746170000    -4.7870490000     1.5021360000
    8      C       0.4137630000    -5.1628010000    -1.2146870000
    9      C       0.2487480000    -3.8748170000    -0.6758700000
   10      C      -0.2438880000    -3.6839520000     0.6645130000
   11      O       0.8385110000    -5.4997720000    -2.4642090000
   12      O      -1.0001760000    -4.4590550000     2.7577500000
   13      C      -1.8937780000    -5.3290630000     3.4418580000
   14      H      -2.2848680000    -4.7556940000     4.3038260000
   15      H      -1.3833410000    -6.2380950000     3.8287430000
   16      H      -2.7418170000    -5.6372620000     2.7928240000
   17      C       1.5861680000    -4.5722610000    -3.2412220000
   18      H       1.9740330000    -5.1397430000    -4.1082740000
   19      H       2.4414480000    -4.1531310000    -2.6689160000
   20      H       0.9546600000    -3.7395310000    -3.6200410000
   21      C      -0.3693020000    -2.3066540000     1.0156680000
   22      S       0.5173670000    -2.3065010000    -1.4533940000
   23      C       0.0000000000    -1.4351850000     0.0000000000
   24      H      -0.7243000000    -1.9781380000     2.0005590000
   25      H      -0.1451240000    -9.6140330000     0.2883110000
   26      C       0.0000000000     0.0000000000     0.0000000000
   27      S       0.3827990000     0.8197950000     1.5075410000
   28      C       1.0466870000     2.2453250000     0.7188730000
   29      C       0.3829180000     0.8193890000    -1.0678720000
   30      C       0.9683230000     2.0802670000    -0.6864100000
   31      S       0.2825610000     0.5974320000    -2.8055160000
   32      C       1.0178390000     2.1873240000    -3.0545300000
   33      C       1.3149600000     2.8303060000    -1.8625510000
   34      F       1.8754980000     4.0437510000    -1.8190880000
   35      C       1.2088950000     2.5925730000    -4.4560840000
   36      O       0.8907780000     1.8914820000    -5.4065100000
   37      O       1.7728860000     3.8197150000    -4.5692250000
   38      C       1.9868520000     4.2662070000    -5.9162070000
   39      H       2.4458340000     5.2670320000    -5.8330640000
   40      H       1.0281140000     4.3234480000    -6.4701680000
   41      H       2.6610660000     3.5734940000    -6.4592930000
   42      H       1.4360150000     3.0835840000     1.3064860000
 ----------------------------------------------------------------

   10   -2754.3037672701      7.46e-07  Convergence criterion met
 Total energy in the final basis set =    -2754.3037672701
        RIMP2         total energy =     -2759.3600082272 a.u.

                    Orbital Energies (a.u.)
 --------------------------------------------------------------

 Alpha MOs
 -- Occupied --
-92.0150 -92.0004 -91.9891 -91.9854 -26.3440 -20.6150 -20.5919 -20.5903
-20.5615 -11.4097 -11.3834 -11.3191 -11.3152 -11.3151 -11.3042 -11.2977
-11.2972 -11.2963 -11.2890 -11.2863 -11.2863 -11.2856 -11.2840 -11.2834
-11.2780 -11.2609 -11.2567 -11.2509 -11.2493  -9.0137  -9.0006  -8.9897
 -8.9854  -6.6945  -6.6939  -6.6933  -6.6815  -6.6808  -6.6797  -6.6707
 -6.6700  -6.6690  -6.6664  -6.6657  -6.6649  -1.6610  -1.4675  -1.4159
 -1.4131  -1.3702  -1.2244  -1.1935  -1.1651  -1.1372  -1.0856  -1.0511
 -1.0422  -1.0249  -1.0011  -0.9876  -0.9645  -0.9579  -0.9494  -0.9411
 -0.8951  -0.8689  -0.8501  -0.8156  -0.7924  -0.7871  -0.7846  -0.7646
 -0.7555  -0.7331  -0.7258  -0.7106  -0.6986  -0.6859  -0.6830  -0.6818
 -0.6741  -0.6589  -0.6581  -0.6519  -0.6304  -0.6191  -0.6163  -0.6042
 -0.5983  -0.5829  -0.5793  -0.5689  -0.5670  -0.5589  -0.5577  -0.5524
 -0.5326  -0.5294  -0.5241  -0.5186  -0.5167  -0.5112  -0.5061  -0.4952
 -0.4868  -0.4799  -0.4766  -0.4747  -0.4702  -0.4629  -0.4585  -0.4244
 -0.3938  -0.3844  -0.3589  -0.3521  -0.3252  -0.2899  -0.2484

          Ground-State Mulliken Net Atomic Charges

     Atom                 Charge (a.u.)
  ----------------------------------------
      1 C                    -0.192545
      2 C                    -0.253550
      3 S                    -0.024240
      4 C                    -0.020145
      5 H                     0.196091
      6 C                    -0.026363
      7 C                     0.234198
      8 C                     0.244713
      9 C                    -0.043975
     10 C                    -0.008031
     11 O                    -0.332910
     12 O                    -0.340970
     13 C                    -0.085603
     14 H                     0.121869
     15 H                     0.090775
     16 H                     0.093795
     17 C                    -0.089762
     18 H                     0.125933
     19 H                     0.094691
     20 H                     0.091227
     21 C                    -0.275743
     22 S                    -0.031930
     23 C                     0.020062
     24 H                     0.188440
     25 H                     0.205835
     26 C                     0.029208
     27 S                     0.108938
     28 C                    -0.187070
     29 C                    -0.052176
     30 C                    -0.096472
     31 S                     0.023017
     32 C                    -0.165163
     33 C                     0.410383
     34 F                    -0.206424
     35 C                     0.443874
     36 O                    -0.461072
     37 O                    -0.300900
     38 C                    -0.058457
     39 H                     0.121495
     40 H                     0.095262
     41 H                     0.095061
     42 H                     0.218635
  ----------------------------------------
  Sum of atomic charges =     0.000000

                    Cartesian Multipole Moments
 -----------------------------------------------------------------
    Charge (ESU x 10^10)
                 0.0000
    Dipole Moment (Debye)
         X       1.2255      Y       1.5831      Z       2.5220
       Tot       3.2200
    Quadrupole Moments (Debye-Ang)
        XX    -191.6108     XY       7.4099     YY    -165.4213
        XZ     -14.6705     YZ      -5.6982     ZZ    -188.3953

 Total job time:  308.07s(wall), 9945.54s(cpu)
        *  Thank you very much for using Q-Chem.  Have a nice day.  *
