 Q-Chem 5.4, Q-Chem, Inc., Pleasanton, CA (2021)
 Q-Chem 5.4.0 for Intel X86 EM64T Linux

User input:
--------------------------------------------------------------
$molecule
0 1
C	0.147685	-8.517702	-0.284919
C	-0.212552	-7.641575	0.728574
S	0.661757	-7.638634	-1.745304
C	-0.083761	-6.264785	0.374824
H	-0.565513	-7.966081	1.715621
C	0.405665	-6.072714	-0.965104
C	0.574617	-4.787049	-1.502136
C	-0.413763	-5.162801	1.214687
C	-0.248748	-3.874817	0.675870
C	0.243888	-3.683952	-0.664513
O	-0.838511	-5.499772	2.464209
O	1.000176	-4.459055	-2.757750
C	1.893778	-5.329063	-3.441858
H	2.284868	-4.755694	-4.303826
H	1.383341	-6.238095	-3.828743
H	2.741817	-5.637262	-2.792824
C	-1.586168	-4.572261	3.241222
H	-1.974033	-5.139743	4.108274
H	-2.441448	-4.153131	2.668916
H	-0.954660	-3.739531	3.620041
C	0.369302	-2.306654	-1.015668
S	-0.517367	-2.306501	1.453394
C	0.000000	-1.435185	0.000000
H	0.724300	-1.978138	-2.000559
H	0.145124	-9.614033	-0.288311
C	0.000000	0.000000	0.000000
S	0.234628	0.873813	1.507541
C	0.640889	2.392969	0.718873
C	0.234815	0.873434	-1.067872
C	0.592377	2.216811	-0.686410
S	0.174526	0.637422	-2.805516
C	0.622551	2.330840	-3.054530
C	0.803505	3.015647	-1.862551
F	1.144815	4.307994	-1.819088
C	0.740334	2.763108	-4.456084
O	0.548793	2.017428	-5.406510
O	1.082665	4.069544	-4.569225
C	1.215848	4.546407	-5.916207
H	1.494066	5.611729	-5.833064
H	0.261736	4.436296	-6.470168
H	2.000108	3.981294	-6.459293
H	0.878739	3.286099	1.306486
$end

$rem
JOBTYPE		SP
EXCHANGE	HF
CORRELATION	pRIMP2
BASIS		cc-pvtz
METHOD		rimp2
AUX_BASIS	rimp2-cc-pvtz
SOLVENT_METHOD	PCM
PURECART	11111
SYMMETRY	false
MEM_TOTAL	110000
SCF_CONVERGENCE = 6
THRESH=10
GUI = 2
$end

$solvent
dielectric 4.90
$end
--------------------------------------------------------------

             Standard Nuclear Orientation (Angstroms)
    I     Atom           X                Y                Z
 ----------------------------------------------------------------
    1      C       0.1476850000    -8.5177020000    -0.2849190000
    2      C      -0.2125520000    -7.6415750000     0.7285740000
    3      S       0.6617570000    -7.6386340000    -1.7453040000
    4      C      -0.0837610000    -6.2647850000     0.3748240000
    5      H      -0.5655130000    -7.9660810000     1.7156210000
    6      C       0.4056650000    -6.0727140000    -0.9651040000
    7      C       0.5746170000    -4.7870490000    -1.5021360000
    8      C      -0.4137630000    -5.1628010000     1.2146870000
    9      C      -0.2487480000    -3.8748170000     0.6758700000
   10      C       0.2438880000    -3.6839520000    -0.6645130000
   11      O      -0.8385110000    -5.4997720000     2.4642090000
   12      O       1.0001760000    -4.4590550000    -2.7577500000
   13      C       1.8937780000    -5.3290630000    -3.4418580000
   14      H       2.2848680000    -4.7556940000    -4.3038260000
   15      H       1.3833410000    -6.2380950000    -3.8287430000
   16      H       2.7418170000    -5.6372620000    -2.7928240000
   17      C      -1.5861680000    -4.5722610000     3.2412220000
   18      H      -1.9740330000    -5.1397430000     4.1082740000
   19      H      -2.4414480000    -4.1531310000     2.6689160000
   20      H      -0.9546600000    -3.7395310000     3.6200410000
   21      C       0.3693020000    -2.3066540000    -1.0156680000
   22      S      -0.5173670000    -2.3065010000     1.4533940000
   23      C       0.0000000000    -1.4351850000     0.0000000000
   24      H       0.7243000000    -1.9781380000    -2.0005590000
   25      H       0.1451240000    -9.6140330000    -0.2883110000
   26      C       0.0000000000     0.0000000000     0.0000000000
   27      S       0.2346280000     0.8738130000     1.5075410000
   28      C       0.6408890000     2.3929690000     0.7188730000
   29      C       0.2348150000     0.8734340000    -1.0678720000
   30      C       0.5923770000     2.2168110000    -0.6864100000
   31      S       0.1745260000     0.6374220000    -2.8055160000
   32      C       0.6225510000     2.3308400000    -3.0545300000
   33      C       0.8035050000     3.0156470000    -1.8625510000
   34      F       1.1448150000     4.3079940000    -1.8190880000
   35      C       0.7403340000     2.7631080000    -4.4560840000
   36      O       0.5487930000     2.0174280000    -5.4065100000
   37      O       1.0826650000     4.0695440000    -4.5692250000
   38      C       1.2158480000     4.5464070000    -5.9162070000
   39      H       1.4940660000     5.6117290000    -5.8330640000
   40      H       0.2617360000     4.4362960000    -6.4701680000
   41      H       2.0001080000     3.9812940000    -6.4592930000
   42      H       0.8787390000     3.2860990000     1.3064860000
 ----------------------------------------------------------------

   10   -2754.3127251923      7.48e-07  Convergence criterion met
 Total energy in the final basis set =    -2754.3127251923
        RIMP2         total energy =     -2759.3660364517 a.u.

                    Orbital Energies (a.u.)
 --------------------------------------------------------------

 Alpha MOs
 -- Occupied --
-92.0161 -91.9998 -91.9905 -91.9863 -26.3436 -20.6149 -20.5929 -20.5908
-20.5614 -11.4096 -11.3829 -11.3199 -11.3173 -11.3114 -11.3012 -11.2998
-11.2978 -11.2972 -11.2888 -11.2876 -11.2867 -11.2860 -11.2854 -11.2842
-11.2794 -11.2620 -11.2585 -11.2552 -11.2499  -9.0148  -8.9997  -8.9912
 -8.9862  -6.6956  -6.6950  -6.6945  -6.6807  -6.6800  -6.6789  -6.6722
 -6.6715  -6.6706  -6.6672  -6.6665  -6.6657  -1.6607  -1.4674  -1.4169
 -1.4136  -1.3701  -1.2226  -1.1949  -1.1662  -1.1370  -1.0857  -1.0522
 -1.0423  -1.0239  -1.0018  -0.9886  -0.9641  -0.9599  -0.9505  -0.9396
 -0.8965  -0.8683  -0.8520  -0.8085  -0.7991  -0.7882  -0.7862  -0.7643
 -0.7555  -0.7344  -0.7255  -0.7102  -0.7020  -0.6858  -0.6835  -0.6810
 -0.6739  -0.6594  -0.6588  -0.6524  -0.6308  -0.6198  -0.6170  -0.6029
 -0.5985  -0.5831  -0.5798  -0.5712  -0.5649  -0.5618  -0.5555  -0.5496
 -0.5353  -0.5304  -0.5245  -0.5185  -0.5164  -0.5099  -0.5062  -0.4961
 -0.4877  -0.4813  -0.4771  -0.4740  -0.4694  -0.4660  -0.4599  -0.4255
 -0.3961  -0.3846  -0.3608  -0.3492  -0.3272  -0.2894  -0.2507

          Ground-State Mulliken Net Atomic Charges

     Atom                 Charge (a.u.)
  ----------------------------------------
      1 C                    -0.189893
      2 C                    -0.253993
      3 S                    -0.021548
      4 C                    -0.017890
      5 H                     0.196114
      6 C                    -0.027666
      7 C                     0.242376
      8 C                     0.243850
      9 C                    -0.041747
     10 C                    -0.024803
     11 O                    -0.333126
     12 O                    -0.339816
     13 C                    -0.086240
     14 H                     0.123338
     15 H                     0.091317
     16 H                     0.093717
     17 C                    -0.088191
     18 H                     0.125990
     19 H                     0.095265
     20 H                     0.089307
     21 C                    -0.227147
     22 S                    -0.035331
     23 C                    -0.001579
     24 H                     0.191926
     25 H                     0.206297
     26 C                     0.011756
     27 S                     0.097031
     28 C                    -0.199031
     29 C                    -0.026615
     30 C                    -0.102545
     31 S                     0.015863
     32 C                    -0.162143
     33 C                     0.407559
     34 F                    -0.206588
     35 C                     0.442851
     36 O                    -0.460813
     37 O                    -0.300737
     38 C                    -0.058462
     39 H                     0.121463
     40 H                     0.095238
     41 H                     0.095106
     42 H                     0.219542
  ----------------------------------------
  Sum of atomic charges =     0.000000

                    Cartesian Multipole Moments
 -----------------------------------------------------------------
    Charge (ESU x 10^10)
                 0.0000
    Dipole Moment (Debye)
         X       0.9409      Y       1.1713      Z       3.1462
       Tot       3.4865
    Quadrupole Moments (Debye-Ang)
        XX    -193.4685     XY       2.7056     YY    -160.7274
        XZ     -13.5273     YZ      -7.6179     ZZ    -188.6126

 Total job time:  305.03s(wall), 9245.24s(cpu)
        *  Thank you very much for using Q-Chem.  Have a nice day.  *
