 Q-Chem 5.4, Q-Chem, Inc., Pleasanton, CA (2021)
 Q-Chem 5.4.0 for Intel X86 EM64T Linux

User input:
--------------------------------------------------------------
$molecule
0 1
C	0.123330	-8.517702	0.296276
C	-0.421494	-7.641575	-0.631143
S	0.911611	-7.638634	1.628795
C	-0.233291	-6.264785	-0.305097
H	-0.950737	-7.966081	-1.535988
C	0.478557	-6.072714	0.931114
C	0.781346	-4.787049	1.405737
C	-0.664542	-5.162801	-1.097747
C	-0.357854	-3.874817	-0.624993
C	0.352278	-3.683952	0.613970
O	-1.348709	-5.499772	-2.226300
O	1.469658	-4.459055	2.538827
C	1.419319	-5.329063	3.663102
H	1.828237	-4.755694	4.516756
H	2.043793	-6.238095	3.520769
H	0.377021	-5.637262	3.895546
C	-1.463351	-4.572261	-3.298492
H	-1.878237	-5.139743	-4.152945
H	-0.475176	-4.153131	-3.585804
H	-2.159469	-3.739531	-3.058230
C	0.540664	-2.306654	0.935761
S	-0.780808	-2.306501	-1.330550
C	-0.000000	-1.435185	-0.000000
H	1.066946	-1.978138	1.840780
H	0.127575	-9.614033	0.296494
C	0.000000	0.000000	0.000000
S	0.079327	0.901280	1.507541
C	0.215617	2.467903	0.718873
C	0.079577	0.900940	-1.067872
C	0.198433	2.285998	-0.686410
S	0.061187	0.658044	-2.805516
C	0.208347	2.403534	-3.054530
C	0.267636	3.109360	-1.862551
F	0.379347	4.441341	-1.819088
C	0.249278	2.849688	-4.456084
O	0.190132	2.082076	-5.406510
O	0.359548	4.195721	-4.569225
C	0.407901	4.688467	-5.916207
H	0.496901	5.785916	-5.833064
H	-0.512596	4.414348	-6.470168
H	1.278377	4.268124	-6.459293
H	0.294764	3.388767	1.306486
$end

$rem
JOBTYPE		SP
EXCHANGE	HF
CORRELATION	pRIMP2
BASIS		cc-pvtz
METHOD		rimp2
AUX_BASIS	rimp2-cc-pvtz
SOLVENT_METHOD	PCM
PURECART	11111
SYMMETRY	false
MEM_TOTAL	110000
SCF_CONVERGENCE = 6
THRESH=10
GUI = 2
$end

$solvent
dielectric 4.90
$end
--------------------------------------------------------------

             Standard Nuclear Orientation (Angstroms)
    I     Atom           X                Y                Z
 ----------------------------------------------------------------
    1      C       0.1233300000    -8.5177020000     0.2962760000
    2      C      -0.4214940000    -7.6415750000    -0.6311430000
    3      S       0.9116110000    -7.6386340000     1.6287950000
    4      C      -0.2332910000    -6.2647850000    -0.3050970000
    5      H      -0.9507370000    -7.9660810000    -1.5359880000
    6      C       0.4785570000    -6.0727140000     0.9311140000
    7      C       0.7813460000    -4.7870490000     1.4057370000
    8      C      -0.6645420000    -5.1628010000    -1.0977470000
    9      C      -0.3578540000    -3.8748170000    -0.6249930000
   10      C       0.3522780000    -3.6839520000     0.6139700000
   11      O      -1.3487090000    -5.4997720000    -2.2263000000
   12      O       1.4696580000    -4.4590550000     2.5388270000
   13      C       1.4193190000    -5.3290630000     3.6631020000
   14      H       1.8282370000    -4.7556940000     4.5167560000
   15      H       2.0437930000    -6.2380950000     3.5207690000
   16      H       0.3770210000    -5.6372620000     3.8955460000
   17      C      -1.4633510000    -4.5722610000    -3.2984920000
   18      H      -1.8782370000    -5.1397430000    -4.1529450000
   19      H      -0.4751760000    -4.1531310000    -3.5858040000
   20      H      -2.1594690000    -3.7395310000    -3.0582300000
   21      C       0.5406640000    -2.3066540000     0.9357610000
   22      S      -0.7808080000    -2.3065010000    -1.3305500000
   23      C       0.0000000000    -1.4351850000     0.0000000000
   24      H       1.0669460000    -1.9781380000     1.8407800000
   25      H       0.1275750000    -9.6140330000     0.2964940000
   26      C       0.0000000000     0.0000000000     0.0000000000
   27      S       0.0793270000     0.9012800000     1.5075410000
   28      C       0.2156170000     2.4679030000     0.7188730000
   29      C       0.0795770000     0.9009400000    -1.0678720000
   30      C       0.1984330000     2.2859980000    -0.6864100000
   31      S       0.0611870000     0.6580440000    -2.8055160000
   32      C       0.2083470000     2.4035340000    -3.0545300000
   33      C       0.2676360000     3.1093600000    -1.8625510000
   34      F       0.3793470000     4.4413410000    -1.8190880000
   35      C       0.2492780000     2.8496880000    -4.4560840000
   36      O       0.1901320000     2.0820760000    -5.4065100000
   37      O       0.3595480000     4.1957210000    -4.5692250000
   38      C       0.4079010000     4.6884670000    -5.9162070000
   39      H       0.4969010000     5.7859160000    -5.8330640000
   40      H      -0.5125960000     4.4143480000    -6.4701680000
   41      H       1.2783770000     4.2681240000    -6.4592930000
   42      H       0.2947640000     3.3887670000     1.3064860000
 ----------------------------------------------------------------

   10   -2754.3165296508      7.40e-07  Convergence criterion met
 Total energy in the final basis set =    -2754.3165296508
        RIMP2         total energy =     -2759.3687129807 a.u.

                    Orbital Energies (a.u.)
 --------------------------------------------------------------

 Alpha MOs
 -- Occupied --
-92.0154 -91.9979 -91.9911 -91.9864 -26.3430 -20.6146 -20.5925 -20.5916
-20.5611 -11.4092 -11.3821 -11.3200 -11.3176 -11.3094 -11.3014 -11.3000
-11.2971 -11.2970 -11.2887 -11.2867 -11.2867 -11.2864 -11.2852 -11.2844
-11.2795 -11.2621 -11.2587 -11.2560 -11.2500  -9.0139  -8.9980  -8.9916
 -8.9864  -6.6946  -6.6941  -6.6935  -6.6790  -6.6782  -6.6771  -6.6725
 -6.6719  -6.6709  -6.6674  -6.6667  -6.6659  -1.6601  -1.4671  -1.4166
 -1.4143  -1.3698  -1.2217  -1.1950  -1.1661  -1.1360  -1.0858  -1.0524
 -1.0413  -1.0235  -1.0023  -0.9883  -0.9640  -0.9587  -0.9501  -0.9405
 -0.8961  -0.8676  -0.8520  -0.8142  -0.7919  -0.7877  -0.7867  -0.7653
 -0.7553  -0.7342  -0.7250  -0.7100  -0.6991  -0.6855  -0.6836  -0.6814
 -0.6737  -0.6593  -0.6580  -0.6527  -0.6308  -0.6201  -0.6169  -0.6034
 -0.5975  -0.5859  -0.5777  -0.5694  -0.5678  -0.5623  -0.5561  -0.5531
 -0.5320  -0.5296  -0.5227  -0.5187  -0.5176  -0.5105  -0.5061  -0.4947
 -0.4882  -0.4788  -0.4770  -0.4740  -0.4703  -0.4655  -0.4602  -0.4224
 -0.3949  -0.3860  -0.3599  -0.3505  -0.3244  -0.2909  -0.2514

          Ground-State Mulliken Net Atomic Charges

     Atom                 Charge (a.u.)
  ----------------------------------------
      1 C                    -0.189524
      2 C                    -0.253122
      3 S                    -0.022343
      4 C                    -0.015718
      5 H                     0.196479
      6 C                    -0.027903
      7 C                     0.240593
      8 C                     0.241882
      9 C                    -0.042326
     10 C                    -0.023276
     11 O                    -0.333065
     12 O                    -0.340594
     13 C                    -0.085653
     14 H                     0.122398
     15 H                     0.091196
     16 H                     0.093925
     17 C                    -0.088506
     18 H                     0.125439
     19 H                     0.095993
     20 H                     0.090132
     21 C                    -0.257881
     22 S                    -0.021008
     23 C                     0.012368
     24 H                     0.192497
     25 H                     0.206343
     26 C                     0.003127
     27 S                     0.091596
     28 C                    -0.182855
     29 C                     0.007996
     30 C                    -0.121834
     31 S                     0.004575
     32 C                    -0.159451
     33 C                     0.401223
     34 F                    -0.206962
     35 C                     0.444428
     36 O                    -0.460967
     37 O                    -0.300593
     38 C                    -0.058714
     39 H                     0.121370
     40 H                     0.095084
     41 H                     0.095068
     42 H                     0.218581
  ----------------------------------------
  Sum of atomic charges =     0.000000

                    Cartesian Multipole Moments
 -----------------------------------------------------------------
    Charge (ESU x 10^10)
                 0.0000
    Dipole Moment (Debye)
         X      -0.0707      Y       1.0375      Z       2.9604
       Tot       3.1377
    Quadrupole Moments (Debye-Ang)
        XX    -200.0631     XY       2.6891     YY    -159.8516
        XZ       6.3861     YZ      -7.9830     ZZ    -183.1727

 Total job time:  284.30s(wall), 9291.34s(cpu)
        *  Thank you very much for using Q-Chem.  Have a nice day.  *
