 Q-Chem 5.4, Q-Chem, Inc., Pleasanton, CA (2021)
 Q-Chem 5.4.0 for Intel X86 EM64T Linux

User input:
--------------------------------------------------------------
$molecule
0 1
C	0.194917	-8.517702	-0.254945
C	-0.335839	-7.641575	0.680596
S	0.954772	-7.638634	-1.603876
C	-0.147576	-6.264785	0.354585
H	-0.854836	-7.966081	1.591356
C	0.567090	-6.072714	-0.879999
C	0.826731	-4.787049	-1.379534
C	-0.618405	-5.162801	1.124384
C	-0.362333	-3.874817	0.622407
C	0.355575	-3.683952	-0.612067
O	-1.253677	-5.499772	2.281166
O	1.463859	-4.459055	-2.542174
C	2.462679	-5.329063	-3.060718
H	2.997507	-4.755694	-3.841678
H	2.027179	-6.238095	-3.530361
H	3.185132	-5.637262	-2.274283
C	-2.124902	-4.572261	2.916545
H	-2.657438	-5.139743	3.703073
H	-2.867810	-4.153131	2.204417
H	-1.568770	-3.739531	3.399269
C	0.540061	-2.306654	-0.936109
S	-0.761887	-2.306501	1.341474
C	-0.000000	-1.435185	-0.000000
H	1.060690	-1.978138	-1.844392
H	0.192984	-9.614033	-0.258730
C	0.000000	0.000000	0.000000
S	0.452792	0.783312	1.507541
C	1.238397	2.145556	0.718873
C	0.452875	0.782898	-1.067872
C	1.145945	1.987956	-0.686410
S	0.333556	0.570531	-2.805516
C	1.204604	2.090290	-3.054530
C	1.556633	2.704929	-1.862551
F	2.220797	3.864903	-1.819088
C	1.430252	2.477345	-4.456084
O	1.052242	1.806648	-5.406510
O	2.099050	3.650663	-4.569225
C	2.351116	4.076808	-5.916207
H	2.895579	5.033821	-5.833064
H	1.401015	4.217390	-6.470168
H	2.962391	3.327969	-6.459293
H	1.699302	2.946693	1.306486
$end

$rem
JOBTYPE		SP
EXCHANGE	HF
CORRELATION	pRIMP2
BASIS		cc-pvtz
METHOD		rimp2
AUX_BASIS	rimp2-cc-pvtz
SOLVENT_METHOD	PCM
PURECART	11111
SYMMETRY	false
MEM_TOTAL	110000
SCF_CONVERGENCE = 6
THRESH=10
GUI = 2
$end

$solvent
dielectric 4.90
$end
--------------------------------------------------------------

             Standard Nuclear Orientation (Angstroms)
    I     Atom           X                Y                Z
 ----------------------------------------------------------------
    1      C       0.1949170000    -8.5177020000    -0.2549450000
    2      C      -0.3358390000    -7.6415750000     0.6805960000
    3      S       0.9547720000    -7.6386340000    -1.6038760000
    4      C      -0.1475760000    -6.2647850000     0.3545850000
    5      H      -0.8548360000    -7.9660810000     1.5913560000
    6      C       0.5670900000    -6.0727140000    -0.8799990000
    7      C       0.8267310000    -4.7870490000    -1.3795340000
    8      C      -0.6184050000    -5.1628010000     1.1243840000
    9      C      -0.3623330000    -3.8748170000     0.6224070000
   10      C       0.3555750000    -3.6839520000    -0.6120670000
   11      O      -1.2536770000    -5.4997720000     2.2811660000
   12      O       1.4638590000    -4.4590550000    -2.5421740000
   13      C       2.4626790000    -5.3290630000    -3.0607180000
   14      H       2.9975070000    -4.7556940000    -3.8416780000
   15      H       2.0271790000    -6.2380950000    -3.5303610000
   16      H       3.1851320000    -5.6372620000    -2.2742830000
   17      C      -2.1249020000    -4.5722610000     2.9165450000
   18      H      -2.6574380000    -5.1397430000     3.7030730000
   19      H      -2.8678100000    -4.1531310000     2.2044170000
   20      H      -1.5687700000    -3.7395310000     3.3992690000
   21      C       0.5400610000    -2.3066540000    -0.9361090000
   22      S      -0.7618870000    -2.3065010000     1.3414740000
   23      C       0.0000000000    -1.4351850000     0.0000000000
   24      H       1.0606900000    -1.9781380000    -1.8443920000
   25      H       0.1929840000    -9.6140330000    -0.2587300000
   26      C       0.0000000000     0.0000000000     0.0000000000
   27      S       0.4527920000     0.7833120000     1.5075410000
   28      C       1.2383970000     2.1455560000     0.7188730000
   29      C       0.4528750000     0.7828980000    -1.0678720000
   30      C       1.1459450000     1.9879560000    -0.6864100000
   31      S       0.3335560000     0.5705310000    -2.8055160000
   32      C       1.2046040000     2.0902900000    -3.0545300000
   33      C       1.5566330000     2.7049290000    -1.8625510000
   34      F       2.2207970000     3.8649030000    -1.8190880000
   35      C       1.4302520000     2.4773450000    -4.4560840000
   36      O       1.0522420000     1.8066480000    -5.4065100000
   37      O       2.0990500000     3.6506630000    -4.5692250000
   38      C       2.3511160000     4.0768080000    -5.9162070000
   39      H       2.8955790000     5.0338210000    -5.8330640000
   40      H       1.4010150000     4.2173900000    -6.4701680000
   41      H       2.9623910000     3.3279690000    -6.4592930000
   42      H       1.6993020000     2.9466930000     1.3064860000
 ----------------------------------------------------------------

   10   -2754.3007086068      7.49e-07  Convergence criterion met
 Total energy in the final basis set =    -2754.3007086068
        RIMP2         total energy =     -2759.3563539501 a.u.

                    Orbital Energies (a.u.)
 --------------------------------------------------------------

 Alpha MOs
 -- Occupied --
-92.0155 -92.0012 -91.9880 -91.9855 -26.3440 -20.6150 -20.5922 -20.5898
-20.5615 -11.4098 -11.3834 -11.3189 -11.3163 -11.3156 -11.3049 -11.2979
-11.2962 -11.2937 -11.2890 -11.2871 -11.2866 -11.2850 -11.2847 -11.2833
-11.2783 -11.2604 -11.2571 -11.2511 -11.2493  -9.0143  -9.0011  -8.9887
 -8.9854  -6.6951  -6.6944  -6.6939  -6.6820  -6.6813  -6.6802  -6.6697
 -6.6690  -6.6681  -6.6664  -6.6657  -6.6649  -1.6610  -1.4675  -1.4162
 -1.4127  -1.3702  -1.2244  -1.1934  -1.1653  -1.1375  -1.0850  -1.0510
 -1.0429  -1.0243  -1.0003  -0.9878  -0.9639  -0.9594  -0.9498  -0.9396
 -0.8953  -0.8689  -0.8497  -0.8089  -0.7983  -0.7877  -0.7855  -0.7635
 -0.7555  -0.7332  -0.7259  -0.7107  -0.7013  -0.6856  -0.6824  -0.6812
 -0.6741  -0.6588  -0.6585  -0.6517  -0.6300  -0.6191  -0.6165  -0.6044
 -0.5992  -0.5818  -0.5782  -0.5708  -0.5648  -0.5614  -0.5560  -0.5480
 -0.5332  -0.5304  -0.5237  -0.5166  -0.5154  -0.5083  -0.5066  -0.4958
 -0.4871  -0.4816  -0.4764  -0.4740  -0.4690  -0.4655  -0.4593  -0.4216
 -0.3945  -0.3844  -0.3595  -0.3500  -0.3259  -0.2900  -0.2505

          Ground-State Mulliken Net Atomic Charges

     Atom                 Charge (a.u.)
  ----------------------------------------
      1 C                    -0.191823
      2 C                    -0.253823
      3 S                    -0.023174
      4 C                    -0.018985
      5 H                     0.195878
      6 C                    -0.026969
      7 C                     0.238675
      8 C                     0.244987
      9 C                    -0.042037
     10 C                    -0.022124
     11 O                    -0.333382
     12 O                    -0.340064
     13 C                    -0.085962
     14 H                     0.122767
     15 H                     0.091062
     16 H                     0.093297
     17 C                    -0.087597
     18 H                     0.125624
     19 H                     0.095112
     20 H                     0.089066
     21 C                    -0.237869
     22 S                    -0.035258
     23 C                     0.002791
     24 H                     0.198090
     25 H                     0.205875
     26 C                    -0.021574
     27 S                     0.112690
     28 C                    -0.189033
     29 C                    -0.040908
     30 C                    -0.088531
     31 S                     0.030499
     32 C                    -0.159757
     33 C                     0.403706
     34 F                    -0.206401
     35 C                     0.444296
     36 O                    -0.460824
     37 O                    -0.300903
     38 C                    -0.058364
     39 H                     0.121488
     40 H                     0.095278
     41 H                     0.095107
     42 H                     0.219074
  ----------------------------------------
  Sum of atomic charges =     0.000000

                    Cartesian Multipole Moments
 -----------------------------------------------------------------
    Charge (ESU x 10^10)
                 0.0000
    Dipole Moment (Debye)
         X       1.7427      Y       1.4750      Z       3.1064
       Tot       3.8551
    Quadrupole Moments (Debye-Ang)
        XX    -186.1564     XY       6.0292     YY    -165.9429
        XZ     -16.1478     YZ      -7.1103     ZZ    -192.7627

 Total job time:  287.03s(wall), 8772.18s(cpu)
        *  Thank you very much for using Q-Chem.  Have a nice day.  *
