 Q-Chem 5.4, Q-Chem, Inc., Pleasanton, CA (2021)
 Q-Chem 5.4.0 for Intel X86 EM64T Linux

User input:
--------------------------------------------------------------
$molecule
0 1
C	-0.270358	-8.517702	0.172904
C	0.548363	-7.641575	-0.524688
S	-1.445750	-7.638634	1.180599
C	0.259951	-6.264785	-0.282727
H	1.347559	-7.966081	-1.203014
C	-0.833868	-6.072714	0.632972
C	-1.248701	-4.787049	1.013580
C	0.965673	-5.162801	-0.845068
C	0.553357	-3.874817	-0.460946
C	-0.543470	-3.683952	0.453541
O	1.958276	-5.499772	-1.714812
O	-2.245053	-4.459055	1.888193
C	-3.360989	-5.329063	2.033848
H	-4.130667	-4.755694	2.584788
H	-3.112380	-6.238095	2.624118
H	-3.770895	-5.637262	1.047748
C	2.994272	-4.572261	-2.013896
H	3.763700	-5.139743	-2.570853
H	3.448815	-4.153131	-1.090625
H	2.636780	-3.739531	-2.657717
C	-0.827659	-2.306654	0.694943
S	1.174750	-2.306501	-0.999993
C	-0.000000	-1.435185	-0.000000
H	-1.627541	-1.978138	1.370385
H	-0.269836	-9.614033	0.177122
C	0.000000	0.000000	0.000000
S	0.581934	0.692785	1.507541
C	1.592155	1.897915	0.718873
C	0.581944	0.692363	-1.067872
C	1.473741	1.758764	-0.686410
S	0.427560	0.503942	-2.805516
C	1.549278	1.849357	-3.054530
C	2.002690	2.393529	-1.862551
F	2.858191	3.420549	-1.819088
C	1.838710	2.191348	-4.456084
O	1.349977	1.596481	-5.406510
O	2.701091	3.230705	-4.569225
C	3.023327	3.606605	-5.916207
H	3.725703	4.454534	-5.833064
H	2.112072	3.910035	-6.470168
H	3.495281	2.762996	-6.459293
H	2.185174	2.606846	1.306486
$end

$rem
JOBTYPE		SP
EXCHANGE	HF
CORRELATION	pRIMP2
BASIS		cc-pvtz
METHOD		rimp2
AUX_BASIS	rimp2-cc-pvtz
SOLVENT_METHOD	PCM
PURECART	11111
SYMMETRY	false
MEM_TOTAL	110000
SCF_CONVERGENCE = 6
THRESH=10
GUI = 2
$end

$solvent
dielectric 4.90
$end
--------------------------------------------------------------

             Standard Nuclear Orientation (Angstroms)
    I     Atom           X                Y                Z
 ----------------------------------------------------------------
    1      C      -0.2703580000    -8.5177020000     0.1729040000
    2      C       0.5483630000    -7.6415750000    -0.5246880000
    3      S      -1.4457500000    -7.6386340000     1.1805990000
    4      C       0.2599510000    -6.2647850000    -0.2827270000
    5      H       1.3475590000    -7.9660810000    -1.2030140000
    6      C      -0.8338680000    -6.0727140000     0.6329720000
    7      C      -1.2487010000    -4.7870490000     1.0135800000
    8      C       0.9656730000    -5.1628010000    -0.8450680000
    9      C       0.5533570000    -3.8748170000    -0.4609460000
   10      C      -0.5434700000    -3.6839520000     0.4535410000
   11      O       1.9582760000    -5.4997720000    -1.7148120000
   12      O      -2.2450530000    -4.4590550000     1.8881930000
   13      C      -3.3609890000    -5.3290630000     2.0338480000
   14      H      -4.1306670000    -4.7556940000     2.5847880000
   15      H      -3.1123800000    -6.2380950000     2.6241180000
   16      H      -3.7708950000    -5.6372620000     1.0477480000
   17      C       2.9942720000    -4.5722610000    -2.0138960000
   18      H       3.7637000000    -5.1397430000    -2.5708530000
   19      H       3.4488150000    -4.1531310000    -1.0906250000
   20      H       2.6367800000    -3.7395310000    -2.6577170000
   21      C      -0.8276590000    -2.3066540000     0.6949430000
   22      S       1.1747500000    -2.3065010000    -0.9999930000
   23      C       0.0000000000    -1.4351850000     0.0000000000
   24      H      -1.6275410000    -1.9781380000     1.3703850000
   25      H      -0.2698360000    -9.6140330000     0.1771220000
   26      C       0.0000000000     0.0000000000     0.0000000000
   27      S       0.5819340000     0.6927850000     1.5075410000
   28      C       1.5921550000     1.8979150000     0.7188730000
   29      C       0.5819440000     0.6923630000    -1.0678720000
   30      C       1.4737410000     1.7587640000    -0.6864100000
   31      S       0.4275600000     0.5039420000    -2.8055160000
   32      C       1.5492780000     1.8493570000    -3.0545300000
   33      C       2.0026900000     2.3935290000    -1.8625510000
   34      F       2.8581910000     3.4205490000    -1.8190880000
   35      C       1.8387100000     2.1913480000    -4.4560840000
   36      O       1.3499770000     1.5964810000    -5.4065100000
   37      O       2.7010910000     3.2307050000    -4.5692250000
   38      C       3.0233270000     3.6066050000    -5.9162070000
   39      H       3.7257030000     4.4545340000    -5.8330640000
   40      H       2.1120720000     3.9100350000    -6.4701680000
   41      H       3.4952810000     2.7629960000    -6.4592930000
   42      H       2.1851740000     2.6068460000     1.3064860000
 ----------------------------------------------------------------

   10   -2754.2862694850      7.90e-07  Convergence criterion met
 Total energy in the final basis set =    -2754.2862694850
        RIMP2         total energy =     -2759.3449480047 a.u.

                    Orbital Energies (a.u.)
 --------------------------------------------------------------

 Alpha MOs
 -- Occupied --
-92.0148 -92.0021 -91.9860 -91.9848 -26.3442 -20.6151 -20.5912 -20.5895
-20.5615 -11.4098 -11.3838 -11.3206 -11.3176 -11.3143 -11.3078 -11.2978
-11.2918 -11.2891 -11.2865 -11.2862 -11.2857 -11.2851 -11.2823 -11.2822
-11.2776 -11.2582 -11.2559 -11.2487 -11.2475  -9.0135  -9.0020  -8.9866
 -8.9847  -6.6942  -6.6935  -6.6930  -6.6829  -6.6822  -6.6811  -6.6675
 -6.6668  -6.6658  -6.6657  -6.6651  -6.6642  -1.6613  -1.4676  -1.4152
 -1.4123  -1.3703  -1.2263  -1.1918  -1.1640  -1.1375  -1.0843  -1.0498
 -1.0425  -1.0247  -0.9994  -0.9866  -0.9642  -0.9577  -0.9491  -0.9396
 -0.8941  -0.8692  -0.8472  -0.8143  -0.7928  -0.7857  -0.7836  -0.7640
 -0.7554  -0.7318  -0.7262  -0.7106  -0.6985  -0.6857  -0.6824  -0.6806
 -0.6742  -0.6588  -0.6576  -0.6513  -0.6291  -0.6185  -0.6160  -0.6064
 -0.5986  -0.5842  -0.5767  -0.5682  -0.5649  -0.5609  -0.5545  -0.5458
 -0.5320  -0.5302  -0.5221  -0.5155  -0.5147  -0.5084  -0.5069  -0.4959
 -0.4876  -0.4816  -0.4754  -0.4737  -0.4691  -0.4631  -0.4584  -0.4116
 -0.3984  -0.3823  -0.3543  -0.3507  -0.3239  -0.2902  -0.2527

          Ground-State Mulliken Net Atomic Charges

     Atom                 Charge (a.u.)
  ----------------------------------------
      1 C                    -0.192870
      2 C                    -0.253935
      3 S                    -0.025377
      4 C                    -0.019205
      5 H                     0.195864
      6 C                    -0.024095
      7 C                     0.230522
      8 C                     0.241087
      9 C                    -0.045224
     10 C                    -0.004417
     11 O                    -0.333309
     12 O                    -0.340596
     13 C                    -0.085727
     14 H                     0.121761
     15 H                     0.090720
     16 H                     0.093591
     17 C                    -0.088364
     18 H                     0.125229
     19 H                     0.093747
     20 H                     0.090730
     21 C                    -0.275196
     22 S                    -0.013824
     23 C                    -0.002123
     24 H                     0.193958
     25 H                     0.205589
     26 C                    -0.043156
     27 S                     0.125193
     28 C                    -0.168696
     29 C                    -0.057138
     30 C                    -0.077287
     31 S                     0.048791
     32 C                    -0.152262
     33 C                     0.397471
     34 F                    -0.206341
     35 C                     0.445829
     36 O                    -0.461414
     37 O                    -0.300951
     38 C                    -0.058333
     39 H                     0.121420
     40 H                     0.095326
     41 H                     0.095038
     42 H                     0.217974
  ----------------------------------------
  Sum of atomic charges =     0.000000

                    Cartesian Multipole Moments
 -----------------------------------------------------------------
    Charge (ESU x 10^10)
                 0.0000
    Dipole Moment (Debye)
         X       2.3031      Y       1.6027      Z       2.4289
       Tot       3.7111
    Quadrupole Moments (Debye-Ang)
        XX    -175.3484     XY       8.8932     YY    -170.6543
        XZ     -14.5867     YZ      -4.1251     ZZ    -200.4126

 Total job time:  312.54s(wall), 9593.28s(cpu)
        *  Thank you very much for using Q-Chem.  Have a nice day.  *
