 Q-Chem 5.4, Q-Chem, Inc., Pleasanton, CA (2021)
 Q-Chem 5.4.0 for Intel X86 EM64T Linux

User input:
--------------------------------------------------------------
$molecule
0 1
C	1.438381	-8.395476	0.318247
C	1.278244	-7.534070	-0.757333
S	1.301894	-7.526914	1.866383
C	1.039133	-6.178202	-0.380867
H	1.328769	-7.854673	-1.805573
C	1.004177	-5.989332	1.045647
C	0.805458	-4.718873	1.608077
C	0.870278	-5.088992	-1.282948
C	0.675402	-3.815501	-0.720187
C	0.637837	-3.628315	0.707853
O	0.900992	-5.425746	-2.602386
O	0.777604	-4.390731	2.933517
C	0.332149	-5.352705	3.881999
H	0.160995	-4.800670	4.825744
H	1.092680	-6.141658	4.070972
H	-0.617733	-5.833149	3.562152
C	1.170109	-4.436474	-3.588253
H	1.335544	-4.983539	-4.535674
H	2.081585	-3.850160	-3.342986
H	0.313504	-3.741940	-3.728239
C	0.400889	-2.271550	1.080725
S	0.389762	-2.273357	-1.542694
C	0.249217	-1.413382	0.000000
H	0.347057	-1.947458	2.127635
H	1.632269	-9.474532	0.320559
C	0.000000	0.000000	0.000000
S	0.452792	0.783312	1.507541
C	1.238397	2.145556	0.718873
C	0.452875	0.782898	-1.067872
C	1.145945	1.987956	-0.686410
S	0.333556	0.570531	-2.805516
C	1.204604	2.090290	-3.054530
C	1.556633	2.704929	-1.862551
F	2.220797	3.864903	-1.819088
C	1.430252	2.477345	-4.456084
O	1.052242	1.806648	-5.406510
O	2.099050	3.650663	-4.569225
C	2.351116	4.076808	-5.916207
H	2.895579	5.033821	-5.833064
H	1.401015	4.217390	-6.470168
H	2.962391	3.327969	-6.459293
H	1.699302	2.946693	1.306486
$end

$rem
JOBTYPE		SP
EXCHANGE	HF
CORRELATION	pRIMP2
BASIS		cc-pvtz
METHOD		rimp2
AUX_BASIS	rimp2-cc-pvtz
SOLVENT_METHOD	PCM
PURECART	11111
SYMMETRY	false
MEM_TOTAL	110000
SCF_CONVERGENCE = 6
THRESH=10
GUI = 2
$end

$solvent
dielectric 4.90
$end
--------------------------------------------------------------

             Standard Nuclear Orientation (Angstroms)
    I     Atom           X                Y                Z
 ----------------------------------------------------------------
    1      C       1.4383810000    -8.3954760000     0.3182470000
    2      C       1.2782440000    -7.5340700000    -0.7573330000
    3      S       1.3018940000    -7.5269140000     1.8663830000
    4      C       1.0391330000    -6.1782020000    -0.3808670000
    5      H       1.3287690000    -7.8546730000    -1.8055730000
    6      C       1.0041770000    -5.9893320000     1.0456470000
    7      C       0.8054580000    -4.7188730000     1.6080770000
    8      C       0.8702780000    -5.0889920000    -1.2829480000
    9      C       0.6754020000    -3.8155010000    -0.7201870000
   10      C       0.6378370000    -3.6283150000     0.7078530000
   11      O       0.9009920000    -5.4257460000    -2.6023860000
   12      O       0.7776040000    -4.3907310000     2.9335170000
   13      C       0.3321490000    -5.3527050000     3.8819990000
   14      H       0.1609950000    -4.8006700000     4.8257440000
   15      H       1.0926800000    -6.1416580000     4.0709720000
   16      H      -0.6177330000    -5.8331490000     3.5621520000
   17      C       1.1701090000    -4.4364740000    -3.5882530000
   18      H       1.3355440000    -4.9835390000    -4.5356740000
   19      H       2.0815850000    -3.8501600000    -3.3429860000
   20      H       0.3135040000    -3.7419400000    -3.7282390000
   21      C       0.4008890000    -2.2715500000     1.0807250000
   22      S       0.3897620000    -2.2733570000    -1.5426940000
   23      C       0.2492170000    -1.4133820000     0.0000000000
   24      H       0.3470570000    -1.9474580000     2.1276350000
   25      H       1.6322690000    -9.4745320000     0.3205590000
   26      C       0.0000000000     0.0000000000     0.0000000000
   27      S       0.4527920000     0.7833120000     1.5075410000
   28      C       1.2383970000     2.1455560000     0.7188730000
   29      C       0.4528750000     0.7828980000    -1.0678720000
   30      C       1.1459450000     1.9879560000    -0.6864100000
   31      S       0.3335560000     0.5705310000    -2.8055160000
   32      C       1.2046040000     2.0902900000    -3.0545300000
   33      C       1.5566330000     2.7049290000    -1.8625510000
   34      F       2.2207970000     3.8649030000    -1.8190880000
   35      C       1.4302520000     2.4773450000    -4.4560840000
   36      O       1.0522420000     1.8066480000    -5.4065100000
   37      O       2.0990500000     3.6506630000    -4.5692250000
   38      C       2.3511160000     4.0768080000    -5.9162070000
   39      H       2.8955790000     5.0338210000    -5.8330640000
   40      H       1.4010150000     4.2173900000    -6.4701680000
   41      H       2.9623910000     3.3279690000    -6.4592930000
   42      H       1.6993020000     2.9466930000     1.3064860000
 ----------------------------------------------------------------

   10   -2754.2839852334      6.85e-07  Convergence criterion met
 Total energy in the final basis set =    -2754.2839852334
        RIMP2         total energy =     -2759.3444891000 a.u.

                    Orbital Energies (a.u.)
 --------------------------------------------------------------

 Alpha MOs
 -- Occupied --
-92.0147 -92.0050 -91.9865 -91.9837 -26.3456 -20.6157 -20.5910 -20.5880
-20.5623 -11.4107 -11.3858 -11.3251 -11.3178 -11.3126 -11.3112 -11.2988
-11.2984 -11.2900 -11.2895 -11.2884 -11.2857 -11.2845 -11.2818 -11.2806
-11.2754 -11.2591 -11.2532 -11.2480 -11.2424  -9.0138  -9.0051  -8.9874
 -8.9836  -6.6945  -6.6938  -6.6934  -6.6860  -6.6852  -6.6841  -6.6684
 -6.6677  -6.6667  -6.6646  -6.6640  -6.6631  -1.6626  -1.4683  -1.4149
 -1.4109  -1.3710  -1.2291  -1.1913  -1.1643  -1.1391  -1.0857  -1.0492
 -1.0436  -1.0271  -0.9991  -0.9872  -0.9657  -0.9566  -0.9483  -0.9419
 -0.8933  -0.8710  -0.8474  -0.8179  -0.7938  -0.7859  -0.7826  -0.7636
 -0.7559  -0.7312  -0.7273  -0.7121  -0.6979  -0.6867  -0.6834  -0.6808
 -0.6748  -0.6598  -0.6572  -0.6506  -0.6300  -0.6176  -0.6152  -0.6045
 -0.6005  -0.5837  -0.5799  -0.5691  -0.5657  -0.5610  -0.5549  -0.5510
 -0.5330  -0.5286  -0.5237  -0.5186  -0.5159  -0.5110  -0.5049  -0.4937
 -0.4853  -0.4816  -0.4773  -0.4744  -0.4696  -0.4612  -0.4567  -0.4267
 -0.3896  -0.3832  -0.3597  -0.3540  -0.3236  -0.2914  -0.2448

          Ground-State Mulliken Net Atomic Charges

     Atom                 Charge (a.u.)
  ----------------------------------------
      1 C                    -0.197885
      2 C                    -0.252584
      3 S                    -0.027707
      4 C                    -0.023747
      5 H                     0.195439
      6 C                    -0.024122
      7 C                     0.228239
      8 C                     0.245937
      9 C                    -0.041086
     10 C                    -0.009291
     11 O                    -0.333125
     12 O                    -0.342323
     13 C                    -0.085443
     14 H                     0.121116
     15 H                     0.090339
     16 H                     0.092999
     17 C                    -0.088576
     18 H                     0.125423
     19 H                     0.094652
     20 H                     0.090226
     21 C                    -0.283756
     22 S                    -0.040752
     23 C                     0.013006
     24 H                     0.183324
     25 H                     0.204823
     26 C                    -0.037752
     27 S                     0.101703
     28 C                    -0.150426
     29 C                     0.027107
     30 C                    -0.111855
     31 S                     0.037828
     32 C                    -0.163754
     33 C                     0.406016
     34 F                    -0.204808
     35 C                     0.447595
     36 O                    -0.461243
     37 O                    -0.301033
     38 C                    -0.058305
     39 H                     0.121656
     40 H                     0.095276
     41 H                     0.095227
     42 H                     0.221645
  ----------------------------------------
  Sum of atomic charges =     0.000000

                    Cartesian Multipole Moments
 -----------------------------------------------------------------
    Charge (ESU x 10^10)
                 0.0000
    Dipole Moment (Debye)
         X       1.7467      Y       2.8237      Z       2.1535
       Tot       3.9575
    Quadrupole Moments (Debye-Ang)
        XX    -196.3174     XY       6.0712     YY    -171.6214
        XZ      -9.5452     YZ      -5.9479     ZZ    -181.7404

 Total job time:  312.01s(wall), 9845.46s(cpu)
        *  Thank you very much for using Q-Chem.  Have a nice day.  *
