 Q-Chem 5.4, Q-Chem, Inc., Pleasanton, CA (2021)
 Q-Chem 5.4.0 for Intel X86 EM64T Linux

User input:
--------------------------------------------------------------
$molecule
0 1
C	-0.070009	-8.517702	-0.313191
C	0.305494	-7.641575	0.694746
S	-0.614924	-7.638634	-1.762350
C	0.176768	-6.264785	0.340973
H	0.669571	-7.966081	1.677747
C	-0.309600	-6.072714	-1.000069
C	-0.525372	-4.787049	-1.520060
C	0.463825	-5.162801	1.196466
C	0.243888	-3.874817	0.677639
C	-0.240312	-3.683952	-0.665815
O	0.941626	-5.499772	2.426678
O	-1.006468	-4.459055	-2.755460
C	-0.761666	-5.329063	-3.853913
H	-1.016135	-4.755694	-4.765607
H	-1.401368	-6.238095	-3.822182
H	0.305161	-5.637262	-3.901833
C	0.868342	-4.572261	3.502489
H	1.128551	-5.139743	4.416005
H	-0.154712	-4.153131	3.613841
H	1.595605	-3.739531	3.386756
C	-0.369957	-2.306654	-1.015430
S	0.537898	-2.306501	1.445922
C	0.000000	-1.435185	0.000000
H	-0.731088	-1.978138	-1.998088
H	-0.074151	-9.614033	-0.314143
C	0.000000	0.000000	0.000000
S	0.693394	0.581209	1.507541
C	1.897536	1.592607	0.718873
C	0.693330	0.580791	-1.067872
C	1.756758	1.476132	-0.686410
S	0.508573	0.422041	-2.805516
C	1.846879	1.552232	-3.054530
C	2.387897	2.009402	-1.862551
F	3.408741	2.872264	-1.819088
C	2.191300	1.838768	-4.456084
O	1.606694	1.337806	-5.406510
O	3.221062	2.712584	-4.569225
C	3.603677	3.026817	-5.916207
H	4.442623	3.739898	-5.833064
H	2.758956	3.483875	-6.470168
H	3.921969	2.114070	-6.459293
H	2.604650	2.187790	1.306486
$end

$rem
JOBTYPE		SP
EXCHANGE	HF
CORRELATION	pRIMP2
BASIS		cc-pvtz
METHOD		rimp2
AUX_BASIS	rimp2-cc-pvtz
SOLVENT_METHOD	PCM
PURECART	11111
SYMMETRY	false
MEM_TOTAL	110000
SCF_CONVERGENCE = 6
THRESH=10
GUI = 2
$end

$solvent
dielectric 4.90
$end
--------------------------------------------------------------

             Standard Nuclear Orientation (Angstroms)
    I     Atom           X                Y                Z
 ----------------------------------------------------------------
    1      C      -0.0700090000    -8.5177020000    -0.3131910000
    2      C       0.3054940000    -7.6415750000     0.6947460000
    3      S      -0.6149240000    -7.6386340000    -1.7623500000
    4      C       0.1767680000    -6.2647850000     0.3409730000
    5      H       0.6695710000    -7.9660810000     1.6777470000
    6      C      -0.3096000000    -6.0727140000    -1.0000690000
    7      C      -0.5253720000    -4.7870490000    -1.5200600000
    8      C       0.4638250000    -5.1628010000     1.1964660000
    9      C       0.2438880000    -3.8748170000     0.6776390000
   10      C      -0.2403120000    -3.6839520000    -0.6658150000
   11      O       0.9416260000    -5.4997720000     2.4266780000
   12      O      -1.0064680000    -4.4590550000    -2.7554600000
   13      C      -0.7616660000    -5.3290630000    -3.8539130000
   14      H      -1.0161350000    -4.7556940000    -4.7656070000
   15      H      -1.4013680000    -6.2380950000    -3.8221820000
   16      H       0.3051610000    -5.6372620000    -3.9018330000
   17      C       0.8683420000    -4.5722610000     3.5024890000
   18      H       1.1285510000    -5.1397430000     4.4160050000
   19      H      -0.1547120000    -4.1531310000     3.6138410000
   20      H       1.5956050000    -3.7395310000     3.3867560000
   21      C      -0.3699570000    -2.3066540000    -1.0154300000
   22      S       0.5378980000    -2.3065010000     1.4459220000
   23      C       0.0000000000    -1.4351850000     0.0000000000
   24      H      -0.7310880000    -1.9781380000    -1.9980880000
   25      H      -0.0741510000    -9.6140330000    -0.3141430000
   26      C       0.0000000000     0.0000000000     0.0000000000
   27      S       0.6933940000     0.5812090000     1.5075410000
   28      C       1.8975360000     1.5926070000     0.7188730000
   29      C       0.6933300000     0.5807910000    -1.0678720000
   30      C       1.7567580000     1.4761320000    -0.6864100000
   31      S       0.5085730000     0.4220410000    -2.8055160000
   32      C       1.8468790000     1.5522320000    -3.0545300000
   33      C       2.3878970000     2.0094020000    -1.8625510000
   34      F       3.4087410000     2.8722640000    -1.8190880000
   35      C       2.1913000000     1.8387680000    -4.4560840000
   36      O       1.6066940000     1.3378060000    -5.4065100000
   37      O       3.2210620000     2.7125840000    -4.5692250000
   38      C       3.6036770000     3.0268170000    -5.9162070000
   39      H       4.4426230000     3.7398980000    -5.8330640000
   40      H       2.7589560000     3.4838750000    -6.4701680000
   41      H       3.9219690000     2.1140700000    -6.4592930000
   42      H       2.6046500000     2.1877900000     1.3064860000
 ----------------------------------------------------------------

   10   -2754.2672270253      7.88e-07  Convergence criterion met
 Total energy in the final basis set =    -2754.2672270253
        RIMP2         total energy =     -2759.3302753708 a.u.

                    Orbital Energies (a.u.)
 --------------------------------------------------------------

 Alpha MOs
 -- Occupied --
-92.0156 -92.0092 -91.9875 -91.9826 -26.3467 -20.6160 -20.5911 -20.5861
-20.5626 -11.4112 -11.3875 -11.3310 -11.3187 -11.3170 -11.3087 -11.2996
-11.2971 -11.2901 -11.2896 -11.2867 -11.2834 -11.2829 -11.2807 -11.2772
-11.2741 -11.2575 -11.2514 -11.2472 -11.2367  -9.0153  -9.0088  -8.9882
 -8.9826  -6.6959  -6.6951  -6.6948  -6.6897  -6.6889  -6.6879  -6.6691
 -6.6684  -6.6674  -6.6636  -6.6630  -6.6621  -1.6636  -1.4686  -1.4150
 -1.4090  -1.3714  -1.2326  -1.1902  -1.1650  -1.1400  -1.0849  -1.0479
 -1.0454  -1.0280  -0.9975  -0.9874  -0.9664  -0.9580  -0.9483  -0.9388
 -0.8936  -0.8721  -0.8465  -0.8121  -0.7984  -0.7865  -0.7826  -0.7616
 -0.7564  -0.7303  -0.7283  -0.7139  -0.6995  -0.6869  -0.6833  -0.6793
 -0.6751  -0.6602  -0.6571  -0.6494  -0.6289  -0.6169  -0.6150  -0.6038
 -0.6021  -0.5882  -0.5791  -0.5703  -0.5633  -0.5619  -0.5543  -0.5412
 -0.5342  -0.5308  -0.5224  -0.5171  -0.5144  -0.5107  -0.5029  -0.4941
 -0.4880  -0.4821  -0.4765  -0.4745  -0.4680  -0.4589  -0.4581  -0.4255
 -0.3935  -0.3800  -0.3613  -0.3451  -0.3276  -0.2918  -0.2455

          Ground-State Mulliken Net Atomic Charges

     Atom                 Charge (a.u.)
  ----------------------------------------
      1 C                    -0.200394
      2 C                    -0.253049
      3 S                    -0.028208
      4 C                    -0.026614
      5 H                     0.194754
      6 C                    -0.023631
      7 C                     0.227685
      8 C                     0.244170
      9 C                    -0.054021
     10 C                    -0.006149
     11 O                    -0.333134
     12 O                    -0.342513
     13 C                    -0.085771
     14 H                     0.121853
     15 H                     0.090159
     16 H                     0.092193
     17 C                    -0.088197
     18 H                     0.125443
     19 H                     0.094360
     20 H                     0.088780
     21 C                    -0.288044
     22 S                    -0.032881
     23 C                     0.010725
     24 H                     0.187464
     25 H                     0.204292
     26 C                    -0.081580
     27 S                     0.094345
     28 C                    -0.133334
     29 C                     0.071361
     30 C                    -0.120647
     31 S                     0.047912
     32 C                    -0.158818
     33 C                     0.401809
     34 F                    -0.203687
     35 C                     0.448846
     36 O                    -0.461203
     37 O                    -0.301225
     38 C                    -0.058192
     39 H                     0.121649
     40 H                     0.095339
     41 H                     0.095466
     42 H                     0.222686
  ----------------------------------------
  Sum of atomic charges =     0.000000

                    Cartesian Multipole Moments
 -----------------------------------------------------------------
    Charge (ESU x 10^10)
                -0.0000
    Dipole Moment (Debye)
         X       3.5993      Y       2.7936      Z       3.0133
       Tot       5.4625
    Quadrupole Moments (Debye-Ang)
        XX    -191.1629     XY       7.2303     YY    -180.2064
        XZ      -3.0615     YZ      -5.8742     ZZ    -180.2550

 Total job time:  301.47s(wall), 9235.36s(cpu)
        *  Thank you very much for using Q-Chem.  Have a nice day.  *
