 Q-Chem 5.4, Q-Chem, Inc., Pleasanton, CA (2021)
 Q-Chem 5.4.0 for Intel X86 EM64T Linux

User input:
--------------------------------------------------------------
$molecule
0 1
C	-0.172904	-8.517702	-0.270358
C	0.524688	-7.641575	0.548363
S	-1.180599	-7.638634	-1.445750
C	0.282727	-6.264785	0.259951
H	1.203014	-7.966081	1.347559
C	-0.632972	-6.072714	-0.833868
C	-1.013580	-4.787049	-1.248701
C	0.845068	-5.162801	0.965673
C	0.460946	-3.874817	0.553357
C	-0.453541	-3.683952	-0.543470
O	1.714812	-5.499772	1.958276
O	-1.888193	-4.459055	-2.245053
C	-2.033848	-5.329063	-3.360989
H	-2.584788	-4.755694	-4.130667
H	-2.624118	-6.238095	-3.112380
H	-1.047748	-5.637262	-3.770895
C	2.013896	-4.572261	2.994272
H	2.570853	-5.139743	3.763700
H	1.090625	-4.153131	3.448815
H	2.657717	-3.739531	2.636780
C	-0.694943	-2.306654	-0.827659
S	0.999993	-2.306501	1.174750
C	-0.000000	-1.435185	-0.000000
H	-1.370385	-1.978138	-1.627541
H	-0.177122	-9.614033	-0.269836
C	0.000000	0.000000	0.000000
S	0.581934	0.692785	1.507541
C	1.592155	1.897915	0.718873
C	0.581944	0.692363	-1.067872
C	1.473741	1.758764	-0.686410
S	0.427560	0.503942	-2.805516
C	1.549278	1.849357	-3.054530
C	2.002690	2.393529	-1.862551
F	2.858191	3.420549	-1.819088
C	1.838710	2.191348	-4.456084
O	1.349977	1.596481	-5.406510
O	2.701091	3.230705	-4.569225
C	3.023327	3.606605	-5.916207
H	3.725703	4.454534	-5.833064
H	2.112072	3.910035	-6.470168
H	3.495281	2.762996	-6.459293
H	2.185174	2.606846	1.306486
$end

$rem
JOBTYPE		SP
EXCHANGE	HF
CORRELATION	pRIMP2
BASIS		cc-pvtz
METHOD		rimp2
AUX_BASIS	rimp2-cc-pvtz
SOLVENT_METHOD	PCM
PURECART	11111
SYMMETRY	false
MEM_TOTAL	110000
SCF_CONVERGENCE = 6
THRESH=10
GUI = 2
$end

$solvent
dielectric 4.90
$end
--------------------------------------------------------------

             Standard Nuclear Orientation (Angstroms)
    I     Atom           X                Y                Z
 ----------------------------------------------------------------
    1      C      -0.1729040000    -8.5177020000    -0.2703580000
    2      C       0.5246880000    -7.6415750000     0.5483630000
    3      S      -1.1805990000    -7.6386340000    -1.4457500000
    4      C       0.2827270000    -6.2647850000     0.2599510000
    5      H       1.2030140000    -7.9660810000     1.3475590000
    6      C      -0.6329720000    -6.0727140000    -0.8338680000
    7      C      -1.0135800000    -4.7870490000    -1.2487010000
    8      C       0.8450680000    -5.1628010000     0.9656730000
    9      C       0.4609460000    -3.8748170000     0.5533570000
   10      C      -0.4535410000    -3.6839520000    -0.5434700000
   11      O       1.7148120000    -5.4997720000     1.9582760000
   12      O      -1.8881930000    -4.4590550000    -2.2450530000
   13      C      -2.0338480000    -5.3290630000    -3.3609890000
   14      H      -2.5847880000    -4.7556940000    -4.1306670000
   15      H      -2.6241180000    -6.2380950000    -3.1123800000
   16      H      -1.0477480000    -5.6372620000    -3.7708950000
   17      C       2.0138960000    -4.5722610000     2.9942720000
   18      H       2.5708530000    -5.1397430000     3.7637000000
   19      H       1.0906250000    -4.1531310000     3.4488150000
   20      H       2.6577170000    -3.7395310000     2.6367800000
   21      C      -0.6949430000    -2.3066540000    -0.8276590000
   22      S       0.9999930000    -2.3065010000     1.1747500000
   23      C       0.0000000000    -1.4351850000     0.0000000000
   24      H      -1.3703850000    -1.9781380000    -1.6275410000
   25      H      -0.1771220000    -9.6140330000    -0.2698360000
   26      C       0.0000000000     0.0000000000     0.0000000000
   27      S       0.5819340000     0.6927850000     1.5075410000
   28      C       1.5921550000     1.8979150000     0.7188730000
   29      C       0.5819440000     0.6923630000    -1.0678720000
   30      C       1.4737410000     1.7587640000    -0.6864100000
   31      S       0.4275600000     0.5039420000    -2.8055160000
   32      C       1.5492780000     1.8493570000    -3.0545300000
   33      C       2.0026900000     2.3935290000    -1.8625510000
   34      F       2.8581910000     3.4205490000    -1.8190880000
   35      C       1.8387100000     2.1913480000    -4.4560840000
   36      O       1.3499770000     1.5964810000    -5.4065100000
   37      O       2.7010910000     3.2307050000    -4.5692250000
   38      C       3.0233270000     3.6066050000    -5.9162070000
   39      H       3.7257030000     4.4545340000    -5.8330640000
   40      H       2.1120720000     3.9100350000    -6.4701680000
   41      H       3.4952810000     2.7629960000    -6.4592930000
   42      H       2.1851740000     2.6068460000     1.3064860000
 ----------------------------------------------------------------

   10   -2754.2866937975      7.32e-07  Convergence criterion met
 Total energy in the final basis set =    -2754.2866937975
        RIMP2         total energy =     -2759.3448920017 a.u.

                    Orbital Energies (a.u.)
 --------------------------------------------------------------

 Alpha MOs
 -- Occupied --
-92.0150 -92.0040 -91.9891 -91.9841 -26.3450 -20.6153 -20.5917 -20.5881
-20.5618 -11.4102 -11.3850 -11.3222 -11.3180 -11.3124 -11.3116 -11.2983
-11.2951 -11.2892 -11.2883 -11.2876 -11.2870 -11.2840 -11.2820 -11.2808
-11.2765 -11.2586 -11.2545 -11.2483 -11.2443  -9.0142  -9.0038  -8.9896
 -8.9841  -6.6949  -6.6942  -6.6938  -6.6847  -6.6840  -6.6829  -6.6705
 -6.6698  -6.6688  -6.6650  -6.6644  -6.6636  -1.6620  -1.4678  -1.4157
 -1.4110  -1.3705  -1.2275  -1.1917  -1.1647  -1.1385  -1.0841  -1.0493
 -1.0438  -1.0255  -0.9991  -0.9871  -0.9645  -0.9590  -0.9491  -0.9387
 -0.8944  -0.8700  -0.8481  -0.8105  -0.7970  -0.7863  -0.7846  -0.7627
 -0.7558  -0.7315  -0.7268  -0.7118  -0.7003  -0.6859  -0.6821  -0.6802
 -0.6744  -0.6588  -0.6579  -0.6507  -0.6290  -0.6180  -0.6158  -0.6043
 -0.6002  -0.5892  -0.5769  -0.5703  -0.5643  -0.5618  -0.5543  -0.5408
 -0.5339  -0.5310  -0.5206  -0.5167  -0.5144  -0.5116  -0.5036  -0.4937
 -0.4873  -0.4832  -0.4753  -0.4743  -0.4690  -0.4633  -0.4601  -0.4193
 -0.3953  -0.3822  -0.3575  -0.3495  -0.3225  -0.2936  -0.2502

          Ground-State Mulliken Net Atomic Charges

     Atom                 Charge (a.u.)
  ----------------------------------------
      1 C                    -0.195239
      2 C                    -0.253807
      3 S                    -0.025534
      4 C                    -0.021021
      5 H                     0.195395
      6 C                    -0.024713
      7 C                     0.230855
      8 C                     0.241628
      9 C                    -0.051831
     10 C                    -0.013470
     11 O                    -0.333071
     12 O                    -0.341223
     13 C                    -0.085765
     14 H                     0.122120
     15 H                     0.090427
     16 H                     0.093163
     17 C                    -0.087495
     18 H                     0.125245
     19 H                     0.094231
     20 H                     0.089102
     21 C                    -0.276325
     22 S                    -0.017163
     23 C                    -0.007153
     24 H                     0.196397
     25 H                     0.205162
     26 C                    -0.052145
     27 S                     0.088275
     28 C                    -0.150854
     29 C                     0.044215
     30 C                    -0.105493
     31 S                     0.031062
     32 C                    -0.152420
     33 C                     0.393621
     34 F                    -0.204968
     35 C                     0.447305
     36 O                    -0.461145
     37 O                    -0.301132
     38 C                    -0.058320
     39 H                     0.121451
     40 H                     0.095231
     41 H                     0.095280
     42 H                     0.220124
  ----------------------------------------
  Sum of atomic charges =     0.000000

                    Cartesian Multipole Moments
 -----------------------------------------------------------------
    Charge (ESU x 10^10)
                 0.0000
    Dipole Moment (Debye)
         X       2.7433      Y       2.0530      Z       2.8908
       Tot       4.4830
    Quadrupole Moments (Debye-Ang)
        XX    -190.2122     XY       6.9295     YY    -172.4262
        XZ       5.1205     YZ      -5.4438     ZZ    -185.4073

 Total job time:  293.24s(wall), 9281.33s(cpu)
        *  Thank you very much for using Q-Chem.  Have a nice day.  *
