 Q-Chem 5.4, Q-Chem, Inc., Pleasanton, CA (2021)
 Q-Chem 5.4.0 for Intel X86 EM64T Linux

User input:
--------------------------------------------------------------
$molecule
0 1
C	-0.147685	-8.517702	0.284919
C	0.212552	-7.641575	-0.728574
S	-0.661757	-7.638634	1.745304
C	0.083761	-6.264785	-0.374824
H	0.565513	-7.966081	-1.715621
C	-0.405665	-6.072714	0.965104
C	-0.574617	-4.787049	1.502136
C	0.413763	-5.162801	-1.214687
C	0.248748	-3.874817	-0.675870
C	-0.243888	-3.683952	0.664513
O	0.838511	-5.499772	-2.464209
O	-1.000176	-4.459055	2.757750
C	-1.893778	-5.329063	3.441858
H	-2.284868	-4.755694	4.303826
H	-1.383341	-6.238095	3.828743
H	-2.741817	-5.637262	2.792824
C	1.586168	-4.572261	-3.241222
H	1.974033	-5.139743	-4.108274
H	2.441448	-4.153131	-2.668916
H	0.954660	-3.739531	-3.620041
C	-0.369302	-2.306654	1.015668
S	0.517367	-2.306501	-1.453394
C	-0.000000	-1.435185	-0.000000
H	-0.724300	-1.978138	2.000559
H	-0.145124	-9.614033	0.288311
C	0.000000	0.000000	0.000000
S	0.783786	0.451972	1.507541
C	2.145261	1.238908	0.718873
C	0.783650	0.451572	-1.067872
C	1.986396	1.148648	-0.686410
S	0.574133	0.327317	-2.805516
C	2.088363	1.207943	-3.054530
C	2.700548	1.564221	-1.862551
F	3.855718	2.236706	-1.819088
C	2.477307	1.430318	-4.456084
O	1.814592	1.038482	-5.406510
O	3.643162	2.112042	-4.569225
C	4.074530	2.355061	-5.916207
H	5.024556	2.911627	-5.833064
H	3.322010	2.951860	-6.470168
H	4.229490	1.400910	-6.459293
H	2.944986	1.702260	1.306486
$end

$rem
JOBTYPE		SP
EXCHANGE	HF
CORRELATION	pRIMP2
BASIS		cc-pvtz
METHOD		rimp2
AUX_BASIS	rimp2-cc-pvtz
SOLVENT_METHOD	PCM
PURECART	11111
SYMMETRY	false
MEM_TOTAL	110000
SCF_CONVERGENCE = 6
THRESH=10
GUI = 2
$end

$solvent
dielectric 4.90
$end
--------------------------------------------------------------

             Standard Nuclear Orientation (Angstroms)
    I     Atom           X                Y                Z
 ----------------------------------------------------------------
    1      C      -0.1476850000    -8.5177020000     0.2849190000
    2      C       0.2125520000    -7.6415750000    -0.7285740000
    3      S      -0.6617570000    -7.6386340000     1.7453040000
    4      C       0.0837610000    -6.2647850000    -0.3748240000
    5      H       0.5655130000    -7.9660810000    -1.7156210000
    6      C      -0.4056650000    -6.0727140000     0.9651040000
    7      C      -0.5746170000    -4.7870490000     1.5021360000
    8      C       0.4137630000    -5.1628010000    -1.2146870000
    9      C       0.2487480000    -3.8748170000    -0.6758700000
   10      C      -0.2438880000    -3.6839520000     0.6645130000
   11      O       0.8385110000    -5.4997720000    -2.4642090000
   12      O      -1.0001760000    -4.4590550000     2.7577500000
   13      C      -1.8937780000    -5.3290630000     3.4418580000
   14      H      -2.2848680000    -4.7556940000     4.3038260000
   15      H      -1.3833410000    -6.2380950000     3.8287430000
   16      H      -2.7418170000    -5.6372620000     2.7928240000
   17      C       1.5861680000    -4.5722610000    -3.2412220000
   18      H       1.9740330000    -5.1397430000    -4.1082740000
   19      H       2.4414480000    -4.1531310000    -2.6689160000
   20      H       0.9546600000    -3.7395310000    -3.6200410000
   21      C      -0.3693020000    -2.3066540000     1.0156680000
   22      S       0.5173670000    -2.3065010000    -1.4533940000
   23      C       0.0000000000    -1.4351850000     0.0000000000
   24      H      -0.7243000000    -1.9781380000     2.0005590000
   25      H      -0.1451240000    -9.6140330000     0.2883110000
   26      C       0.0000000000     0.0000000000     0.0000000000
   27      S       0.7837860000     0.4519720000     1.5075410000
   28      C       2.1452610000     1.2389080000     0.7188730000
   29      C       0.7836500000     0.4515720000    -1.0678720000
   30      C       1.9863960000     1.1486480000    -0.6864100000
   31      S       0.5741330000     0.3273170000    -2.8055160000
   32      C       2.0883630000     1.2079430000    -3.0545300000
   33      C       2.7005480000     1.5642210000    -1.8625510000
   34      F       3.8557180000     2.2367060000    -1.8190880000
   35      C       2.4773070000     1.4303180000    -4.4560840000
   36      O       1.8145920000     1.0384820000    -5.4065100000
   37      O       3.6431620000     2.1120420000    -4.5692250000
   38      C       4.0745300000     2.3550610000    -5.9162070000
   39      H       5.0245560000     2.9116270000    -5.8330640000
   40      H       3.3220100000     2.9518600000    -6.4701680000
   41      H       4.2294900000     1.4009100000    -6.4592930000
   42      H       2.9449860000     1.7022600000     1.3064860000
 ----------------------------------------------------------------

   10   -2754.2392502191      8.59e-07  Convergence criterion met
 Total energy in the final basis set =    -2754.2392502191
        RIMP2         total energy =     -2759.3081230447 a.u.

                    Orbital Energies (a.u.)
 --------------------------------------------------------------

 Alpha MOs
 -- Occupied --
-92.0161 -92.0116 -91.9816 -91.9815 -26.3476 -20.6166 -20.5897 -20.5852
-20.5633 -11.4120 -11.3887 -11.3400 -11.3247 -11.3155 -11.3061 -11.3001
-11.2971 -11.2909 -11.2902 -11.2851 -11.2830 -11.2796 -11.2732 -11.2727
-11.2724 -11.2556 -11.2491 -11.2463 -11.2318  -9.0155  -9.0116  -8.9829
 -8.9816  -6.6961  -6.6952  -6.6950  -6.6924  -6.6916  -6.6907  -6.6637
 -6.6629  -6.6626  -6.6620  -6.6619  -6.6611  -1.6645  -1.4692  -1.4135
 -1.4081  -1.3720  -1.2383  -1.1880  -1.1641  -1.1410  -1.0872  -1.0476
 -1.0435  -1.0303  -0.9966  -0.9870  -0.9675  -0.9545  -0.9471  -0.9414
 -0.8911  -0.8741  -0.8427  -0.8201  -0.7958  -0.7840  -0.7791  -0.7630
 -0.7558  -0.7293  -0.7288  -0.7139  -0.6972  -0.6877  -0.6845  -0.6781
 -0.6757  -0.6620  -0.6557  -0.6488  -0.6303  -0.6160  -0.6147  -0.6084
 -0.6008  -0.5828  -0.5771  -0.5719  -0.5650  -0.5560  -0.5530  -0.5464
 -0.5336  -0.5295  -0.5235  -0.5162  -0.5141  -0.5098  -0.5048  -0.4951
 -0.4876  -0.4816  -0.4777  -0.4744  -0.4682  -0.4576  -0.4550  -0.4191
 -0.3917  -0.3781  -0.3580  -0.3493  -0.3264  -0.2893  -0.2430

          Ground-State Mulliken Net Atomic Charges

     Atom                 Charge (a.u.)
  ----------------------------------------
      1 C                    -0.204219
      2 C                    -0.251970
      3 S                    -0.031044
      4 C                    -0.030888
      5 H                     0.194632
      6 C                    -0.022679
      7 C                     0.219159
      8 C                     0.247590
      9 C                    -0.052068
     10 C                     0.002255
     11 O                    -0.333339
     12 O                    -0.342940
     13 C                    -0.085441
     14 H                     0.120225
     15 H                     0.089535
     16 H                     0.092190
     17 C                    -0.088281
     18 H                     0.125115
     19 H                     0.092749
     20 H                     0.091150
     21 C                    -0.323673
     22 S                    -0.036087
     23 C                     0.048260
     24 H                     0.180390
     25 H                     0.203705
     26 C                    -0.168080
     27 S                     0.130794
     28 C                    -0.109097
     29 C                     0.068353
     30 C                    -0.106042
     31 S                     0.076218
     32 C                    -0.155991
     33 C                     0.399648
     34 F                    -0.203882
     35 C                     0.449062
     36 O                    -0.462060
     37 O                    -0.300940
     38 C                    -0.058036
     39 H                     0.121835
     40 H                     0.095560
     41 H                     0.095225
     42 H                     0.223106
  ----------------------------------------
  Sum of atomic charges =     0.000000

                    Cartesian Multipole Moments
 -----------------------------------------------------------------
    Charge (ESU x 10^10)
                -0.0000
    Dipole Moment (Debye)
         X       4.0556      Y       2.9999      Z       1.6674
       Tot       5.3129
    Quadrupole Moments (Debye-Ang)
        XX    -180.4612     XY       8.7449     YY    -187.0960
        XZ     -17.2433     YZ      -1.0339     ZZ    -186.7395

 Total job time:  309.19s(wall), 9821.46s(cpu)
        *  Thank you very much for using Q-Chem.  Have a nice day.  *
