 Q-Chem 5.4, Q-Chem, Inc., Pleasanton, CA (2021)
 Q-Chem 5.4.0 for Intel X86 EM64T Linux

User input:
--------------------------------------------------------------
$molecule
0 1
C	-0.172904	-8.517702	-0.270358
C	0.524688	-7.641575	0.548363
S	-1.180599	-7.638634	-1.445750
C	0.282727	-6.264785	0.259951
H	1.203014	-7.966081	1.347559
C	-0.632972	-6.072714	-0.833868
C	-1.013580	-4.787049	-1.248701
C	0.845068	-5.162801	0.965673
C	0.460946	-3.874817	0.553357
C	-0.453541	-3.683952	-0.543470
O	1.714812	-5.499772	1.958276
O	-1.888193	-4.459055	-2.245053
C	-2.033848	-5.329063	-3.360989
H	-2.584788	-4.755694	-4.130667
H	-2.624118	-6.238095	-3.112380
H	-1.047748	-5.637262	-3.770895
C	2.013896	-4.572261	2.994272
H	2.570853	-5.139743	3.763700
H	1.090625	-4.153131	3.448815
H	2.657717	-3.739531	2.636780
C	-0.694943	-2.306654	-0.827659
S	0.999993	-2.306501	1.174750
C	-0.000000	-1.435185	-0.000000
H	-1.370385	-1.978138	-1.627541
H	-0.177122	-9.614033	-0.269836
C	0.000000	0.000000	0.000000
S	0.783786	0.451972	1.507541
C	2.145261	1.238908	0.718873
C	0.783650	0.451572	-1.067872
C	1.986396	1.148648	-0.686410
S	0.574133	0.327317	-2.805516
C	2.088363	1.207943	-3.054530
C	2.700548	1.564221	-1.862551
F	3.855718	2.236706	-1.819088
C	2.477307	1.430318	-4.456084
O	1.814592	1.038482	-5.406510
O	3.643162	2.112042	-4.569225
C	4.074530	2.355061	-5.916207
H	5.024556	2.911627	-5.833064
H	3.322010	2.951860	-6.470168
H	4.229490	1.400910	-6.459293
H	2.944986	1.702260	1.306486
$end

$rem
JOBTYPE		SP
EXCHANGE	HF
CORRELATION	pRIMP2
BASIS		cc-pvtz
METHOD		rimp2
AUX_BASIS	rimp2-cc-pvtz
SOLVENT_METHOD	PCM
PURECART	11111
SYMMETRY	false
MEM_TOTAL	110000
SCF_CONVERGENCE = 6
THRESH=10
GUI = 2
$end

$solvent
dielectric 4.90
$end
--------------------------------------------------------------

             Standard Nuclear Orientation (Angstroms)
    I     Atom           X                Y                Z
 ----------------------------------------------------------------
    1      C      -0.1729040000    -8.5177020000    -0.2703580000
    2      C       0.5246880000    -7.6415750000     0.5483630000
    3      S      -1.1805990000    -7.6386340000    -1.4457500000
    4      C       0.2827270000    -6.2647850000     0.2599510000
    5      H       1.2030140000    -7.9660810000     1.3475590000
    6      C      -0.6329720000    -6.0727140000    -0.8338680000
    7      C      -1.0135800000    -4.7870490000    -1.2487010000
    8      C       0.8450680000    -5.1628010000     0.9656730000
    9      C       0.4609460000    -3.8748170000     0.5533570000
   10      C      -0.4535410000    -3.6839520000    -0.5434700000
   11      O       1.7148120000    -5.4997720000     1.9582760000
   12      O      -1.8881930000    -4.4590550000    -2.2450530000
   13      C      -2.0338480000    -5.3290630000    -3.3609890000
   14      H      -2.5847880000    -4.7556940000    -4.1306670000
   15      H      -2.6241180000    -6.2380950000    -3.1123800000
   16      H      -1.0477480000    -5.6372620000    -3.7708950000
   17      C       2.0138960000    -4.5722610000     2.9942720000
   18      H       2.5708530000    -5.1397430000     3.7637000000
   19      H       1.0906250000    -4.1531310000     3.4488150000
   20      H       2.6577170000    -3.7395310000     2.6367800000
   21      C      -0.6949430000    -2.3066540000    -0.8276590000
   22      S       0.9999930000    -2.3065010000     1.1747500000
   23      C       0.0000000000    -1.4351850000     0.0000000000
   24      H      -1.3703850000    -1.9781380000    -1.6275410000
   25      H      -0.1771220000    -9.6140330000    -0.2698360000
   26      C       0.0000000000     0.0000000000     0.0000000000
   27      S       0.7837860000     0.4519720000     1.5075410000
   28      C       2.1452610000     1.2389080000     0.7188730000
   29      C       0.7836500000     0.4515720000    -1.0678720000
   30      C       1.9863960000     1.1486480000    -0.6864100000
   31      S       0.5741330000     0.3273170000    -2.8055160000
   32      C       2.0883630000     1.2079430000    -3.0545300000
   33      C       2.7005480000     1.5642210000    -1.8625510000
   34      F       3.8557180000     2.2367060000    -1.8190880000
   35      C       2.4773070000     1.4303180000    -4.4560840000
   36      O       1.8145920000     1.0384820000    -5.4065100000
   37      O       3.6431620000     2.1120420000    -4.5692250000
   38      C       4.0745300000     2.3550610000    -5.9162070000
   39      H       5.0245560000     2.9116270000    -5.8330640000
   40      H       3.3220100000     2.9518600000    -6.4701680000
   41      H       4.2294900000     1.4009100000    -6.4592930000
   42      H       2.9449860000     1.7022600000     1.3064860000
 ----------------------------------------------------------------

   10   -2754.2448462132      7.76e-07  Convergence criterion met
 Total energy in the final basis set =    -2754.2448462132
        RIMP2         total energy =     -2759.3111064591 a.u.

                    Orbital Energies (a.u.)
 --------------------------------------------------------------

 Alpha MOs
 -- Occupied --
-92.0148 -92.0116 -91.9860 -91.9816 -26.3474 -20.6161 -20.5905 -20.5850
-20.5627 -11.4114 -11.3885 -11.3379 -11.3263 -11.3157 -11.3067 -11.2998
-11.2952 -11.2908 -11.2897 -11.2864 -11.2824 -11.2796 -11.2736 -11.2736
-11.2730 -11.2554 -11.2497 -11.2465 -11.2317  -9.0149  -9.0111  -8.9866
 -8.9816  -6.6955  -6.6946  -6.6944  -6.6919  -6.6912  -6.6902  -6.6675
 -6.6666  -6.6657  -6.6626  -6.6620  -6.6611  -1.6643  -1.4687  -1.4142
 -1.4079  -1.3715  -1.2372  -1.1887  -1.1656  -1.1401  -1.0847  -1.0470
 -1.0457  -1.0290  -0.9963  -0.9870  -0.9670  -0.9573  -0.9476  -0.9380
 -0.8926  -0.8732  -0.8442  -0.8131  -0.7981  -0.7844  -0.7822  -0.7613
 -0.7564  -0.7291  -0.7289  -0.7147  -0.6986  -0.6870  -0.6838  -0.6773
 -0.6753  -0.6611  -0.6564  -0.6486  -0.6287  -0.6162  -0.6144  -0.6074
 -0.6006  -0.5918  -0.5787  -0.5703  -0.5628  -0.5621  -0.5520  -0.5353
 -0.5332  -0.5306  -0.5213  -0.5180  -0.5119  -0.5106  -0.5018  -0.4925
 -0.4882  -0.4831  -0.4770  -0.4741  -0.4698  -0.4586  -0.4534  -0.4189
 -0.3943  -0.3786  -0.3570  -0.3464  -0.3236  -0.2953  -0.2462

          Ground-State Mulliken Net Atomic Charges

     Atom                 Charge (a.u.)
  ----------------------------------------
      1 C                    -0.202394
      2 C                    -0.252822
      3 S                    -0.030075
      4 C                    -0.028713
      5 H                     0.194432
      6 C                    -0.023446
      7 C                     0.223431
      8 C                     0.243336
      9 C                    -0.058942
     10 C                    -0.000952
     11 O                    -0.333331
     12 O                    -0.342247
     13 C                    -0.085576
     14 H                     0.121026
     15 H                     0.089732
     16 H                     0.091952
     17 C                    -0.087252
     18 H                     0.125086
     19 H                     0.093877
     20 H                     0.088156
     21 C                    -0.319134
     22 S                    -0.028842
     23 C                     0.030770
     24 H                     0.190633
     25 H                     0.203806
     26 C                    -0.139453
     27 S                     0.104646
     28 C                    -0.119168
     29 C                     0.103629
     30 C                    -0.117053
     31 S                     0.062021
     32 C                    -0.153875
     33 C                     0.395987
     34 F                    -0.203321
     35 C                     0.449180
     36 O                    -0.461514
     37 O                    -0.301299
     38 C                    -0.058088
     39 H                     0.121643
     40 H                     0.095356
     41 H                     0.095538
     42 H                     0.223257
  ----------------------------------------
  Sum of atomic charges =     0.000000

                    Cartesian Multipole Moments
 -----------------------------------------------------------------
    Charge (ESU x 10^10)
                -0.0000
    Dipole Moment (Debye)
         X       4.5443      Y       2.8443      Z       2.8389
       Tot       6.0663
    Quadrupole Moments (Debye-Ang)
        XX    -183.4977     XY       6.0161     YY    -185.8842
        XZ       3.1726     YZ      -4.3462     ZZ    -184.1187

 Total job time:  290.24s(wall), 9621.06s(cpu)
        *  Thank you very much for using Q-Chem.  Have a nice day.  *
