 Q-Chem 5.4, Q-Chem, Inc., Pleasanton, CA (2021)
 Q-Chem 5.4.0 for Intel X86 EM64T Linux

User input:
--------------------------------------------------------------
$molecule
0 1
C	-0.194917	-8.517702	0.254945
C	0.335839	-7.641575	-0.680596
S	-0.954772	-7.638634	1.603876
C	0.147576	-6.264785	-0.354585
H	0.854836	-7.966081	-1.591356
C	-0.567090	-6.072714	0.879999
C	-0.826731	-4.787049	1.379534
C	0.618405	-5.162801	-1.124384
C	0.362333	-3.874817	-0.622407
C	-0.355575	-3.683952	0.612067
O	1.253677	-5.499772	-2.281166
O	-1.463859	-4.459055	2.542174
C	-2.462679	-5.329063	3.060718
H	-2.997507	-4.755694	3.841678
H	-2.027179	-6.238095	3.530361
H	-3.185132	-5.637262	2.274283
C	2.124902	-4.572261	-2.916545
H	2.657438	-5.139743	-3.703073
H	2.867810	-4.153131	-2.204417
H	1.568770	-3.739531	-3.399269
C	-0.540061	-2.306654	0.936109
S	0.761887	-2.306501	-1.341474
C	0.000000	-1.435185	0.000000
H	-1.060690	-1.978138	1.844392
H	-0.192984	-9.614033	0.258730
C	0.000000	0.000000	0.000000
S	0.693394	0.581209	1.507541
C	1.897536	1.592607	0.718873
C	0.693330	0.580791	-1.067872
C	1.756758	1.476132	-0.686410
S	0.508573	0.422041	-2.805516
C	1.846879	1.552232	-3.054530
C	2.387897	2.009402	-1.862551
F	3.408741	2.872264	-1.819088
C	2.191300	1.838768	-4.456084
O	1.606694	1.337806	-5.406510
O	3.221062	2.712584	-4.569225
C	3.603677	3.026817	-5.916207
H	4.442623	3.739898	-5.833064
H	2.758956	3.483875	-6.470168
H	3.921969	2.114070	-6.459293
H	2.604650	2.187790	1.306486
$end

$rem
JOBTYPE		SP
EXCHANGE	HF
CORRELATION	pRIMP2
BASIS		cc-pvtz
METHOD		rimp2
AUX_BASIS	rimp2-cc-pvtz
SOLVENT_METHOD	PCM
PURECART	11111
SYMMETRY	false
MEM_TOTAL	110000
SCF_CONVERGENCE = 6
THRESH=10
GUI = 2
$end

$solvent
dielectric 4.90
$end
--------------------------------------------------------------

             Standard Nuclear Orientation (Angstroms)
    I     Atom           X                Y                Z
 ----------------------------------------------------------------
    1      C      -0.1949170000    -8.5177020000     0.2549450000
    2      C       0.3358390000    -7.6415750000    -0.6805960000
    3      S      -0.9547720000    -7.6386340000     1.6038760000
    4      C       0.1475760000    -6.2647850000    -0.3545850000
    5      H       0.8548360000    -7.9660810000    -1.5913560000
    6      C      -0.5670900000    -6.0727140000     0.8799990000
    7      C      -0.8267310000    -4.7870490000     1.3795340000
    8      C       0.6184050000    -5.1628010000    -1.1243840000
    9      C       0.3623330000    -3.8748170000    -0.6224070000
   10      C      -0.3555750000    -3.6839520000     0.6120670000
   11      O       1.2536770000    -5.4997720000    -2.2811660000
   12      O      -1.4638590000    -4.4590550000     2.5421740000
   13      C      -2.4626790000    -5.3290630000     3.0607180000
   14      H      -2.9975070000    -4.7556940000     3.8416780000
   15      H      -2.0271790000    -6.2380950000     3.5303610000
   16      H      -3.1851320000    -5.6372620000     2.2742830000
   17      C       2.1249020000    -4.5722610000    -2.9165450000
   18      H       2.6574380000    -5.1397430000    -3.7030730000
   19      H       2.8678100000    -4.1531310000    -2.2044170000
   20      H       1.5687700000    -3.7395310000    -3.3992690000
   21      C      -0.5400610000    -2.3066540000     0.9361090000
   22      S       0.7618870000    -2.3065010000    -1.3414740000
   23      C       0.0000000000    -1.4351850000     0.0000000000
   24      H      -1.0606900000    -1.9781380000     1.8443920000
   25      H      -0.1929840000    -9.6140330000     0.2587300000
   26      C       0.0000000000     0.0000000000     0.0000000000
   27      S       0.6933940000     0.5812090000     1.5075410000
   28      C       1.8975360000     1.5926070000     0.7188730000
   29      C       0.6933300000     0.5807910000    -1.0678720000
   30      C       1.7567580000     1.4761320000    -0.6864100000
   31      S       0.5085730000     0.4220410000    -2.8055160000
   32      C       1.8468790000     1.5522320000    -3.0545300000
   33      C       2.3878970000     2.0094020000    -1.8625510000
   34      F       3.4087410000     2.8722640000    -1.8190880000
   35      C       2.1913000000     1.8387680000    -4.4560840000
   36      O       1.6066940000     1.3378060000    -5.4065100000
   37      O       3.2210620000     2.7125840000    -4.5692250000
   38      C       3.6036770000     3.0268170000    -5.9162070000
   39      H       4.4426230000     3.7398980000    -5.8330640000
   40      H       2.7589560000     3.4838750000    -6.4701680000
   41      H       3.9219690000     2.1140700000    -6.4592930000
   42      H       2.6046500000     2.1877900000     1.3064860000
 ----------------------------------------------------------------

   10   -2754.2650803618      7.22e-07  Convergence criterion met
 Total energy in the final basis set =    -2754.2650803618
        RIMP2         total energy =     -2759.3295583525 a.u.

                    Orbital Energies (a.u.)
 --------------------------------------------------------------

 Alpha MOs
 -- Occupied --
-92.0155 -92.0066 -91.9838 -91.9831 -26.3458 -20.6159 -20.5904 -20.5872
-20.5624 -11.4109 -11.3861 -11.3299 -11.3166 -11.3155 -11.3100 -11.2989
-11.2947 -11.2897 -11.2887 -11.2855 -11.2840 -11.2809 -11.2804 -11.2775
-11.2748 -11.2570 -11.2523 -11.2475 -11.2392  -9.0146  -9.0066  -8.9848
 -8.9831  -6.6952  -6.6944  -6.6940  -6.6875  -6.6867  -6.6857  -6.6656
 -6.6649  -6.6641  -6.6639  -6.6634  -6.6626  -1.6628  -1.4685  -1.4143
 -1.4101  -1.3712  -1.2318  -1.1897  -1.1636  -1.1394  -1.0855  -1.0483
 -1.0434  -1.0275  -0.9978  -0.9865  -0.9659  -0.9559  -0.9480  -0.9408
 -0.8925  -0.8716  -0.8449  -0.8175  -0.7942  -0.7848  -0.7810  -0.7633
 -0.7557  -0.7302  -0.7276  -0.7121  -0.6976  -0.6868  -0.6836  -0.6793
 -0.6750  -0.6602  -0.6566  -0.6500  -0.6293  -0.6171  -0.6151  -0.6073
 -0.5997  -0.5828  -0.5770  -0.5697  -0.5653  -0.5581  -0.5538  -0.5470
 -0.5326  -0.5290  -0.5222  -0.5157  -0.5156  -0.5102  -0.5057  -0.4954
 -0.4871  -0.4820  -0.4767  -0.4741  -0.4693  -0.4596  -0.4563  -0.4179
 -0.3948  -0.3802  -0.3565  -0.3498  -0.3263  -0.2886  -0.2465

          Ground-State Mulliken Net Atomic Charges

     Atom                 Charge (a.u.)
  ----------------------------------------
      1 C                    -0.198970
      2 C                    -0.252778
      3 S                    -0.028184
      4 C                    -0.026000
      5 H                     0.195228
      6 C                    -0.024166
      7 C                     0.225137
      8 C                     0.244488
      9 C                    -0.050331
     10 C                    -0.000744
     11 O                    -0.333284
     12 O                    -0.341839
     13 C                    -0.085455
     14 H                     0.120899
     15 H                     0.090064
     16 H                     0.092852
     17 C                    -0.088964
     18 H                     0.125285
     19 H                     0.093326
     20 H                     0.091190
     21 C                    -0.308570
     22 S                    -0.025660
     23 C                     0.039848
     24 H                     0.186881
     25 H                     0.204605
     26 C                    -0.108994
     27 S                     0.128153
     28 C                    -0.142794
     29 C                     0.010628
     30 C                    -0.092101
     31 S                     0.061134
     32 C                    -0.155512
     33 C                     0.400882
     34 F                    -0.205291
     35 C                     0.447080
     36 O                    -0.461678
     37 O                    -0.300916
     38 C                    -0.058209
     39 H                     0.121629
     40 H                     0.095427
     41 H                     0.095134
     42 H                     0.220570
  ----------------------------------------
  Sum of atomic charges =     0.000000

                    Cartesian Multipole Moments
 -----------------------------------------------------------------
    Charge (ESU x 10^10)
                 0.0000
    Dipole Moment (Debye)
         X       3.1447      Y       2.4240      Z       2.0468
       Tot       4.4671
    Quadrupole Moments (Debye-Ang)
        XX    -180.0606     XY       9.2942     YY    -179.0193
        XZ     -17.6653     YZ      -2.6805     ZZ    -191.5719

 Total job time:  287.81s(wall), 9155.31s(cpu)
        *  Thank you very much for using Q-Chem.  Have a nice day.  *
