 Q-Chem 5.4, Q-Chem, Inc., Pleasanton, CA (2021)
 Q-Chem 5.4.0 for Intel X86 EM64T Linux

User input:
--------------------------------------------------------------
$molecule
0 1
C	0.270358	-8.517702	-0.172904
C	-0.548363	-7.641575	0.524688
S	1.445750	-7.638634	-1.180599
C	-0.259951	-6.264785	0.282727
H	-1.347559	-7.966081	1.203014
C	0.833868	-6.072714	-0.632972
C	1.248701	-4.787049	-1.013580
C	-0.965673	-5.162801	0.845068
C	-0.553357	-3.874817	0.460946
C	0.543470	-3.683952	-0.453541
O	-1.958276	-5.499772	1.714812
O	2.245053	-4.459055	-1.888193
C	3.360989	-5.329063	-2.033848
H	4.130667	-4.755694	-2.584788
H	3.112380	-6.238095	-2.624118
H	3.770895	-5.637262	-1.047748
C	-2.994272	-4.572261	2.013896
H	-3.763700	-5.139743	2.570853
H	-3.448815	-4.153131	1.090625
H	-2.636780	-3.739531	2.657717
C	0.827659	-2.306654	-0.694943
S	-1.174750	-2.306501	0.999993
C	0.000000	-1.435185	0.000000
H	1.627541	-1.978138	-1.370385
H	0.269836	-9.614033	-0.177122
C	0.000000	0.000000	0.000000
S	0.234628	0.873813	1.507541
C	0.640889	2.392969	0.718873
C	0.234815	0.873434	-1.067872
C	0.592377	2.216811	-0.686410
S	0.174526	0.637422	-2.805516
C	0.622551	2.330840	-3.054530
C	0.803505	3.015647	-1.862551
F	1.144815	4.307994	-1.819088
C	0.740334	2.763108	-4.456084
O	0.548793	2.017428	-5.406510
O	1.082665	4.069544	-4.569225
C	1.215848	4.546407	-5.916207
H	1.494066	5.611729	-5.833064
H	0.261736	4.436296	-6.470168
H	2.000108	3.981294	-6.459293
H	0.878739	3.286099	1.306486
$end

$rem
JOBTYPE		SP
EXCHANGE	HF
CORRELATION	pRIMP2
BASIS		cc-pvtz
METHOD		rimp2
AUX_BASIS	rimp2-cc-pvtz
SOLVENT_METHOD	PCM
PURECART	11111
SYMMETRY	false
MEM_TOTAL	110000
SCF_CONVERGENCE = 6
THRESH=10
GUI = 2
$end

$solvent
dielectric 4.90
$end
--------------------------------------------------------------

             Standard Nuclear Orientation (Angstroms)
    I     Atom           X                Y                Z
 ----------------------------------------------------------------
    1      C       0.2703580000    -8.5177020000    -0.1729040000
    2      C      -0.5483630000    -7.6415750000     0.5246880000
    3      S       1.4457500000    -7.6386340000    -1.1805990000
    4      C      -0.2599510000    -6.2647850000     0.2827270000
    5      H      -1.3475590000    -7.9660810000     1.2030140000
    6      C       0.8338680000    -6.0727140000    -0.6329720000
    7      C       1.2487010000    -4.7870490000    -1.0135800000
    8      C      -0.9656730000    -5.1628010000     0.8450680000
    9      C      -0.5533570000    -3.8748170000     0.4609460000
   10      C       0.5434700000    -3.6839520000    -0.4535410000
   11      O      -1.9582760000    -5.4997720000     1.7148120000
   12      O       2.2450530000    -4.4590550000    -1.8881930000
   13      C       3.3609890000    -5.3290630000    -2.0338480000
   14      H       4.1306670000    -4.7556940000    -2.5847880000
   15      H       3.1123800000    -6.2380950000    -2.6241180000
   16      H       3.7708950000    -5.6372620000    -1.0477480000
   17      C      -2.9942720000    -4.5722610000     2.0138960000
   18      H      -3.7637000000    -5.1397430000     2.5708530000
   19      H      -3.4488150000    -4.1531310000     1.0906250000
   20      H      -2.6367800000    -3.7395310000     2.6577170000
   21      C       0.8276590000    -2.3066540000    -0.6949430000
   22      S      -1.1747500000    -2.3065010000     0.9999930000
   23      C       0.0000000000    -1.4351850000     0.0000000000
   24      H       1.6275410000    -1.9781380000    -1.3703850000
   25      H       0.2698360000    -9.6140330000    -0.1771220000
   26      C       0.0000000000     0.0000000000     0.0000000000
   27      S       0.2346280000     0.8738130000     1.5075410000
   28      C       0.6408890000     2.3929690000     0.7188730000
   29      C       0.2348150000     0.8734340000    -1.0678720000
   30      C       0.5923770000     2.2168110000    -0.6864100000
   31      S       0.1745260000     0.6374220000    -2.8055160000
   32      C       0.6225510000     2.3308400000    -3.0545300000
   33      C       0.8035050000     3.0156470000    -1.8625510000
   34      F       1.1448150000     4.3079940000    -1.8190880000
   35      C       0.7403340000     2.7631080000    -4.4560840000
   36      O       0.5487930000     2.0174280000    -5.4065100000
   37      O       1.0826650000     4.0695440000    -4.5692250000
   38      C       1.2158480000     4.5464070000    -5.9162070000
   39      H       1.4940660000     5.6117290000    -5.8330640000
   40      H       0.2617360000     4.4362960000    -6.4701680000
   41      H       2.0001080000     3.9812940000    -6.4592930000
   42      H       0.8787390000     3.2860990000     1.3064860000
 ----------------------------------------------------------------

   10   -2754.3125389721      7.21e-07  Convergence criterion met
 Total energy in the final basis set =    -2754.3125389721
        RIMP2         total energy =     -2759.3637337278 a.u.

                    Orbital Energies (a.u.)
 --------------------------------------------------------------

 Alpha MOs
 -- Occupied --
-92.0148 -91.9974 -91.9894 -91.9863 -26.3428 -20.6145 -20.5926 -20.5912
-20.5608 -11.4089 -11.3816 -11.3194 -11.3179 -11.3103 -11.3009 -11.2973
-11.2969 -11.2943 -11.2886 -11.2873 -11.2862 -11.2858 -11.2845 -11.2841
-11.2798 -11.2611 -11.2589 -11.2566 -11.2500  -9.0134  -8.9974  -8.9899
 -8.9863  -6.6941  -6.6936  -6.6930  -6.6784  -6.6777  -6.6766  -6.6709
 -6.6702  -6.6692  -6.6672  -6.6666  -6.6658  -1.6599  -1.4669  -1.4166
 -1.4140  -1.3696  -1.2211  -1.1945  -1.1656  -1.1357  -1.0848  -1.0520
 -1.0412  -1.0225  -1.0015  -0.9879  -0.9626  -0.9600  -0.9503  -0.9389
 -0.8959  -0.8672  -0.8512  -0.8079  -0.7974  -0.7874  -0.7867  -0.7644
 -0.7550  -0.7339  -0.7248  -0.7093  -0.7016  -0.6848  -0.6831  -0.6803
 -0.6735  -0.6593  -0.6576  -0.6525  -0.6303  -0.6199  -0.6172  -0.6043
 -0.5975  -0.5834  -0.5778  -0.5707  -0.5659  -0.5616  -0.5537  -0.5502
 -0.5329  -0.5304  -0.5244  -0.5161  -0.5156  -0.5077  -0.5059  -0.4958
 -0.4884  -0.4800  -0.4755  -0.4733  -0.4686  -0.4674  -0.4605  -0.4153
 -0.3955  -0.3861  -0.3581  -0.3500  -0.3222  -0.2920  -0.2548

          Ground-State Mulliken Net Atomic Charges

     Atom                 Charge (a.u.)
  ----------------------------------------
      1 C                    -0.188714
      2 C                    -0.253923
      3 S                    -0.021521
      4 C                    -0.015942
      5 H                     0.196303
      6 C                    -0.028563
      7 C                     0.241140
      8 C                     0.243040
      9 C                    -0.048356
     10 C                    -0.022682
     11 O                    -0.333356
     12 O                    -0.339284
     13 C                    -0.085920
     14 H                     0.122906
     15 H                     0.091280
     16 H                     0.093641
     17 C                    -0.086907
     18 H                     0.125177
     19 H                     0.095133
     20 H                     0.089272
     21 C                    -0.223562
     22 S                    -0.013483
     23 C                    -0.009343
     24 H                     0.202674
     25 H                     0.206387
     26 C                    -0.031815
     27 S                     0.106834
     28 C                    -0.190089
     29 C                    -0.028619
     30 C                    -0.095642
     31 S                     0.016270
     32 C                    -0.154084
     33 C                     0.395177
     34 F                    -0.207295
     35 C                     0.444532
     36 O                    -0.460935
     37 O                    -0.300697
     38 C                    -0.058455
     39 H                     0.121264
     40 H                     0.095132
     41 H                     0.094991
     42 H                     0.218032
  ----------------------------------------
  Sum of atomic charges =     0.000000

                    Cartesian Multipole Moments
 -----------------------------------------------------------------
    Charge (ESU x 10^10)
                 0.0000
    Dipole Moment (Debye)
         X       0.8631      Y       0.9445      Z       3.2014
       Tot       3.4476
    Quadrupole Moments (Debye-Ang)
        XX    -180.8712     XY       2.7860     YY    -160.6135
        XZ     -11.9867     YZ      -7.9025     ZZ    -201.5405

 Total job time:  288.55s(wall), 8980.09s(cpu)
        *  Thank you very much for using Q-Chem.  Have a nice day.  *
