 Q-Chem 5.4, Q-Chem, Inc., Pleasanton, CA (2021)
 Q-Chem 5.4.0 for Intel X86 EM64T Linux

User input:
--------------------------------------------------------------
$molecule
0 1
C	0.172904	-8.517702	0.270358
C	-0.524688	-7.641575	-0.548363
S	1.180599	-7.638634	1.445750
C	-0.282727	-6.264785	-0.259951
H	-1.203014	-7.966081	-1.347559
C	0.632972	-6.072714	0.833868
C	1.013580	-4.787049	1.248701
C	-0.845068	-5.162801	-0.965673
C	-0.460946	-3.874817	-0.553357
C	0.453541	-3.683952	0.543470
O	-1.714812	-5.499772	-1.958276
O	1.888193	-4.459055	2.245053
C	2.033848	-5.329063	3.360989
H	2.584788	-4.755694	4.130667
H	2.624118	-6.238095	3.112380
H	1.047748	-5.637262	3.770895
C	-2.013896	-4.572261	-2.994272
H	-2.570853	-5.139743	-3.763700
H	-1.090625	-4.153131	-3.448815
H	-2.657717	-3.739531	-2.636780
C	0.694943	-2.306654	0.827659
S	-0.999993	-2.306501	-1.174750
C	-0.000000	-1.435185	-0.000000
H	1.370385	-1.978138	1.627541
H	0.177122	-9.614033	0.269836
C	0.000000	0.000000	0.000000
S	0.382799	0.819795	1.507541
C	1.046687	2.245325	0.718873
C	0.382918	0.819389	-1.067872
C	0.968323	2.080267	-0.686410
S	0.282561	0.597432	-2.805516
C	1.017839	2.187324	-3.054530
C	1.314960	2.830306	-1.862551
F	1.875498	4.043751	-1.819088
C	1.208895	2.592573	-4.456084
O	0.890778	1.891482	-5.406510
O	1.772886	3.819715	-4.569225
C	1.986852	4.266207	-5.916207
H	2.445834	5.267032	-5.833064
H	1.028114	4.323448	-6.470168
H	2.661066	3.573494	-6.459293
H	1.436015	3.083584	1.306486
$end

$rem
JOBTYPE		SP
EXCHANGE	HF
CORRELATION	pRIMP2
BASIS		cc-pvtz
METHOD		rimp2
AUX_BASIS	rimp2-cc-pvtz
SOLVENT_METHOD	PCM
PURECART	11111
SYMMETRY	false
MEM_TOTAL	110000
SCF_CONVERGENCE = 6
THRESH=10
GUI = 2
$end

$solvent
dielectric 4.90
$end
--------------------------------------------------------------

             Standard Nuclear Orientation (Angstroms)
    I     Atom           X                Y                Z
 ----------------------------------------------------------------
    1      C       0.1729040000    -8.5177020000     0.2703580000
    2      C      -0.5246880000    -7.6415750000    -0.5483630000
    3      S       1.1805990000    -7.6386340000     1.4457500000
    4      C      -0.2827270000    -6.2647850000    -0.2599510000
    5      H      -1.2030140000    -7.9660810000    -1.3475590000
    6      C       0.6329720000    -6.0727140000     0.8338680000
    7      C       1.0135800000    -4.7870490000     1.2487010000
    8      C      -0.8450680000    -5.1628010000    -0.9656730000
    9      C      -0.4609460000    -3.8748170000    -0.5533570000
   10      C       0.4535410000    -3.6839520000     0.5434700000
   11      O      -1.7148120000    -5.4997720000    -1.9582760000
   12      O       1.8881930000    -4.4590550000     2.2450530000
   13      C       2.0338480000    -5.3290630000     3.3609890000
   14      H       2.5847880000    -4.7556940000     4.1306670000
   15      H       2.6241180000    -6.2380950000     3.1123800000
   16      H       1.0477480000    -5.6372620000     3.7708950000
   17      C      -2.0138960000    -4.5722610000    -2.9942720000
   18      H      -2.5708530000    -5.1397430000    -3.7637000000
   19      H      -1.0906250000    -4.1531310000    -3.4488150000
   20      H      -2.6577170000    -3.7395310000    -2.6367800000
   21      C       0.6949430000    -2.3066540000     0.8276590000
   22      S      -0.9999930000    -2.3065010000    -1.1747500000
   23      C       0.0000000000    -1.4351850000     0.0000000000
   24      H       1.3703850000    -1.9781380000     1.6275410000
   25      H       0.1771220000    -9.6140330000     0.2698360000
   26      C       0.0000000000     0.0000000000     0.0000000000
   27      S       0.3827990000     0.8197950000     1.5075410000
   28      C       1.0466870000     2.2453250000     0.7188730000
   29      C       0.3829180000     0.8193890000    -1.0678720000
   30      C       0.9683230000     2.0802670000    -0.6864100000
   31      S       0.2825610000     0.5974320000    -2.8055160000
   32      C       1.0178390000     2.1873240000    -3.0545300000
   33      C       1.3149600000     2.8303060000    -1.8625510000
   34      F       1.8754980000     4.0437510000    -1.8190880000
   35      C       1.2088950000     2.5925730000    -4.4560840000
   36      O       0.8907780000     1.8914820000    -5.4065100000
   37      O       1.7728860000     3.8197150000    -4.5692250000
   38      C       1.9868520000     4.2662070000    -5.9162070000
   39      H       2.4458340000     5.2670320000    -5.8330640000
   40      H       1.0281140000     4.3234480000    -6.4701680000
   41      H       2.6610660000     3.5734940000    -6.4592930000
   42      H       1.4360150000     3.0835840000     1.3064860000
 ----------------------------------------------------------------

   10   -2754.3060825669      6.94e-07  Convergence criterion met
 Total energy in the final basis set =    -2754.3060825669
        RIMP2         total energy =     -2759.3600586776 a.u.

                    Orbital Energies (a.u.)
 --------------------------------------------------------------

 Alpha MOs
 -- Occupied --
-92.0154 -91.9998 -91.9893 -91.9857 -26.3436 -20.6147 -20.5920 -20.5906
-20.5611 -11.4093 -11.3829 -11.3192 -11.3161 -11.3137 -11.3047 -11.2971
-11.2970 -11.2955 -11.2888 -11.2864 -11.2859 -11.2857 -11.2850 -11.2836
-11.2785 -11.2608 -11.2573 -11.2528 -11.2495  -9.0139  -8.9998  -8.9899
 -8.9856  -6.6946  -6.6940  -6.6935  -6.6808  -6.6800  -6.6789  -6.6708
 -6.6702  -6.6692  -6.6666  -6.6660  -6.6651  -1.6607  -1.4672  -1.4161
 -1.4134  -1.3699  -1.2233  -1.1938  -1.1654  -1.1367  -1.0851  -1.0513
 -1.0421  -1.0239  -1.0010  -0.9877  -0.9639  -0.9585  -0.9496  -0.9404
 -0.8950  -0.8682  -0.8501  -0.8143  -0.7920  -0.7868  -0.7866  -0.7646
 -0.7554  -0.7331  -0.7255  -0.7104  -0.6990  -0.6854  -0.6829  -0.6814
 -0.6738  -0.6589  -0.6578  -0.6522  -0.6301  -0.6194  -0.6162  -0.6039
 -0.5988  -0.5879  -0.5763  -0.5686  -0.5672  -0.5635  -0.5546  -0.5526
 -0.5313  -0.5279  -0.5220  -0.5166  -0.5162  -0.5105  -0.5054  -0.4941
 -0.4884  -0.4794  -0.4762  -0.4735  -0.4700  -0.4649  -0.4598  -0.4196
 -0.3940  -0.3857  -0.3603  -0.3490  -0.3223  -0.2928  -0.2523

          Ground-State Mulliken Net Atomic Charges

     Atom                 Charge (a.u.)
  ----------------------------------------
      1 C                    -0.191412
      2 C                    -0.253304
      3 S                    -0.023567
      4 C                    -0.017576
      5 H                     0.196232
      6 C                    -0.027157
      7 C                     0.237056
      8 C                     0.245417
      9 C                    -0.043150
     10 C                    -0.020455
     11 O                    -0.333279
     12 O                    -0.340796
     13 C                    -0.085682
     14 H                     0.122031
     15 H                     0.091131
     16 H                     0.093576
     17 C                    -0.087803
     18 H                     0.125012
     19 H                     0.095707
     20 H                     0.089830
     21 C                    -0.252647
     22 S                    -0.015744
     23 C                    -0.014319
     24 H                     0.196640
     25 H                     0.205956
     26 C                    -0.033539
     27 S                     0.092202
     28 C                    -0.170172
     29 C                     0.025759
     30 C                    -0.111673
     31 S                     0.016264
     32 C                    -0.155648
     33 C                     0.395662
     34 F                    -0.206107
     35 C                     0.446069
     36 O                    -0.461106
     37 O                    -0.300994
     38 C                    -0.058482
     39 H                     0.121340
     40 H                     0.095086
     41 H                     0.095118
     42 H                     0.218521
  ----------------------------------------
  Sum of atomic charges =     0.000000

                    Cartesian Multipole Moments
 -----------------------------------------------------------------
    Charge (ESU x 10^10)
                 0.0000
    Dipole Moment (Debye)
         X       0.9638      Y       1.3625      Z       2.8901
       Tot       3.3374
    Quadrupole Moments (Debye-Ang)
        XX    -194.2797     XY       7.5218     YY    -164.5664
        XZ       6.9673     YZ      -7.2996     ZZ    -186.0886

 Total job time:  301.17s(wall), 9740.14s(cpu)
        *  Thank you very much for using Q-Chem.  Have a nice day.  *
