 Q-Chem 5.4, Q-Chem, Inc., Pleasanton, CA (2021)
 Q-Chem 5.4.0 for Intel X86 EM64T Linux

User input:
--------------------------------------------------------------
$molecule
0 1
C	-0.270358	-8.517702	0.172904
C	0.548363	-7.641575	-0.524688
S	-1.445750	-7.638634	1.180599
C	0.259951	-6.264785	-0.282727
H	1.347559	-7.966081	-1.203014
C	-0.833868	-6.072714	0.632972
C	-1.248701	-4.787049	1.013580
C	0.965673	-5.162801	-0.845068
C	0.553357	-3.874817	-0.460946
C	-0.543470	-3.683952	0.453541
O	1.958276	-5.499772	-1.714812
O	-2.245053	-4.459055	1.888193
C	-3.360989	-5.329063	2.033848
H	-4.130667	-4.755694	2.584788
H	-3.112380	-6.238095	2.624118
H	-3.770895	-5.637262	1.047748
C	2.994272	-4.572261	-2.013896
H	3.763700	-5.139743	-2.570853
H	3.448815	-4.153131	-1.090625
H	2.636780	-3.739531	-2.657717
C	-0.827659	-2.306654	0.694943
S	1.174750	-2.306501	-0.999993
C	-0.000000	-1.435185	-0.000000
H	-1.627541	-1.978138	1.370385
H	-0.269836	-9.614033	0.177122
C	0.000000	0.000000	0.000000
S	0.382799	0.819795	1.507541
C	1.046687	2.245325	0.718873
C	0.382918	0.819389	-1.067872
C	0.968323	2.080267	-0.686410
S	0.282561	0.597432	-2.805516
C	1.017839	2.187324	-3.054530
C	1.314960	2.830306	-1.862551
F	1.875498	4.043751	-1.819088
C	1.208895	2.592573	-4.456084
O	0.890778	1.891482	-5.406510
O	1.772886	3.819715	-4.569225
C	1.986852	4.266207	-5.916207
H	2.445834	5.267032	-5.833064
H	1.028114	4.323448	-6.470168
H	2.661066	3.573494	-6.459293
H	1.436015	3.083584	1.306486
$end

$rem
JOBTYPE		SP
EXCHANGE	HF
CORRELATION	pRIMP2
BASIS		cc-pvtz
METHOD		rimp2
AUX_BASIS	rimp2-cc-pvtz
SOLVENT_METHOD	PCM
PURECART	11111
SYMMETRY	false
MEM_TOTAL	110000
SCF_CONVERGENCE = 6
THRESH=10
GUI = 2
$end

$solvent
dielectric 4.90
$end
--------------------------------------------------------------

             Standard Nuclear Orientation (Angstroms)
    I     Atom           X                Y                Z
 ----------------------------------------------------------------
    1      C      -0.2703580000    -8.5177020000     0.1729040000
    2      C       0.5483630000    -7.6415750000    -0.5246880000
    3      S      -1.4457500000    -7.6386340000     1.1805990000
    4      C       0.2599510000    -6.2647850000    -0.2827270000
    5      H       1.3475590000    -7.9660810000    -1.2030140000
    6      C      -0.8338680000    -6.0727140000     0.6329720000
    7      C      -1.2487010000    -4.7870490000     1.0135800000
    8      C       0.9656730000    -5.1628010000    -0.8450680000
    9      C       0.5533570000    -3.8748170000    -0.4609460000
   10      C      -0.5434700000    -3.6839520000     0.4535410000
   11      O       1.9582760000    -5.4997720000    -1.7148120000
   12      O      -2.2450530000    -4.4590550000     1.8881930000
   13      C      -3.3609890000    -5.3290630000     2.0338480000
   14      H      -4.1306670000    -4.7556940000     2.5847880000
   15      H      -3.1123800000    -6.2380950000     2.6241180000
   16      H      -3.7708950000    -5.6372620000     1.0477480000
   17      C       2.9942720000    -4.5722610000    -2.0138960000
   18      H       3.7637000000    -5.1397430000    -2.5708530000
   19      H       3.4488150000    -4.1531310000    -1.0906250000
   20      H       2.6367800000    -3.7395310000    -2.6577170000
   21      C      -0.8276590000    -2.3066540000     0.6949430000
   22      S       1.1747500000    -2.3065010000    -0.9999930000
   23      C       0.0000000000    -1.4351850000     0.0000000000
   24      H      -1.6275410000    -1.9781380000     1.3703850000
   25      H      -0.2698360000    -9.6140330000     0.1771220000
   26      C       0.0000000000     0.0000000000     0.0000000000
   27      S       0.3827990000     0.8197950000     1.5075410000
   28      C       1.0466870000     2.2453250000     0.7188730000
   29      C       0.3829180000     0.8193890000    -1.0678720000
   30      C       0.9683230000     2.0802670000    -0.6864100000
   31      S       0.2825610000     0.5974320000    -2.8055160000
   32      C       1.0178390000     2.1873240000    -3.0545300000
   33      C       1.3149600000     2.8303060000    -1.8625510000
   34      F       1.8754980000     4.0437510000    -1.8190880000
   35      C       1.2088950000     2.5925730000    -4.4560840000
   36      O       0.8907780000     1.8914820000    -5.4065100000
   37      O       1.7728860000     3.8197150000    -4.5692250000
   38      C       1.9868520000     4.2662070000    -5.9162070000
   39      H       2.4458340000     5.2670320000    -5.8330640000
   40      H       1.0281140000     4.3234480000    -6.4701680000
   41      H       2.6610660000     3.5734940000    -6.4592930000
   42      H       1.4360150000     3.0835840000     1.3064860000
 ----------------------------------------------------------------

   10   -2754.3048082561      7.49e-07  Convergence criterion met
 Total energy in the final basis set =    -2754.3048082561
        RIMP2         total energy =     -2759.3586869709 a.u.

                    Orbital Energies (a.u.)
 --------------------------------------------------------------

 Alpha MOs
 -- Occupied --
-92.0149 -91.9988 -91.9885 -91.9859 -26.3432 -20.6146 -20.5919 -20.5909
-20.5610 -11.4092 -11.3822 -11.3188 -11.3167 -11.3128 -11.3023 -11.2970
-11.2941 -11.2928 -11.2887 -11.2865 -11.2859 -11.2850 -11.2848 -11.2835
-11.2791 -11.2600 -11.2580 -11.2535 -11.2496  -9.0134  -8.9988  -8.9889
 -8.9858  -6.6941  -6.6934  -6.6929  -6.6798  -6.6791  -6.6779  -6.6699
 -6.6692  -6.6682  -6.6668  -6.6662  -6.6653  -1.6603  -1.4671  -1.4160
 -1.4137  -1.3697  -1.2226  -1.1935  -1.1649  -1.1361  -1.0846  -1.0513
 -1.0414  -1.0232  -1.0010  -0.9872  -0.9635  -0.9585  -0.9498  -0.9395
 -0.8953  -0.8677  -0.8499  -0.8130  -0.7919  -0.7867  -0.7858  -0.7647
 -0.7551  -0.7332  -0.7252  -0.7098  -0.6991  -0.6851  -0.6827  -0.6810
 -0.6737  -0.6588  -0.6576  -0.6522  -0.6299  -0.6195  -0.6166  -0.6051
 -0.5977  -0.5839  -0.5777  -0.5686  -0.5656  -0.5601  -0.5559  -0.5499
 -0.5322  -0.5302  -0.5235  -0.5161  -0.5151  -0.5077  -0.5072  -0.4962
 -0.4882  -0.4801  -0.4754  -0.4734  -0.4696  -0.4646  -0.4595  -0.4136
 -0.3982  -0.3841  -0.3557  -0.3504  -0.3233  -0.2903  -0.2546

          Ground-State Mulliken Net Atomic Charges

     Atom                 Charge (a.u.)
  ----------------------------------------
      1 C                    -0.189804
      2 C                    -0.254214
      3 S                    -0.023509
      4 C                    -0.016287
      5 H                     0.196281
      6 C                    -0.024723
      7 C                     0.235109
      8 C                     0.241009
      9 C                    -0.043478
     10 C                    -0.006510
     11 O                    -0.333216
     12 O                    -0.340248
     13 C                    -0.085765
     14 H                     0.122212
     15 H                     0.091038
     16 H                     0.094046
     17 C                    -0.088104
     18 H                     0.125299
     19 H                     0.094201
     20 H                     0.090907
     21 C                    -0.261775
     22 S                    -0.009548
     23 C                    -0.016741
     24 H                     0.195748
     25 H                     0.206161
     26 C                     0.017952
     27 S                     0.117148
     28 C                    -0.188760
     29 C                    -0.083776
     30 C                    -0.077263
     31 S                     0.028383
     32 C                    -0.154837
     33 C                     0.396825
     34 F                    -0.206984
     35 C                     0.445014
     36 O                    -0.461142
     37 O                    -0.300896
     38 C                    -0.058430
     39 H                     0.121337
     40 H                     0.095210
     41 H                     0.094980
     42 H                     0.217151
  ----------------------------------------
  Sum of atomic charges =     0.000000

                    Cartesian Multipole Moments
 -----------------------------------------------------------------
    Charge (ESU x 10^10)
                -0.0000
    Dipole Moment (Debye)
         X       1.2685      Y       1.1551      Z       2.6387
       Tot       3.1474
    Quadrupole Moments (Debye-Ang)
        XX    -179.1759     XY       7.0682     YY    -163.8775
        XZ     -13.1862     YZ      -5.4878     ZZ    -201.1095

 Total job time:  305.53s(wall), 9936.04s(cpu)
        *  Thank you very much for using Q-Chem.  Have a nice day.  *
