 Q-Chem 5.4, Q-Chem, Inc., Pleasanton, CA (2021)
 Q-Chem 5.4.0 for Intel X86 EM64T Linux

User input:
--------------------------------------------------------------
$molecule
0 1
C	-0.147685	-8.517702	0.284919
C	0.212552	-7.641575	-0.728574
S	-0.661757	-7.638634	1.745304
C	0.083761	-6.264785	-0.374824
H	0.565513	-7.966081	-1.715621
C	-0.405665	-6.072714	0.965104
C	-0.574617	-4.787049	1.502136
C	0.413763	-5.162801	-1.214687
C	0.248748	-3.874817	-0.675870
C	-0.243888	-3.683952	0.664513
O	0.838511	-5.499772	-2.464209
O	-1.000176	-4.459055	2.757750
C	-1.893778	-5.329063	3.441858
H	-2.284868	-4.755694	4.303826
H	-1.383341	-6.238095	3.828743
H	-2.741817	-5.637262	2.792824
C	1.586168	-4.572261	-3.241222
H	1.974033	-5.139743	-4.108274
H	2.441448	-4.153131	-2.668916
H	0.954660	-3.739531	-3.620041
C	-0.369302	-2.306654	1.015668
S	0.517367	-2.306501	-1.453394
C	0.000000	-1.435185	0.000000
H	-0.724300	-1.978138	2.000559
H	-0.145124	-9.614033	0.288311
C	0.000000	0.000000	0.000000
S	0.000474	0.904764	1.507541
C	-0.000295	2.477305	0.718873
C	0.000752	0.904447	-1.067872
C	-0.001560	2.294593	-0.686410
S	0.003602	0.660872	-2.805516
C	-0.001928	2.412546	-3.054530
C	-0.004381	3.120854	-1.862551
F	-0.009185	4.457503	-1.819088
C	-0.000038	2.860570	-4.456084
O	0.007944	2.090724	-5.406510
O	-0.007501	4.211092	-4.569225
C	-0.002278	4.706177	-5.916207
H	-0.009265	5.807207	-5.833064
H	-0.895381	4.352875	-6.470168
H	0.901521	4.363301	-6.459293
H	-0.001708	3.401562	1.306486
$end

$rem
JOBTYPE		SP
EXCHANGE	HF
CORRELATION	pRIMP2
BASIS		cc-pvtz
METHOD		rimp2
AUX_BASIS	rimp2-cc-pvtz
SOLVENT_METHOD	PCM
PURECART	11111
SYMMETRY	false
MEM_TOTAL	110000
SCF_CONVERGENCE = 6
THRESH=10
GUI = 2
$end

$solvent
dielectric 4.90
$end
--------------------------------------------------------------

             Standard Nuclear Orientation (Angstroms)
    I     Atom           X                Y                Z
 ----------------------------------------------------------------
    1      C      -0.1476850000    -8.5177020000     0.2849190000
    2      C       0.2125520000    -7.6415750000    -0.7285740000
    3      S      -0.6617570000    -7.6386340000     1.7453040000
    4      C       0.0837610000    -6.2647850000    -0.3748240000
    5      H       0.5655130000    -7.9660810000    -1.7156210000
    6      C      -0.4056650000    -6.0727140000     0.9651040000
    7      C      -0.5746170000    -4.7870490000     1.5021360000
    8      C       0.4137630000    -5.1628010000    -1.2146870000
    9      C       0.2487480000    -3.8748170000    -0.6758700000
   10      C      -0.2438880000    -3.6839520000     0.6645130000
   11      O       0.8385110000    -5.4997720000    -2.4642090000
   12      O      -1.0001760000    -4.4590550000     2.7577500000
   13      C      -1.8937780000    -5.3290630000     3.4418580000
   14      H      -2.2848680000    -4.7556940000     4.3038260000
   15      H      -1.3833410000    -6.2380950000     3.8287430000
   16      H      -2.7418170000    -5.6372620000     2.7928240000
   17      C       1.5861680000    -4.5722610000    -3.2412220000
   18      H       1.9740330000    -5.1397430000    -4.1082740000
   19      H       2.4414480000    -4.1531310000    -2.6689160000
   20      H       0.9546600000    -3.7395310000    -3.6200410000
   21      C      -0.3693020000    -2.3066540000     1.0156680000
   22      S       0.5173670000    -2.3065010000    -1.4533940000
   23      C       0.0000000000    -1.4351850000     0.0000000000
   24      H      -0.7243000000    -1.9781380000     2.0005590000
   25      H      -0.1451240000    -9.6140330000     0.2883110000
   26      C       0.0000000000     0.0000000000     0.0000000000
   27      S       0.0004740000     0.9047640000     1.5075410000
   28      C      -0.0002950000     2.4773050000     0.7188730000
   29      C       0.0007520000     0.9044470000    -1.0678720000
   30      C      -0.0015600000     2.2945930000    -0.6864100000
   31      S       0.0036020000     0.6608720000    -2.8055160000
   32      C      -0.0019280000     2.4125460000    -3.0545300000
   33      C      -0.0043810000     3.1208540000    -1.8625510000
   34      F      -0.0091850000     4.4575030000    -1.8190880000
   35      C      -0.0000380000     2.8605700000    -4.4560840000
   36      O       0.0079440000     2.0907240000    -5.4065100000
   37      O      -0.0075010000     4.2110920000    -4.5692250000
   38      C      -0.0022780000     4.7061770000    -5.9162070000
   39      H      -0.0092650000     5.8072070000    -5.8330640000
   40      H      -0.8953810000     4.3528750000    -6.4701680000
   41      H       0.9015210000     4.3633010000    -6.4592930000
   42      H      -0.0017080000     3.4015620000     1.3064860000
 ----------------------------------------------------------------

   10   -2754.3165497841      7.66e-07  Convergence criterion met
 Total energy in the final basis set =    -2754.3165497841
        RIMP2         total energy =     -2759.3693812135 a.u.

                    Orbital Energies (a.u.)
 --------------------------------------------------------------

 Alpha MOs
 -- Occupied --
-92.0153 -91.9983 -91.9913 -91.9864 -26.3433 -20.6147 -20.5925 -20.5915
-20.5612 -11.4093 -11.3825 -11.3201 -11.3173 -11.3100 -11.3021 -11.3002
-11.2978 -11.2973 -11.2888 -11.2868 -11.2867 -11.2863 -11.2855 -11.2845
-11.2793 -11.2624 -11.2585 -11.2555 -11.2500  -9.0138  -8.9985  -8.9919
 -8.9863  -6.6946  -6.6940  -6.6935  -6.6794  -6.6787  -6.6776  -6.6729
 -6.6722  -6.6712  -6.6673  -6.6667  -6.6658  -1.6603  -1.4672  -1.4166
 -1.4142  -1.3699  -1.2222  -1.1950  -1.1662  -1.1363  -1.0861  -1.0524
 -1.0415  -1.0239  -1.0025  -0.9884  -0.9643  -0.9586  -0.9501  -0.9409
 -0.8961  -0.8679  -0.8522  -0.8149  -0.7920  -0.7880  -0.7862  -0.7653
 -0.7554  -0.7343  -0.7252  -0.7102  -0.6991  -0.6858  -0.6837  -0.6817
 -0.6738  -0.6593  -0.6583  -0.6527  -0.6310  -0.6200  -0.6169  -0.6032
 -0.5975  -0.5853  -0.5786  -0.5701  -0.5682  -0.5596  -0.5577  -0.5536
 -0.5324  -0.5294  -0.5248  -0.5193  -0.5175  -0.5112  -0.5065  -0.4953
 -0.4877  -0.4779  -0.4773  -0.4747  -0.4697  -0.4648  -0.4596  -0.4259
 -0.3941  -0.3860  -0.3609  -0.3513  -0.3249  -0.2908  -0.2497

          Ground-State Mulliken Net Atomic Charges

     Atom                 Charge (a.u.)
  ----------------------------------------
      1 C                    -0.189841
      2 C                    -0.253367
      3 S                    -0.022551
      4 C                    -0.018503
      5 H                     0.196448
      6 C                    -0.028093
      7 C                     0.242874
      8 C                     0.244432
      9 C                    -0.038031
     10 C                    -0.018576
     11 O                    -0.332712
     12 O                    -0.340603
     13 C                    -0.085777
     14 H                     0.122310
     15 H                     0.091173
     16 H                     0.094171
     17 C                    -0.089551
     18 H                     0.126116
     19 H                     0.095160
     20 H                     0.091432
     21 C                    -0.268553
     22 S                    -0.037361
     23 C                     0.032998
     24 H                     0.188138
     25 H                     0.206307
     26 C                     0.021048
     27 S                     0.090033
     28 C                    -0.183958
     29 C                    -0.004286
     30 C                    -0.124033
     31 S                     0.002572
     32 C                    -0.163473
     33 C                     0.408001
     34 F                    -0.207074
     35 C                     0.442902
     36 O                    -0.461097
     37 O                    -0.300608
     38 C                    -0.058756
     39 H                     0.121432
     40 H                     0.095209
     41 H                     0.095055
     42 H                     0.218998
  ----------------------------------------
  Sum of atomic charges =     0.000000

                    Cartesian Multipole Moments
 -----------------------------------------------------------------
    Charge (ESU x 10^10)
                 0.0000
    Dipole Moment (Debye)
         X      -0.1605      Y       1.1292      Z       2.7124
       Tot       2.9424
    Quadrupole Moments (Debye-Ang)
        XX    -194.5764     XY       1.2303     YY    -159.8565
        XZ     -11.6151     YZ      -6.7787     ZZ    -188.6744

 Total job time:  570.89s(wall), 25241.17s(cpu)
        *  Thank you very much for using Q-Chem.  Have a nice day.  *
