 Q-Chem 5.4, Q-Chem, Inc., Pleasanton, CA (2021)
 Q-Chem 5.4.0 for Intel X86 EM64T Linux

User input:
--------------------------------------------------------------
$molecule
0 1
C	-0.306235	-8.517702	-0.095966
C	0.754415	-7.641575	0.082807
S	-1.833702	-7.638634	-0.348635
C	0.383675	-6.264785	0.017401
H	1.787757	-7.966081	0.259008
C	-1.020885	-6.072714	-0.231913
C	-1.579097	-4.787049	-0.305044
C	1.268082	-5.162801	0.196549
C	0.708796	-3.874817	0.127606
C	-0.696769	-3.683952	-0.124792
O	2.572378	-5.499772	0.397867
O	-2.889532	-4.459055	-0.506103
C	-3.718420	-5.329063	-1.267335
H	-4.635204	-4.755694	-1.502804
H	-4.010790	-6.238095	-0.697471
H	-3.226506	-5.637262	-2.215194
C	3.467415	-4.572261	0.999238
H	4.388648	-5.139743	1.230649
H	3.052323	-4.153131	1.940905
H	3.730819	-3.739531	0.311543
C	-1.064366	-2.306654	-0.187323
S	1.521154	-2.306501	0.257128
C	0.000000	-1.435185	0.000000
H	-2.095939	-1.978138	-0.365903
H	-0.309131	-9.614033	-0.092855
C	0.000000	0.000000	0.000000
S	0.693394	0.581209	1.507541
C	1.897536	1.592607	0.718873
C	0.693330	0.580791	-1.067872
C	1.756758	1.476132	-0.686410
S	0.508573	0.422041	-2.805516
C	1.846879	1.552232	-3.054530
C	2.387897	2.009402	-1.862551
F	3.408741	2.872264	-1.819088
C	2.191300	1.838768	-4.456084
O	1.606694	1.337806	-5.406510
O	3.221062	2.712584	-4.569225
C	3.603677	3.026817	-5.916207
H	4.442623	3.739898	-5.833064
H	2.758956	3.483875	-6.470168
H	3.921969	2.114070	-6.459293
H	2.604650	2.187790	1.306486
$end

$rem
JOBTYPE		SP
EXCHANGE	HF
CORRELATION	pRIMP2
BASIS		cc-pvtz
METHOD		rimp2
AUX_BASIS	rimp2-cc-pvtz
SOLVENT_METHOD	PCM
PURECART	11111
SYMMETRY	false
MEM_TOTAL	110000
SCF_CONVERGENCE = 6
THRESH=10
GUI = 2
$end

$solvent
dielectric 4.90
$end
--------------------------------------------------------------

             Standard Nuclear Orientation (Angstroms)
    I     Atom           X                Y                Z
 ----------------------------------------------------------------
    1      C      -0.3062350000    -8.5177020000    -0.0959660000
    2      C       0.7544150000    -7.6415750000     0.0828070000
    3      S      -1.8337020000    -7.6386340000    -0.3486350000
    4      C       0.3836750000    -6.2647850000     0.0174010000
    5      H       1.7877570000    -7.9660810000     0.2590080000
    6      C      -1.0208850000    -6.0727140000    -0.2319130000
    7      C      -1.5790970000    -4.7870490000    -0.3050440000
    8      C       1.2680820000    -5.1628010000     0.1965490000
    9      C       0.7087960000    -3.8748170000     0.1276060000
   10      C      -0.6967690000    -3.6839520000    -0.1247920000
   11      O       2.5723780000    -5.4997720000     0.3978670000
   12      O      -2.8895320000    -4.4590550000    -0.5061030000
   13      C      -3.7184200000    -5.3290630000    -1.2673350000
   14      H      -4.6352040000    -4.7556940000    -1.5028040000
   15      H      -4.0107900000    -6.2380950000    -0.6974710000
   16      H      -3.2265060000    -5.6372620000    -2.2151940000
   17      C       3.4674150000    -4.5722610000     0.9992380000
   18      H       4.3886480000    -5.1397430000     1.2306490000
   19      H       3.0523230000    -4.1531310000     1.9409050000
   20      H       3.7308190000    -3.7395310000     0.3115430000
   21      C      -1.0643660000    -2.3066540000    -0.1873230000
   22      S       1.5211540000    -2.3065010000     0.2571280000
   23      C       0.0000000000    -1.4351850000     0.0000000000
   24      H      -2.0959390000    -1.9781380000    -0.3659030000
   25      H      -0.3091310000    -9.6140330000    -0.0928550000
   26      C       0.0000000000     0.0000000000     0.0000000000
   27      S       0.6933940000     0.5812090000     1.5075410000
   28      C       1.8975360000     1.5926070000     0.7188730000
   29      C       0.6933300000     0.5807910000    -1.0678720000
   30      C       1.7567580000     1.4761320000    -0.6864100000
   31      S       0.5085730000     0.4220410000    -2.8055160000
   32      C       1.8468790000     1.5522320000    -3.0545300000
   33      C       2.3878970000     2.0094020000    -1.8625510000
   34      F       3.4087410000     2.8722640000    -1.8190880000
   35      C       2.1913000000     1.8387680000    -4.4560840000
   36      O       1.6066940000     1.3378060000    -5.4065100000
   37      O       3.2210620000     2.7125840000    -4.5692250000
   38      C       3.6036770000     3.0268170000    -5.9162070000
   39      H       4.4426230000     3.7398980000    -5.8330640000
   40      H       2.7589560000     3.4838750000    -6.4701680000
   41      H       3.9219690000     2.1140700000    -6.4592930000
   42      H       2.6046500000     2.1877900000     1.3064860000
 ----------------------------------------------------------------

   10   -2754.2701145420      9.12e-07  Convergence criterion met
 Total energy in the final basis set =    -2754.2701145420
        RIMP2         total energy =     -2759.3296333087 a.u.

                    Orbital Energies (a.u.)
 --------------------------------------------------------------

 Alpha MOs
 -- Occupied --
-92.0127 -92.0053 -91.9847 -91.9829 -26.3451 -20.6150 -20.5911 -20.5892
-20.5613 -11.4098 -11.3853 -11.3274 -11.3170 -11.3146 -11.3144 -11.2976
-11.2890 -11.2885 -11.2865 -11.2865 -11.2847 -11.2824 -11.2818 -11.2778
-11.2748 -11.2565 -11.2562 -11.2486 -11.2469  -9.0119  -9.0050  -8.9846
 -8.9838  -6.6926  -6.6917  -6.6914  -6.6859  -6.6852  -6.6842  -6.6656
 -6.6650  -6.6648  -6.6642  -6.6640  -6.6631  -1.6621  -1.4675  -1.4151
 -1.4121  -1.3702  -1.2289  -1.1912  -1.1642  -1.1384  -1.0834  -1.0493
 -1.0439  -1.0247  -0.9986  -0.9865  -0.9633  -0.9593  -0.9493  -0.9384
 -0.8938  -0.8699  -0.8456  -0.8120  -0.7942  -0.7861  -0.7838  -0.7635
 -0.7556  -0.7315  -0.7269  -0.7116  -0.6998  -0.6857  -0.6822  -0.6799
 -0.6742  -0.6591  -0.6578  -0.6511  -0.6289  -0.6183  -0.6163  -0.6075
 -0.5990  -0.5887  -0.5752  -0.5697  -0.5642  -0.5631  -0.5538  -0.5354
 -0.5327  -0.5311  -0.5206  -0.5148  -0.5138  -0.5103  -0.5032  -0.4928
 -0.4884  -0.4830  -0.4746  -0.4739  -0.4697  -0.4625  -0.4597  -0.4047
 -0.3947  -0.3843  -0.3536  -0.3525  -0.3080  -0.3046  -0.2566

          Ground-State Mulliken Net Atomic Charges

     Atom                 Charge (a.u.)
  ----------------------------------------
      1 C                    -0.192116
      2 C                    -0.254214
      3 S                    -0.024844
      4 C                    -0.017514
      5 H                     0.195667
      6 C                    -0.027789
      7 C                     0.239678
      8 C                     0.240814
      9 C                    -0.042320
     10 C                    -0.020511
     11 O                    -0.333764
     12 O                    -0.340027
     13 C                    -0.085728
     14 H                     0.122056
     15 H                     0.090435
     16 H                     0.093670
     17 C                    -0.086373
     18 H                     0.124747
     19 H                     0.093617
     20 H                     0.089337
     21 C                    -0.231468
     22 S                    -0.021372
     23 C                    -0.069983
     24 H                     0.195779
     25 H                     0.205635
     26 C                    -0.092290
     27 S                     0.119649
     28 C                    -0.141853
     29 C                     0.034148
     30 C                    -0.099401
     31 S                     0.043458
     32 C                    -0.152552
     33 C                     0.392514
     34 F                    -0.204900
     35 C                     0.448433
     36 O                    -0.462044
     37 O                    -0.301248
     38 C                    -0.058233
     39 H                     0.121313
     40 H                     0.095178
     41 H                     0.095251
     42 H                     0.219164
  ----------------------------------------
  Sum of atomic charges =     0.000000

                    Cartesian Multipole Moments
 -----------------------------------------------------------------
    Charge (ESU x 10^10)
                 0.0000
    Dipole Moment (Debye)
         X       3.1583      Y       1.4535      Z       2.5163
       Tot       4.2918
    Quadrupole Moments (Debye-Ang)
        XX    -171.2544     XY       8.5145     YY    -173.2498
        XZ       3.6701     YZ      -3.3079     ZZ    -201.0419

 Total job time:  414.27s(wall), 16127.81s(cpu)
        *  Thank you very much for using Q-Chem.  Have a nice day.  *
