 Q-Chem 5.4, Q-Chem, Inc., Pleasanton, CA (2021)
 Q-Chem 5.4.0 for Intel X86 EM64T Linux

User input:
--------------------------------------------------------------
$molecule
0 1
C	0.014560	-8.517702	0.320589
C	-0.180211	-7.641575	-0.737240
S	0.299553	-7.638634	1.842356
C	-0.114873	-6.264785	-0.366488
H	-0.368061	-7.966081	-1.768528
C	0.131236	-6.072714	1.038637
C	0.253435	-4.787049	1.588197
C	-0.249014	-5.162801	-1.258831
C	-0.122513	-3.874817	-0.709695
C	0.121043	-3.683952	0.697430
O	-0.505933	-5.499772	-2.553323
O	0.512697	-4.459055	2.888369
C	0.080869	-5.329063	3.927625
H	0.173159	-4.755694	4.869656
H	0.716363	-6.238095	4.007459
H	-0.978072	-5.637262	3.789565
C	-0.246949	-4.572261	-3.600064
H	-0.344574	-5.139743	-4.544887
H	0.779898	-4.153131	-3.532074
H	-0.983261	-3.739531	-3.612378
C	0.188009	-2.306654	1.064246
S	-0.278644	-2.306501	-1.517360
C	0.000000	-1.435185	0.000000
H	0.373017	-1.978138	2.094685
H	0.018474	-9.614033	0.322246
C	0.000000	0.000000	0.000000
S	0.000474	0.904764	1.507541
C	-0.000295	2.477305	0.718873
C	0.000752	0.904447	-1.067872
C	-0.001560	2.294593	-0.686410
S	0.003602	0.660872	-2.805516
C	-0.001928	2.412546	-3.054530
C	-0.004381	3.120854	-1.862551
F	-0.009185	4.457503	-1.819088
C	-0.000038	2.860570	-4.456084
O	0.007944	2.090724	-5.406510
O	-0.007501	4.211092	-4.569225
C	-0.002278	4.706177	-5.916207
H	-0.009265	5.807207	-5.833064
H	-0.895381	4.352875	-6.470168
H	0.901521	4.363301	-6.459293
H	-0.001708	3.401562	1.306486
$end

$rem
JOBTYPE		SP
EXCHANGE	HF
CORRELATION	pRIMP2
BASIS		cc-pvtz
METHOD		rimp2
AUX_BASIS	rimp2-cc-pvtz
SOLVENT_METHOD	PCM
PURECART	11111
SYMMETRY	false
MEM_TOTAL	110000
SCF_CONVERGENCE = 6
THRESH=10
GUI = 2
$end

$solvent
dielectric 4.90
$end
--------------------------------------------------------------

             Standard Nuclear Orientation (Angstroms)
    I     Atom           X                Y                Z
 ----------------------------------------------------------------
    1      C       0.0145600000    -8.5177020000     0.3205890000
    2      C      -0.1802110000    -7.6415750000    -0.7372400000
    3      S       0.2995530000    -7.6386340000     1.8423560000
    4      C      -0.1148730000    -6.2647850000    -0.3664880000
    5      H      -0.3680610000    -7.9660810000    -1.7685280000
    6      C       0.1312360000    -6.0727140000     1.0386370000
    7      C       0.2534350000    -4.7870490000     1.5881970000
    8      C      -0.2490140000    -5.1628010000    -1.2588310000
    9      C      -0.1225130000    -3.8748170000    -0.7096950000
   10      C       0.1210430000    -3.6839520000     0.6974300000
   11      O      -0.5059330000    -5.4997720000    -2.5533230000
   12      O       0.5126970000    -4.4590550000     2.8883690000
   13      C       0.0808690000    -5.3290630000     3.9276250000
   14      H       0.1731590000    -4.7556940000     4.8696560000
   15      H       0.7163630000    -6.2380950000     4.0074590000
   16      H      -0.9780720000    -5.6372620000     3.7895650000
   17      C      -0.2469490000    -4.5722610000    -3.6000640000
   18      H      -0.3445740000    -5.1397430000    -4.5448870000
   19      H       0.7798980000    -4.1531310000    -3.5320740000
   20      H      -0.9832610000    -3.7395310000    -3.6123780000
   21      C       0.1880090000    -2.3066540000     1.0642460000
   22      S      -0.2786440000    -2.3065010000    -1.5173600000
   23      C       0.0000000000    -1.4351850000     0.0000000000
   24      H       0.3730170000    -1.9781380000     2.0946850000
   25      H       0.0184740000    -9.6140330000     0.3222460000
   26      C       0.0000000000     0.0000000000     0.0000000000
   27      S       0.0004740000     0.9047640000     1.5075410000
   28      C      -0.0002950000     2.4773050000     0.7188730000
   29      C       0.0007520000     0.9044470000    -1.0678720000
   30      C      -0.0015600000     2.2945930000    -0.6864100000
   31      S       0.0036020000     0.6608720000    -2.8055160000
   32      C      -0.0019280000     2.4125460000    -3.0545300000
   33      C      -0.0043810000     3.1208540000    -1.8625510000
   34      F      -0.0091850000     4.4575030000    -1.8190880000
   35      C      -0.0000380000     2.8605700000    -4.4560840000
   36      O       0.0079440000     2.0907240000    -5.4065100000
   37      O      -0.0075010000     4.2110920000    -4.5692250000
   38      C      -0.0022780000     4.7061770000    -5.9162070000
   39      H      -0.0092650000     5.8072070000    -5.8330640000
   40      H      -0.8953810000     4.3528750000    -6.4701680000
   41      H       0.9015210000     4.3633010000    -6.4592930000
   42      H      -0.0017080000     3.4015620000     1.3064860000
 ----------------------------------------------------------------

   10   -2754.3162650120      7.80e-07  Convergence criterion met
 Total energy in the final basis set =    -2754.3162650120
        RIMP2         total energy =     -2759.3694985295 a.u.

                    Orbital Energies (a.u.)
 --------------------------------------------------------------

 Alpha MOs
 -- Occupied --
-92.0152 -91.9987 -91.9914 -91.9862 -26.3435 -20.6148 -20.5925 -20.5913
-20.5614 -11.4095 -11.3828 -11.3201 -11.3170 -11.3107 -11.3025 -11.3005
-11.2982 -11.2975 -11.2888 -11.2866 -11.2866 -11.2862 -11.2858 -11.2844
-11.2791 -11.2625 -11.2582 -11.2550 -11.2499  -9.0138  -8.9989  -8.9921
 -8.9862  -6.6946  -6.6941  -6.6935  -6.6799  -6.6791  -6.6780  -6.6730
 -6.6724  -6.6714  -6.6671  -6.6665  -6.6657  -1.6605  -1.4673  -1.4165
 -1.4141  -1.3700  -1.2225  -1.1950  -1.1661  -1.1366  -1.0863  -1.0523
 -1.0417  -1.0243  -1.0024  -0.9884  -0.9645  -0.9586  -0.9500  -0.9412
 -0.8961  -0.8682  -0.8523  -0.8153  -0.7921  -0.7882  -0.7859  -0.7653
 -0.7555  -0.7342  -0.7254  -0.7104  -0.6990  -0.6860  -0.6837  -0.6819
 -0.6739  -0.6593  -0.6584  -0.6526  -0.6311  -0.6199  -0.6168  -0.6030
 -0.5976  -0.5854  -0.5787  -0.5696  -0.5685  -0.5616  -0.5569  -0.5533
 -0.5326  -0.5295  -0.5232  -0.5208  -0.5185  -0.5114  -0.5063  -0.4945
 -0.4873  -0.4792  -0.4768  -0.4752  -0.4702  -0.4645  -0.4593  -0.4271
 -0.3934  -0.3862  -0.3615  -0.3517  -0.3249  -0.2912  -0.2484

          Ground-State Mulliken Net Atomic Charges

     Atom                 Charge (a.u.)
  ----------------------------------------
      1 C                    -0.190232
      2 C                    -0.253304
      3 S                    -0.022988
      4 C                    -0.016417
      5 H                     0.196435
      6 C                    -0.027264
      7 C                     0.240620
      8 C                     0.242849
      9 C                    -0.034681
     10 C                    -0.017498
     11 O                    -0.332745
     12 O                    -0.340953
     13 C                    -0.085696
     14 H                     0.122223
     15 H                     0.091312
     16 H                     0.093955
     17 C                    -0.089794
     18 H                     0.126194
     19 H                     0.095843
     20 H                     0.090650
     21 C                    -0.273308
     22 S                    -0.045980
     23 C                     0.044411
     24 H                     0.185415
     25 H                     0.206234
     26 C                     0.028212
     27 S                     0.085626
     28 C                    -0.182112
     29 C                    -0.001052
     30 C                    -0.129998
     31 S                     0.001518
     32 C                    -0.166713
     33 C                     0.413184
     34 F                    -0.207063
     35 C                     0.442424
     36 O                    -0.461309
     37 O                    -0.300611
     38 C                    -0.058778
     39 H                     0.121488
     40 H                     0.095188
     41 H                     0.095124
     42 H                     0.219590
  ----------------------------------------
  Sum of atomic charges =     0.000000

                    Cartesian Multipole Moments
 -----------------------------------------------------------------
    Charge (ESU x 10^10)
                 0.0000
    Dipole Moment (Debye)
         X      -0.2826      Y       1.2227      Z       2.7911
       Tot       3.0602
    Quadrupole Moments (Debye-Ang)
        XX    -202.1893     XY       1.4444     YY    -160.0953
        XZ      -1.4405     YZ      -7.4173     ZZ    -181.0267

 Total job time:  310.78s(wall), 9774.38s(cpu)
        *  Thank you very much for using Q-Chem.  Have a nice day.  *
