 Q-Chem 5.4, Q-Chem, Inc., Pleasanton, CA (2021)
 Q-Chem 5.4.0 for Intel X86 EM64T Linux

User input:
--------------------------------------------------------------
$molecule
0 1
C	0.172904	-8.517702	0.270358
C	-0.524688	-7.641575	-0.548363
S	1.180599	-7.638634	1.445750
C	-0.282727	-6.264785	-0.259951
H	-1.203014	-7.966081	-1.347559
C	0.632972	-6.072714	0.833868
C	1.013580	-4.787049	1.248701
C	-0.845068	-5.162801	-0.965673
C	-0.460946	-3.874817	-0.553357
C	0.453541	-3.683952	0.543470
O	-1.714812	-5.499772	-1.958276
O	1.888193	-4.459055	2.245053
C	2.033848	-5.329063	3.360989
H	2.584788	-4.755694	4.130667
H	2.624118	-6.238095	3.112380
H	1.047748	-5.637262	3.770895
C	-2.013896	-4.572261	-2.994272
H	-2.570853	-5.139743	-3.763700
H	-1.090625	-4.153131	-3.448815
H	-2.657717	-3.739531	-2.636780
C	0.694943	-2.306654	0.827659
S	-0.999993	-2.306501	-1.174750
C	-0.000000	-1.435185	-0.000000
H	1.370385	-1.978138	1.627541
H	0.177122	-9.614033	0.269836
C	0.000000	0.000000	0.000000
S	0.581934	0.692785	1.507541
C	1.592155	1.897915	0.718873
C	0.581944	0.692363	-1.067872
C	1.473741	1.758764	-0.686410
S	0.427560	0.503942	-2.805516
C	1.549278	1.849357	-3.054530
C	2.002690	2.393529	-1.862551
F	2.858191	3.420549	-1.819088
C	1.838710	2.191348	-4.456084
O	1.349977	1.596481	-5.406510
O	2.701091	3.230705	-4.569225
C	3.023327	3.606605	-5.916207
H	3.725703	4.454534	-5.833064
H	2.112072	3.910035	-6.470168
H	3.495281	2.762996	-6.459293
H	2.185174	2.606846	1.306486
$end

$rem
JOBTYPE		SP
EXCHANGE	HF
CORRELATION	pRIMP2
BASIS		cc-pvtz
METHOD		rimp2
AUX_BASIS	rimp2-cc-pvtz
SOLVENT_METHOD	PCM
PURECART	11111
SYMMETRY	false
MEM_TOTAL	110000
SCF_CONVERGENCE = 6
THRESH=10
GUI = 2
$end

$solvent
dielectric 4.90
$end
--------------------------------------------------------------

             Standard Nuclear Orientation (Angstroms)
    I     Atom           X                Y                Z
 ----------------------------------------------------------------
    1      C       0.1729040000    -8.5177020000     0.2703580000
    2      C      -0.5246880000    -7.6415750000    -0.5483630000
    3      S       1.1805990000    -7.6386340000     1.4457500000
    4      C      -0.2827270000    -6.2647850000    -0.2599510000
    5      H      -1.2030140000    -7.9660810000    -1.3475590000
    6      C       0.6329720000    -6.0727140000     0.8338680000
    7      C       1.0135800000    -4.7870490000     1.2487010000
    8      C      -0.8450680000    -5.1628010000    -0.9656730000
    9      C      -0.4609460000    -3.8748170000    -0.5533570000
   10      C       0.4535410000    -3.6839520000     0.5434700000
   11      O      -1.7148120000    -5.4997720000    -1.9582760000
   12      O       1.8881930000    -4.4590550000     2.2450530000
   13      C       2.0338480000    -5.3290630000     3.3609890000
   14      H       2.5847880000    -4.7556940000     4.1306670000
   15      H       2.6241180000    -6.2380950000     3.1123800000
   16      H       1.0477480000    -5.6372620000     3.7708950000
   17      C      -2.0138960000    -4.5722610000    -2.9942720000
   18      H      -2.5708530000    -5.1397430000    -3.7637000000
   19      H      -1.0906250000    -4.1531310000    -3.4488150000
   20      H      -2.6577170000    -3.7395310000    -2.6367800000
   21      C       0.6949430000    -2.3066540000     0.8276590000
   22      S      -0.9999930000    -2.3065010000    -1.1747500000
   23      C       0.0000000000    -1.4351850000     0.0000000000
   24      H       1.3703850000    -1.9781380000     1.6275410000
   25      H       0.1771220000    -9.6140330000     0.2698360000
   26      C       0.0000000000     0.0000000000     0.0000000000
   27      S       0.5819340000     0.6927850000     1.5075410000
   28      C       1.5921550000     1.8979150000     0.7188730000
   29      C       0.5819440000     0.6923630000    -1.0678720000
   30      C       1.4737410000     1.7587640000    -0.6864100000
   31      S       0.4275600000     0.5039420000    -2.8055160000
   32      C       1.5492780000     1.8493570000    -3.0545300000
   33      C       2.0026900000     2.3935290000    -1.8625510000
   34      F       2.8581910000     3.4205490000    -1.8190880000
   35      C       1.8387100000     2.1913480000    -4.4560840000
   36      O       1.3499770000     1.5964810000    -5.4065100000
   37      O       2.7010910000     3.2307050000    -4.5692250000
   38      C       3.0233270000     3.6066050000    -5.9162070000
   39      H       3.7257030000     4.4545340000    -5.8330640000
   40      H       2.1120720000     3.9100350000    -6.4701680000
   41      H       3.4952810000     2.7629960000    -6.4592930000
   42      H       2.1851740000     2.6068460000     1.3064860000
 ----------------------------------------------------------------

   10   -2754.2886897053      7.43e-07  Convergence criterion met
 Total energy in the final basis set =    -2754.2886897053
        RIMP2         total energy =     -2759.3463807741 a.u.

                    Orbital Energies (a.u.)
 --------------------------------------------------------------

 Alpha MOs
 -- Occupied --
-92.0149 -92.0036 -91.9870 -91.9846 -26.3447 -20.6151 -20.5913 -20.5892
-20.5615 -11.4099 -11.3845 -11.3218 -11.3181 -11.3134 -11.3117 -11.2976
-11.2974 -11.2891 -11.2880 -11.2870 -11.2860 -11.2851 -11.2824 -11.2824
-11.2768 -11.2591 -11.2550 -11.2486 -11.2466  -9.0137  -9.0034  -8.9876
 -8.9845  -6.6944  -6.6937  -6.6933  -6.6844  -6.6836  -6.6826  -6.6686
 -6.6679  -6.6670  -6.6655  -6.6649  -6.6640  -1.6617  -1.4676  -1.4153
 -1.4120  -1.3703  -1.2271  -1.1922  -1.1647  -1.1381  -1.0848  -1.0497
 -1.0436  -1.0254  -0.9993  -0.9873  -0.9647  -0.9576  -0.9488  -0.9408
 -0.8937  -0.8697  -0.8474  -0.8159  -0.7929  -0.7856  -0.7854  -0.7637
 -0.7556  -0.7317  -0.7265  -0.7114  -0.6986  -0.6859  -0.6825  -0.6810
 -0.6742  -0.6590  -0.6575  -0.6512  -0.6295  -0.6184  -0.6154  -0.6045
 -0.6008  -0.5891  -0.5762  -0.5672  -0.5664  -0.5648  -0.5539  -0.5504
 -0.5315  -0.5259  -0.5213  -0.5159  -0.5145  -0.5112  -0.5047  -0.4933
 -0.4880  -0.4807  -0.4758  -0.4735  -0.4690  -0.4634  -0.4583  -0.4199
 -0.3916  -0.3850  -0.3613  -0.3480  -0.3216  -0.2943  -0.2507

          Ground-State Mulliken Net Atomic Charges

     Atom                 Charge (a.u.)
  ----------------------------------------
      1 C                    -0.194748
      2 C                    -0.253097
      3 S                    -0.025916
      4 C                    -0.020060
      5 H                     0.195810
      6 C                    -0.025381
      7 C                     0.232975
      8 C                     0.245560
      9 C                    -0.041520
     10 C                    -0.013564
     11 O                    -0.333331
     12 O                    -0.341603
     13 C                    -0.085677
     14 H                     0.121439
     15 H                     0.090862
     16 H                     0.093152
     17 C                    -0.087711
     18 H                     0.124804
     19 H                     0.095375
     20 H                     0.089675
     21 C                    -0.275184
     22 S                    -0.024243
     23 C                    -0.003015
     24 H                     0.194510
     25 H                     0.205320
     26 C                    -0.068578
     27 S                     0.095402
     28 C                    -0.151036
     29 C                     0.047340
     30 C                    -0.110867
     31 S                     0.031548
     32 C                    -0.155592
     33 C                     0.395188
     34 F                    -0.205180
     35 C                     0.447141
     36 O                    -0.461675
     37 O                    -0.301185
     38 C                    -0.058382
     39 H                     0.121411
     40 H                     0.095154
     41 H                     0.095212
     42 H                     0.219665
  ----------------------------------------
  Sum of atomic charges =     0.000000

                    Cartesian Multipole Moments
 -----------------------------------------------------------------
    Charge (ESU x 10^10)
                 0.0000
    Dipole Moment (Debye)
         X       1.8788      Y       1.8705      Z       2.6468
       Tot       3.7462
    Quadrupole Moments (Debye-Ang)
        XX    -190.2690     XY       9.9654     YY    -171.7346
        XZ       5.1825     YZ      -5.8174     ZZ    -185.6718

 Total job time:  303.79s(wall), 8965.63s(cpu)
        *  Thank you very much for using Q-Chem.  Have a nice day.  *
