 Q-Chem 5.4, Q-Chem, Inc., Pleasanton, CA (2021)
 Q-Chem 5.4.0 for Intel X86 EM64T Linux

User input:
--------------------------------------------------------------
$molecule
0 1
C	0.320589	-8.517702	-0.014560
C	-0.737240	-7.641575	0.180211
S	1.842356	-7.638634	-0.299553
C	-0.366488	-6.264785	0.114873
H	-1.768528	-7.966081	0.368061
C	1.038637	-6.072714	-0.131236
C	1.588197	-4.787049	-0.253435
C	-1.258831	-5.162801	0.249014
C	-0.709695	-3.874817	0.122513
C	0.697430	-3.683952	-0.121043
O	-2.553323	-5.499772	0.505933
O	2.888369	-4.459055	-0.512697
C	3.927625	-5.329063	-0.080869
H	4.869656	-4.755694	-0.173159
H	4.007459	-6.238095	-0.716363
H	3.789565	-5.637262	0.978072
C	-3.600064	-4.572261	0.246949
H	-4.544887	-5.139743	0.344574
H	-3.532074	-4.153131	-0.779898
H	-3.612378	-3.739531	0.983261
C	1.064246	-2.306654	-0.188009
S	-1.517360	-2.306501	0.278644
C	-0.000000	-1.435185	-0.000000
H	2.094685	-1.978138	-0.373017
H	0.322246	-9.614033	-0.018474
C	0.000000	0.000000	0.000000
S	0.079327	0.901280	1.507541
C	0.215617	2.467903	0.718873
C	0.079577	0.900940	-1.067872
C	0.198433	2.285998	-0.686410
S	0.061187	0.658044	-2.805516
C	0.208347	2.403534	-3.054530
C	0.267636	3.109360	-1.862551
F	0.379347	4.441341	-1.819088
C	0.249278	2.849688	-4.456084
O	0.190132	2.082076	-5.406510
O	0.359548	4.195721	-4.569225
C	0.407901	4.688467	-5.916207
H	0.496901	5.785916	-5.833064
H	-0.512596	4.414348	-6.470168
H	1.278377	4.268124	-6.459293
H	0.294764	3.388767	1.306486
$end

$rem
JOBTYPE		SP
EXCHANGE	HF
CORRELATION	pRIMP2
BASIS		cc-pvtz
METHOD		rimp2
AUX_BASIS	rimp2-cc-pvtz
SOLVENT_METHOD	PCM
PURECART	11111
SYMMETRY	false
MEM_TOTAL	110000
SCF_CONVERGENCE = 6
THRESH=10
GUI = 2
$end

$solvent
dielectric 4.90
$end
--------------------------------------------------------------

             Standard Nuclear Orientation (Angstroms)
    I     Atom           X                Y                Z
 ----------------------------------------------------------------
    1      C       0.3205890000    -8.5177020000    -0.0145600000
    2      C      -0.7372400000    -7.6415750000     0.1802110000
    3      S       1.8423560000    -7.6386340000    -0.2995530000
    4      C      -0.3664880000    -6.2647850000     0.1148730000
    5      H      -1.7685280000    -7.9660810000     0.3680610000
    6      C       1.0386370000    -6.0727140000    -0.1312360000
    7      C       1.5881970000    -4.7870490000    -0.2534350000
    8      C      -1.2588310000    -5.1628010000     0.2490140000
    9      C      -0.7096950000    -3.8748170000     0.1225130000
   10      C       0.6974300000    -3.6839520000    -0.1210430000
   11      O      -2.5533230000    -5.4997720000     0.5059330000
   12      O       2.8883690000    -4.4590550000    -0.5126970000
   13      C       3.9276250000    -5.3290630000    -0.0808690000
   14      H       4.8696560000    -4.7556940000    -0.1731590000
   15      H       4.0074590000    -6.2380950000    -0.7163630000
   16      H       3.7895650000    -5.6372620000     0.9780720000
   17      C      -3.6000640000    -4.5722610000     0.2469490000
   18      H      -4.5448870000    -5.1397430000     0.3445740000
   19      H      -3.5320740000    -4.1531310000    -0.7798980000
   20      H      -3.6123780000    -3.7395310000     0.9832610000
   21      C       1.0642460000    -2.3066540000    -0.1880090000
   22      S      -1.5173600000    -2.3065010000     0.2786440000
   23      C       0.0000000000    -1.4351850000     0.0000000000
   24      H       2.0946850000    -1.9781380000    -0.3730170000
   25      H       0.3222460000    -9.6140330000    -0.0184740000
   26      C       0.0000000000     0.0000000000     0.0000000000
   27      S       0.0793270000     0.9012800000     1.5075410000
   28      C       0.2156170000     2.4679030000     0.7188730000
   29      C       0.0795770000     0.9009400000    -1.0678720000
   30      C       0.1984330000     2.2859980000    -0.6864100000
   31      S       0.0611870000     0.6580440000    -2.8055160000
   32      C       0.2083470000     2.4035340000    -3.0545300000
   33      C       0.2676360000     3.1093600000    -1.8625510000
   34      F       0.3793470000     4.4413410000    -1.8190880000
   35      C       0.2492780000     2.8496880000    -4.4560840000
   36      O       0.1901320000     2.0820760000    -5.4065100000
   37      O       0.3595480000     4.1957210000    -4.5692250000
   38      C       0.4079010000     4.6884670000    -5.9162070000
   39      H       0.4969010000     5.7859160000    -5.8330640000
   40      H      -0.5125960000     4.4143480000    -6.4701680000
   41      H       1.2783770000     4.2681240000    -6.4592930000
   42      H       0.2947640000     3.3887670000     1.3064860000
 ----------------------------------------------------------------

   10   -2754.3137106851      6.94e-07  Convergence criterion met
 Total energy in the final basis set =    -2754.3137106851
        RIMP2         total energy =     -2759.3629995767 a.u.

                    Orbital Energies (a.u.)
 --------------------------------------------------------------

 Alpha MOs
 -- Occupied --
-92.0143 -91.9963 -91.9888 -91.9866 -26.3424 -20.6141 -20.5924 -20.5918
-20.5604 -11.4085 -11.3812 -11.3192 -11.3187 -11.3087 -11.3001 -11.2965
-11.2961 -11.2916 -11.2884 -11.2869 -11.2863 -11.2863 -11.2841 -11.2832
-11.2803 -11.2606 -11.2596 -11.2587 -11.2501  -9.0127  -8.9963  -8.9892
 -8.9865  -6.6935  -6.6929  -6.6924  -6.6773  -6.6766  -6.6755  -6.6701
 -6.6694  -6.6685  -6.6675  -6.6668  -6.6660  -1.6595  -1.4665  -1.4165
 -1.4146  -1.3692  -1.2196  -1.1945  -1.1653  -1.1347  -1.0843  -1.0521
 -1.0404  -1.0215  -1.0017  -0.9877  -0.9610  -0.9608  -0.9503  -0.9385
 -0.8958  -0.8665  -0.8513  -0.8087  -0.7943  -0.7884  -0.7864  -0.7648
 -0.7547  -0.7340  -0.7244  -0.7088  -0.7009  -0.6844  -0.6833  -0.6799
 -0.6732  -0.6593  -0.6569  -0.6528  -0.6304  -0.6202  -0.6173  -0.6046
 -0.5967  -0.5846  -0.5773  -0.5701  -0.5668  -0.5614  -0.5541  -0.5503
 -0.5318  -0.5304  -0.5241  -0.5164  -0.5148  -0.5083  -0.5039  -0.4947
 -0.4895  -0.4787  -0.4751  -0.4728  -0.4696  -0.4666  -0.4610  -0.4062
 -0.3967  -0.3873  -0.3575  -0.3483  -0.3150  -0.2978  -0.2591

          Ground-State Mulliken Net Atomic Charges

     Atom                 Charge (a.u.)
  ----------------------------------------
      1 C                    -0.187397
      2 C                    -0.254174
      3 S                    -0.021595
      4 C                    -0.013473
      5 H                     0.196471
      6 C                    -0.028146
      7 C                     0.243978
      8 C                     0.239280
      9 C                    -0.050242
     10 C                    -0.030081
     11 O                    -0.333440
     12 O                    -0.339546
     13 C                    -0.085825
     14 H                     0.122818
     15 H                     0.091326
     16 H                     0.093892
     17 C                    -0.086442
     18 H                     0.124590
     19 H                     0.095234
     20 H                     0.089615
     21 C                    -0.207982
     22 S                     0.001492
     23 C                    -0.045108
     24 H                     0.198349
     25 H                     0.206582
     26 C                    -0.041004
     27 S                     0.108201
     28 C                    -0.186134
     29 C                     0.015234
     30 C                    -0.107904
     31 S                     0.007305
     32 C                    -0.154733
     33 C                     0.392669
     34 F                    -0.207263
     35 C                     0.445411
     36 O                    -0.461272
     37 O                    -0.300630
     38 C                    -0.058659
     39 H                     0.121162
     40 H                     0.095045
     41 H                     0.094951
     42 H                     0.217444
  ----------------------------------------
  Sum of atomic charges =     0.000000

                    Cartesian Multipole Moments
 -----------------------------------------------------------------
    Charge (ESU x 10^10)
                -0.0000
    Dipole Moment (Debye)
         X       0.2698      Y       0.7936      Z       3.3001
       Tot       3.4049
    Quadrupole Moments (Debye-Ang)
        XX    -176.7830     XY       0.5510     YY    -159.1509
        XZ       0.9545     YZ      -8.5400     ZZ    -206.8018

 Total job time:  289.69s(wall), 9287.67s(cpu)
        *  Thank you very much for using Q-Chem.  Have a nice day.  *
