 Q-Chem 5.4, Q-Chem, Inc., Pleasanton, CA (2021)
 Q-Chem 5.4.0 for Intel X86 EM64T Linux

User input:
--------------------------------------------------------------
$molecule
0 1
C	0.313191	-8.517702	-0.070009
C	-0.694746	-7.641575	0.305494
S	1.762350	-7.638634	-0.614924
C	-0.340973	-6.264785	0.176768
H	-1.677747	-7.966081	0.669571
C	1.000069	-6.072714	-0.309600
C	1.520060	-4.787049	-0.525372
C	-1.196466	-5.162801	0.463825
C	-0.677639	-3.874817	0.243888
C	0.665815	-3.683952	-0.240312
O	-2.426678	-5.499772	0.941626
O	2.755460	-4.459055	-1.006468
C	3.853913	-5.329063	-0.761666
H	4.765607	-4.755694	-1.016135
H	3.822182	-6.238095	-1.401368
H	3.901833	-5.637262	0.305161
C	-3.502489	-4.572261	0.868342
H	-4.416005	-5.139743	1.128551
H	-3.613841	-4.153131	-0.154712
H	-3.386756	-3.739531	1.595605
C	1.015430	-2.306654	-0.369957
S	-1.445922	-2.306501	0.537898
C	0.000000	-1.435185	0.000000
H	1.998088	-1.978138	-0.731088
H	0.314143	-9.614033	-0.074151
C	0.000000	0.000000	0.000000
S	0.234628	0.873813	1.507541
C	0.640889	2.392969	0.718873
C	0.234815	0.873434	-1.067872
C	0.592377	2.216811	-0.686410
S	0.174526	0.637422	-2.805516
C	0.622551	2.330840	-3.054530
C	0.803505	3.015647	-1.862551
F	1.144815	4.307994	-1.819088
C	0.740334	2.763108	-4.456084
O	0.548793	2.017428	-5.406510
O	1.082665	4.069544	-4.569225
C	1.215848	4.546407	-5.916207
H	1.494066	5.611729	-5.833064
H	0.261736	4.436296	-6.470168
H	2.000108	3.981294	-6.459293
H	0.878739	3.286099	1.306486
$end

$rem
JOBTYPE		SP
EXCHANGE	HF
CORRELATION	pRIMP2
BASIS		cc-pvtz
METHOD		rimp2
AUX_BASIS	rimp2-cc-pvtz
SOLVENT_METHOD	PCM
PURECART	11111
SYMMETRY	false
MEM_TOTAL	110000
SCF_CONVERGENCE = 6
THRESH=10
GUI = 2
$end

$solvent
dielectric 4.90
$end
--------------------------------------------------------------

             Standard Nuclear Orientation (Angstroms)
    I     Atom           X                Y                Z
 ----------------------------------------------------------------
    1      C       0.3131910000    -8.5177020000    -0.0700090000
    2      C      -0.6947460000    -7.6415750000     0.3054940000
    3      S       1.7623500000    -7.6386340000    -0.6149240000
    4      C      -0.3409730000    -6.2647850000     0.1767680000
    5      H      -1.6777470000    -7.9660810000     0.6695710000
    6      C       1.0000690000    -6.0727140000    -0.3096000000
    7      C       1.5200600000    -4.7870490000    -0.5253720000
    8      C      -1.1964660000    -5.1628010000     0.4638250000
    9      C      -0.6776390000    -3.8748170000     0.2438880000
   10      C       0.6658150000    -3.6839520000    -0.2403120000
   11      O      -2.4266780000    -5.4997720000     0.9416260000
   12      O       2.7554600000    -4.4590550000    -1.0064680000
   13      C       3.8539130000    -5.3290630000    -0.7616660000
   14      H       4.7656070000    -4.7556940000    -1.0161350000
   15      H       3.8221820000    -6.2380950000    -1.4013680000
   16      H       3.9018330000    -5.6372620000     0.3051610000
   17      C      -3.5024890000    -4.5722610000     0.8683420000
   18      H      -4.4160050000    -5.1397430000     1.1285510000
   19      H      -3.6138410000    -4.1531310000    -0.1547120000
   20      H      -3.3867560000    -3.7395310000     1.5956050000
   21      C       1.0154300000    -2.3066540000    -0.3699570000
   22      S      -1.4459220000    -2.3065010000     0.5378980000
   23      C       0.0000000000    -1.4351850000     0.0000000000
   24      H       1.9980880000    -1.9781380000    -0.7310880000
   25      H       0.3141430000    -9.6140330000    -0.0741510000
   26      C       0.0000000000     0.0000000000     0.0000000000
   27      S       0.2346280000     0.8738130000     1.5075410000
   28      C       0.6408890000     2.3929690000     0.7188730000
   29      C       0.2348150000     0.8734340000    -1.0678720000
   30      C       0.5923770000     2.2168110000    -0.6864100000
   31      S       0.1745260000     0.6374220000    -2.8055160000
   32      C       0.6225510000     2.3308400000    -3.0545300000
   33      C       0.8035050000     3.0156470000    -1.8625510000
   34      F       1.1448150000     4.3079940000    -1.8190880000
   35      C       0.7403340000     2.7631080000    -4.4560840000
   36      O       0.5487930000     2.0174280000    -5.4065100000
   37      O       1.0826650000     4.0695440000    -4.5692250000
   38      C       1.2158480000     4.5464070000    -5.9162070000
   39      H       1.4940660000     5.6117290000    -5.8330640000
   40      H       0.2617360000     4.4362960000    -6.4701680000
   41      H       2.0001080000     3.9812940000    -6.4592930000
   42      H       0.8787390000     3.2860990000     1.3064860000
 ----------------------------------------------------------------

   10   -2754.3108465649      7.15e-07  Convergence criterion met
 Total energy in the final basis set =    -2754.3108465649
        RIMP2         total energy =     -2759.3612639570 a.u.

                    Orbital Energies (a.u.)
 --------------------------------------------------------------

 Alpha MOs
 -- Occupied --
-92.0142 -91.9969 -91.9883 -91.9864 -26.3426 -20.6142 -20.5924 -20.5915
-20.5605 -11.4086 -11.3815 -11.3191 -11.3183 -11.3104 -11.3011 -11.2964
-11.2953 -11.2921 -11.2885 -11.2870 -11.2861 -11.2859 -11.2840 -11.2837
-11.2800 -11.2606 -11.2592 -11.2577 -11.2500  -9.0127  -8.9969  -8.9888
 -8.9863  -6.6934  -6.6929  -6.6923  -6.6779  -6.6772  -6.6761  -6.6697
 -6.6690  -6.6681  -6.6673  -6.6667  -6.6658  -1.6598  -1.4667  -1.4165
 -1.4143  -1.3693  -1.2203  -1.1943  -1.1652  -1.1351  -1.0843  -1.0519
 -1.0408  -1.0218  -1.0014  -0.9876  -0.9615  -0.9605  -0.9503  -0.9387
 -0.8956  -0.8668  -0.8508  -0.8084  -0.7955  -0.7880  -0.7864  -0.7646
 -0.7548  -0.7338  -0.7246  -0.7091  -0.7012  -0.6845  -0.6831  -0.6800
 -0.6734  -0.6592  -0.6571  -0.6526  -0.6302  -0.6201  -0.6172  -0.6047
 -0.5971  -0.5842  -0.5769  -0.5705  -0.5666  -0.5614  -0.5534  -0.5512
 -0.5311  -0.5303  -0.5241  -0.5162  -0.5148  -0.5082  -0.5042  -0.4950
 -0.4890  -0.4793  -0.4750  -0.4730  -0.4692  -0.4666  -0.4608  -0.4082
 -0.3960  -0.3870  -0.3576  -0.3487  -0.3174  -0.2960  -0.2578

          Ground-State Mulliken Net Atomic Charges

     Atom                 Charge (a.u.)
  ----------------------------------------
      1 C                    -0.187990
      2 C                    -0.254193
      3 S                    -0.021755
      4 C                    -0.014987
      5 H                     0.196334
      6 C                    -0.028703
      7 C                     0.241777
      8 C                     0.242275
      9 C                    -0.052924
     10 C                    -0.022696
     11 O                    -0.333547
     12 O                    -0.339522
     13 C                    -0.085800
     14 H                     0.122765
     15 H                     0.091285
     16 H                     0.093745
     17 C                    -0.086325
     18 H                     0.124738
     19 H                     0.095014
     20 H                     0.089387
     21 C                    -0.207738
     22 S                    -0.001634
     23 C                    -0.028150
     24 H                     0.200081
     25 H                     0.206466
     26 C                    -0.050498
     27 S                     0.108182
     28 C                    -0.184829
     29 C                    -0.012789
     30 C                    -0.095875
     31 S                     0.013369
     32 C                    -0.154113
     33 C                     0.391434
     34 F                    -0.207115
     35 C                     0.445808
     36 O                    -0.461191
     37 O                    -0.300751
     38 C                    -0.058460
     39 H                     0.121170
     40 H                     0.095044
     41 H                     0.094969
     42 H                     0.217746
  ----------------------------------------
  Sum of atomic charges =     0.000000

                    Cartesian Multipole Moments
 -----------------------------------------------------------------
    Charge (ESU x 10^10)
                 0.0000
    Dipole Moment (Debye)
         X       0.8133      Y       0.8962      Z       3.2541
       Tot       3.4718
    Quadrupole Moments (Debye-Ang)
        XX    -176.1390     XY       2.9953     YY    -160.5749
        XZ      -4.6889     YZ      -8.1652     ZZ    -206.4141

 Total job time:  326.16s(wall), 11115.09s(cpu)
        *  Thank you very much for using Q-Chem.  Have a nice day.  *
