 Q-Chem 5.4, Q-Chem, Inc., Pleasanton, CA (2021)
 Q-Chem 5.4.0 for Intel X86 EM64T Linux

User input:
--------------------------------------------------------------
$molecule
0 1
C	0.318247	-8.517702	0.041330
C	-0.757333	-7.641575	0.049453
S	1.866383	-7.638634	0.024919
C	-0.380867	-6.264785	0.049488
H	-1.805573	-7.966081	0.055368
C	1.045647	-6.072714	0.051115
C	1.608077	-4.787049	0.026203
C	-1.282948	-5.162801	0.026637
C	-0.720187	-3.874817	-0.002586
C	0.707853	-3.683952	0.001903
O	-2.602386	-5.499772	0.054867
O	2.933517	-4.459055	-0.003348
C	3.881999	-5.329063	0.602384
H	4.825744	-4.755694	0.675079
H	4.070972	-6.238095	-0.009592
H	3.562152	-5.637262	1.621263
C	-3.588253	-4.572261	-0.381947
H	-4.535674	-5.139743	-0.449872
H	-3.342986	-4.153131	-1.381388
H	-3.728239	-3.739531	0.341040
C	1.080725	-2.306654	-0.000348
S	-1.542694	-2.306501	0.010924
C	0.000000	-1.435185	0.000000
H	2.127635	-1.978138	-0.003612
H	0.320559	-9.614033	0.037764
C	0.000000	0.000000	0.000000
S	0.234628	0.873813	1.507541
C	0.640889	2.392969	0.718873
C	0.234815	0.873434	-1.067872
C	0.592377	2.216811	-0.686410
S	0.174526	0.637422	-2.805516
C	0.622551	2.330840	-3.054530
C	0.803505	3.015647	-1.862551
F	1.144815	4.307994	-1.819088
C	0.740334	2.763108	-4.456084
O	0.548793	2.017428	-5.406510
O	1.082665	4.069544	-4.569225
C	1.215848	4.546407	-5.916207
H	1.494066	5.611729	-5.833064
H	0.261736	4.436296	-6.470168
H	2.000108	3.981294	-6.459293
H	0.878739	3.286099	1.306486
$end

$rem
JOBTYPE		SP
EXCHANGE	HF
CORRELATION	pRIMP2
BASIS		cc-pvtz
METHOD		rimp2
AUX_BASIS	rimp2-cc-pvtz
SOLVENT_METHOD	PCM
PURECART	11111
SYMMETRY	false
MEM_TOTAL	110000
SCF_CONVERGENCE = 6
THRESH=10
GUI = 2
$end

$solvent
dielectric 4.90
$end
--------------------------------------------------------------

             Standard Nuclear Orientation (Angstroms)
    I     Atom           X                Y                Z
 ----------------------------------------------------------------
    1      C       0.3182470000    -8.5177020000     0.0413300000
    2      C      -0.7573330000    -7.6415750000     0.0494530000
    3      S       1.8663830000    -7.6386340000     0.0249190000
    4      C      -0.3808670000    -6.2647850000     0.0494880000
    5      H      -1.8055730000    -7.9660810000     0.0553680000
    6      C       1.0456470000    -6.0727140000     0.0511150000
    7      C       1.6080770000    -4.7870490000     0.0262030000
    8      C      -1.2829480000    -5.1628010000     0.0266370000
    9      C      -0.7201870000    -3.8748170000    -0.0025860000
   10      C       0.7078530000    -3.6839520000     0.0019030000
   11      O      -2.6023860000    -5.4997720000     0.0548670000
   12      O       2.9335170000    -4.4590550000    -0.0033480000
   13      C       3.8819990000    -5.3290630000     0.6023840000
   14      H       4.8257440000    -4.7556940000     0.6750790000
   15      H       4.0709720000    -6.2380950000    -0.0095920000
   16      H       3.5621520000    -5.6372620000     1.6212630000
   17      C      -3.5882530000    -4.5722610000    -0.3819470000
   18      H      -4.5356740000    -5.1397430000    -0.4498720000
   19      H      -3.3429860000    -4.1531310000    -1.3813880000
   20      H      -3.7282390000    -3.7395310000     0.3410400000
   21      C       1.0807250000    -2.3066540000    -0.0003480000
   22      S      -1.5426940000    -2.3065010000     0.0109240000
   23      C       0.0000000000    -1.4351850000     0.0000000000
   24      H       2.1276350000    -1.9781380000    -0.0036120000
   25      H       0.3205590000    -9.6140330000     0.0377640000
   26      C       0.0000000000     0.0000000000     0.0000000000
   27      S       0.2346280000     0.8738130000     1.5075410000
   28      C       0.6408890000     2.3929690000     0.7188730000
   29      C       0.2348150000     0.8734340000    -1.0678720000
   30      C       0.5923770000     2.2168110000    -0.6864100000
   31      S       0.1745260000     0.6374220000    -2.8055160000
   32      C       0.6225510000     2.3308400000    -3.0545300000
   33      C       0.8035050000     3.0156470000    -1.8625510000
   34      F       1.1448150000     4.3079940000    -1.8190880000
   35      C       0.7403340000     2.7631080000    -4.4560840000
   36      O       0.5487930000     2.0174280000    -5.4065100000
   37      O       1.0826650000     4.0695440000    -4.5692250000
   38      C       1.2158480000     4.5464070000    -5.9162070000
   39      H       1.4940660000     5.6117290000    -5.8330640000
   40      H       0.2617360000     4.4362960000    -6.4701680000
   41      H       2.0001080000     3.9812940000    -6.4592930000
   42      H       0.8787390000     3.2860990000     1.3064860000
 ----------------------------------------------------------------

   10   -2754.3098737462      7.13e-07  Convergence criterion met
 Total energy in the final basis set =    -2754.3098737462
        RIMP2         total energy =     -2759.3601755996 a.u.

                    Orbital Energies (a.u.)
 --------------------------------------------------------------

 Alpha MOs
 -- Occupied --
-92.0144 -91.9970 -91.9878 -91.9863 -26.3427 -20.6142 -20.5921 -20.5916
-20.5604 -11.4085 -11.3815 -11.3188 -11.3183 -11.3101 -11.3012 -11.2962
-11.2945 -11.2913 -11.2884 -11.2867 -11.2863 -11.2857 -11.2838 -11.2834
-11.2800 -11.2604 -11.2591 -11.2580 -11.2499  -9.0128  -8.9970  -8.9882
 -8.9863  -6.6935  -6.6929  -6.6924  -6.6780  -6.6773  -6.6762  -6.6691
 -6.6684  -6.6675  -6.6673  -6.6666  -6.6658  -1.6598  -1.4666  -1.4163
 -1.4144  -1.3692  -1.2201  -1.1941  -1.1650  -1.1349  -1.0841  -1.0518
 -1.0406  -1.0217  -1.0012  -0.9875  -0.9612  -0.9604  -0.9501  -0.9386
 -0.8954  -0.8667  -0.8506  -0.8095  -0.7934  -0.7886  -0.7862  -0.7647
 -0.7548  -0.7337  -0.7246  -0.7091  -0.7005  -0.6845  -0.6831  -0.6800
 -0.6733  -0.6591  -0.6569  -0.6526  -0.6301  -0.6200  -0.6170  -0.6048
 -0.5970  -0.5851  -0.5764  -0.5702  -0.5668  -0.5616  -0.5537  -0.5520
 -0.5304  -0.5296  -0.5235  -0.5162  -0.5145  -0.5085  -0.5037  -0.4942
 -0.4894  -0.4790  -0.4750  -0.4728  -0.4697  -0.4658  -0.4609  -0.4043
 -0.3974  -0.3871  -0.3580  -0.3472  -0.3138  -0.2994  -0.2589

          Ground-State Mulliken Net Atomic Charges

     Atom                 Charge (a.u.)
  ----------------------------------------
      1 C                    -0.187874
      2 C                    -0.254307
      3 S                    -0.022233
      4 C                    -0.014699
      5 H                     0.196513
      6 C                    -0.028896
      7 C                     0.242128
      8 C                     0.242527
      9 C                    -0.053513
     10 C                    -0.024489
     11 O                    -0.333507
     12 O                    -0.339725
     13 C                    -0.085731
     14 H                     0.122644
     15 H                     0.091203
     16 H                     0.093784
     17 C                    -0.086185
     18 H                     0.124503
     19 H                     0.095012
     20 H                     0.089543
     21 C                    -0.200596
     22 S                     0.003388
     23 C                    -0.039160
     24 H                     0.198597
     25 H                     0.206462
     26 C                    -0.056649
     27 S                     0.109876
     28 C                    -0.185442
     29 C                     0.002644
     30 C                    -0.099861
     31 S                     0.010464
     32 C                    -0.155111
     33 C                     0.391784
     34 F                    -0.206930
     35 C                     0.446086
     36 O                    -0.461391
     37 O                    -0.300775
     38 C                    -0.058459
     39 H                     0.121142
     40 H                     0.094982
     41 H                     0.094981
     42 H                     0.217272
  ----------------------------------------
  Sum of atomic charges =     0.000000

                    Cartesian Multipole Moments
 -----------------------------------------------------------------
    Charge (ESU x 10^10)
                -0.0000
    Dipole Moment (Debye)
         X       0.7131      Y       0.9087      Z       3.2808
       Tot       3.4782
    Quadrupole Moments (Debye-Ang)
        XX    -177.2177     XY       3.4647     YY    -160.7666
        XZ       3.8986     YZ      -8.4266     ZZ    -205.3896

 Total job time:  304.24s(wall), 9367.11s(cpu)
        *  Thank you very much for using Q-Chem.  Have a nice day.  *
