 Q-Chem 5.4, Q-Chem, Inc., Pleasanton, CA (2021)
 Q-Chem 5.4.0 for Intel X86 EM64T Linux

User input:
--------------------------------------------------------------
$molecule
0 1
C	0.123330	-8.517702	0.296276
C	-0.421494	-7.641575	-0.631143
S	0.911611	-7.638634	1.628795
C	-0.233291	-6.264785	-0.305097
H	-0.950737	-7.966081	-1.535988
C	0.478557	-6.072714	0.931114
C	0.781346	-4.787049	1.405737
C	-0.664542	-5.162801	-1.097747
C	-0.357854	-3.874817	-0.624993
C	0.352278	-3.683952	0.613970
O	-1.348709	-5.499772	-2.226300
O	1.469658	-4.459055	2.538827
C	1.419319	-5.329063	3.663102
H	1.828237	-4.755694	4.516756
H	2.043793	-6.238095	3.520769
H	0.377021	-5.637262	3.895546
C	-1.463351	-4.572261	-3.298492
H	-1.878237	-5.139743	-4.152945
H	-0.475176	-4.153131	-3.585804
H	-2.159469	-3.739531	-3.058230
C	0.540664	-2.306654	0.935761
S	-0.780808	-2.306501	-1.330550
C	-0.000000	-1.435185	-0.000000
H	1.066946	-1.978138	1.840780
H	0.127575	-9.614033	0.296494
C	0.000000	0.000000	0.000000
S	0.157577	0.890937	1.507541
C	0.429889	2.439720	0.718873
C	0.157797	0.890576	-1.067872
C	0.396915	2.260004	-0.686410
S	0.118307	0.650207	-2.805516
C	0.417036	2.376229	-3.054530
C	0.537616	3.074202	-1.862551
F	0.764992	4.391378	-1.819088
C	0.496696	2.817118	-4.456084
O	0.370874	2.057582	-5.406510
O	0.723861	4.148418	-4.569225
C	0.814976	4.635075	-5.916207
H	0.999286	5.720591	-5.833064
H	-0.125909	4.442226	-6.470168
H	1.645504	4.140465	-6.459293
H	0.588993	3.350182	1.306486
$end

$rem
JOBTYPE		SP
EXCHANGE	HF
CORRELATION	pRIMP2
BASIS		cc-pvtz
METHOD		rimp2
AUX_BASIS	rimp2-cc-pvtz
SOLVENT_METHOD	PCM
PURECART	11111
SYMMETRY	false
MEM_TOTAL	110000
SCF_CONVERGENCE = 6
THRESH=10
GUI = 2
$end

$solvent
dielectric 4.90
$end
--------------------------------------------------------------

             Standard Nuclear Orientation (Angstroms)
    I     Atom           X                Y                Z
 ----------------------------------------------------------------
    1      C       0.1233300000    -8.5177020000     0.2962760000
    2      C      -0.4214940000    -7.6415750000    -0.6311430000
    3      S       0.9116110000    -7.6386340000     1.6287950000
    4      C      -0.2332910000    -6.2647850000    -0.3050970000
    5      H      -0.9507370000    -7.9660810000    -1.5359880000
    6      C       0.4785570000    -6.0727140000     0.9311140000
    7      C       0.7813460000    -4.7870490000     1.4057370000
    8      C      -0.6645420000    -5.1628010000    -1.0977470000
    9      C      -0.3578540000    -3.8748170000    -0.6249930000
   10      C       0.3522780000    -3.6839520000     0.6139700000
   11      O      -1.3487090000    -5.4997720000    -2.2263000000
   12      O       1.4696580000    -4.4590550000     2.5388270000
   13      C       1.4193190000    -5.3290630000     3.6631020000
   14      H       1.8282370000    -4.7556940000     4.5167560000
   15      H       2.0437930000    -6.2380950000     3.5207690000
   16      H       0.3770210000    -5.6372620000     3.8955460000
   17      C      -1.4633510000    -4.5722610000    -3.2984920000
   18      H      -1.8782370000    -5.1397430000    -4.1529450000
   19      H      -0.4751760000    -4.1531310000    -3.5858040000
   20      H      -2.1594690000    -3.7395310000    -3.0582300000
   21      C       0.5406640000    -2.3066540000     0.9357610000
   22      S      -0.7808080000    -2.3065010000    -1.3305500000
   23      C       0.0000000000    -1.4351850000     0.0000000000
   24      H       1.0669460000    -1.9781380000     1.8407800000
   25      H       0.1275750000    -9.6140330000     0.2964940000
   26      C       0.0000000000     0.0000000000     0.0000000000
   27      S       0.1575770000     0.8909370000     1.5075410000
   28      C       0.4298890000     2.4397200000     0.7188730000
   29      C       0.1577970000     0.8905760000    -1.0678720000
   30      C       0.3969150000     2.2600040000    -0.6864100000
   31      S       0.1183070000     0.6502070000    -2.8055160000
   32      C       0.4170360000     2.3762290000    -3.0545300000
   33      C       0.5376160000     3.0742020000    -1.8625510000
   34      F       0.7649920000     4.3913780000    -1.8190880000
   35      C       0.4966960000     2.8171180000    -4.4560840000
   36      O       0.3708740000     2.0575820000    -5.4065100000
   37      O       0.7238610000     4.1484180000    -4.5692250000
   38      C       0.8149760000     4.6350750000    -5.9162070000
   39      H       0.9992860000     5.7205910000    -5.8330640000
   40      H      -0.1259090000     4.4422260000    -6.4701680000
   41      H       1.6455040000     4.1404650000    -6.4592930000
   42      H       0.5889930000     3.3501820000     1.3064860000
 ----------------------------------------------------------------

   10   -2754.3152774822      7.30e-07  Convergence criterion met
 Total energy in the final basis set =    -2754.3152774822
        RIMP2         total energy =     -2759.3677637301 a.u.

                    Orbital Energies (a.u.)
 --------------------------------------------------------------

 Alpha MOs
 -- Occupied --
-92.0154 -91.9982 -91.9909 -91.9863 -26.3432 -20.6146 -20.5925 -20.5914
-20.5611 -11.4092 -11.3823 -11.3199 -11.3173 -11.3101 -11.3014 -11.3001
-11.2973 -11.2971 -11.2887 -11.2867 -11.2865 -11.2863 -11.2853 -11.2843
-11.2793 -11.2620 -11.2584 -11.2555 -11.2500  -9.0139  -8.9983  -8.9915
 -8.9863  -6.6947  -6.6941  -6.6935  -6.6793  -6.6785  -6.6774  -6.6724
 -6.6717  -6.6708  -6.6672  -6.6666  -6.6658  -1.6602  -1.4671  -1.4165
 -1.4142  -1.3698  -1.2220  -1.1948  -1.1660  -1.1362  -1.0858  -1.0522
 -1.0415  -1.0236  -1.0022  -0.9882  -0.9641  -0.9587  -0.9500  -0.9405
 -0.8959  -0.8678  -0.8518  -0.8143  -0.7919  -0.7876  -0.7867  -0.7652
 -0.7553  -0.7341  -0.7251  -0.7101  -0.6991  -0.6855  -0.6835  -0.6814
 -0.6737  -0.6593  -0.6580  -0.6527  -0.6307  -0.6200  -0.6168  -0.6034
 -0.5977  -0.5864  -0.5774  -0.5693  -0.5679  -0.5625  -0.5558  -0.5533
 -0.5319  -0.5294  -0.5226  -0.5186  -0.5175  -0.5106  -0.5061  -0.4946
 -0.4881  -0.4788  -0.4770  -0.4740  -0.4702  -0.4655  -0.4602  -0.4226
 -0.3946  -0.3860  -0.3602  -0.3505  -0.3242  -0.2912  -0.2513

          Ground-State Mulliken Net Atomic Charges

     Atom                 Charge (a.u.)
  ----------------------------------------
      1 C                    -0.189916
      2 C                    -0.253060
      3 S                    -0.022535
      4 C                    -0.016207
      5 H                     0.196431
      6 C                    -0.027806
      7 C                     0.239304
      8 C                     0.242857
      9 C                    -0.042452
     10 C                    -0.023617
     11 O                    -0.333095
     12 O                    -0.340658
     13 C                    -0.085608
     14 H                     0.122339
     15 H                     0.091133
     16 H                     0.093879
     17 C                    -0.088423
     18 H                     0.125407
     19 H                     0.095966
     20 H                     0.090092
     21 C                    -0.255709
     22 S                    -0.020538
     23 C                     0.007311
     24 H                     0.192829
     25 H                     0.206280
     26 C                    -0.004752
     27 S                     0.089491
     28 C                    -0.179446
     29 C                     0.017916
     30 C                    -0.122680
     31 S                     0.006066
     32 C                    -0.159678
     33 C                     0.400596
     34 F                    -0.206714
     35 C                     0.445022
     36 O                    -0.460952
     37 O                    -0.300685
     38 C                    -0.058652
     39 H                     0.121354
     40 H                     0.095071
     41 H                     0.095090
     42 H                     0.218748
  ----------------------------------------
  Sum of atomic charges =     0.000000

                    Cartesian Multipole Moments
 -----------------------------------------------------------------
    Charge (ESU x 10^10)
                 0.0000
    Dipole Moment (Debye)
         X       0.1771      Y       1.1038      Z       2.9338
       Tot       3.1396
    Quadrupole Moments (Debye-Ang)
        XX    -199.6990     XY       4.0677     YY    -160.5303
        XZ       5.7145     YZ      -7.8455     ZZ    -183.1564

 Total job time:  302.52s(wall), 9756.02s(cpu)
        *  Thank you very much for using Q-Chem.  Have a nice day.  *
