 Q-Chem 5.4, Q-Chem, Inc., Pleasanton, CA (2021)
 Q-Chem 5.4.0 for Intel X86 EM64T Linux

User input:
--------------------------------------------------------------
$molecule
0 1
C	0.070009	-8.517702	0.313191
C	-0.305494	-7.641575	-0.694746
S	0.614924	-7.638634	1.762350
C	-0.176768	-6.264785	-0.340973
H	-0.669571	-7.966081	-1.677747
C	0.309600	-6.072714	1.000069
C	0.525372	-4.787049	1.520060
C	-0.463825	-5.162801	-1.196466
C	-0.243888	-3.874817	-0.677639
C	0.240312	-3.683952	0.665815
O	-0.941626	-5.499772	-2.426678
O	1.006468	-4.459055	2.755460
C	0.761666	-5.329063	3.853913
H	1.016135	-4.755694	4.765607
H	1.401368	-6.238095	3.822182
H	-0.305161	-5.637262	3.901833
C	-0.868342	-4.572261	-3.502489
H	-1.128551	-5.139743	-4.416005
H	0.154712	-4.153131	-3.613841
H	-1.595605	-3.739531	-3.386756
C	0.369957	-2.306654	1.015430
S	-0.537898	-2.306501	-1.445922
C	-0.000000	-1.435185	-0.000000
H	0.731088	-1.978138	1.998088
H	0.074151	-9.614033	0.314143
C	0.000000	0.000000	0.000000
S	0.079327	0.901280	1.507541
C	0.215617	2.467903	0.718873
C	0.079577	0.900940	-1.067872
C	0.198433	2.285998	-0.686410
S	0.061187	0.658044	-2.805516
C	0.208347	2.403534	-3.054530
C	0.267636	3.109360	-1.862551
F	0.379347	4.441341	-1.819088
C	0.249278	2.849688	-4.456084
O	0.190132	2.082076	-5.406510
O	0.359548	4.195721	-4.569225
C	0.407901	4.688467	-5.916207
H	0.496901	5.785916	-5.833064
H	-0.512596	4.414348	-6.470168
H	1.278377	4.268124	-6.459293
H	0.294764	3.388767	1.306486
$end

$rem
JOBTYPE		SP
EXCHANGE	HF
CORRELATION	pRIMP2
BASIS		cc-pvtz
METHOD		rimp2
AUX_BASIS	rimp2-cc-pvtz
SOLVENT_METHOD	PCM
PURECART	11111
SYMMETRY	false
MEM_TOTAL	110000
SCF_CONVERGENCE = 6
THRESH=10
GUI = 2
$end

$solvent
dielectric 4.90
$end
--------------------------------------------------------------

             Standard Nuclear Orientation (Angstroms)
    I     Atom           X                Y                Z
 ----------------------------------------------------------------
    1      C       0.0700090000    -8.5177020000     0.3131910000
    2      C      -0.3054940000    -7.6415750000    -0.6947460000
    3      S       0.6149240000    -7.6386340000     1.7623500000
    4      C      -0.1767680000    -6.2647850000    -0.3409730000
    5      H      -0.6695710000    -7.9660810000    -1.6777470000
    6      C       0.3096000000    -6.0727140000     1.0000690000
    7      C       0.5253720000    -4.7870490000     1.5200600000
    8      C      -0.4638250000    -5.1628010000    -1.1964660000
    9      C      -0.2438880000    -3.8748170000    -0.6776390000
   10      C       0.2403120000    -3.6839520000     0.6658150000
   11      O      -0.9416260000    -5.4997720000    -2.4266780000
   12      O       1.0064680000    -4.4590550000     2.7554600000
   13      C       0.7616660000    -5.3290630000     3.8539130000
   14      H       1.0161350000    -4.7556940000     4.7656070000
   15      H       1.4013680000    -6.2380950000     3.8221820000
   16      H      -0.3051610000    -5.6372620000     3.9018330000
   17      C      -0.8683420000    -4.5722610000    -3.5024890000
   18      H      -1.1285510000    -5.1397430000    -4.4160050000
   19      H       0.1547120000    -4.1531310000    -3.6138410000
   20      H      -1.5956050000    -3.7395310000    -3.3867560000
   21      C       0.3699570000    -2.3066540000     1.0154300000
   22      S      -0.5378980000    -2.3065010000    -1.4459220000
   23      C       0.0000000000    -1.4351850000     0.0000000000
   24      H       0.7310880000    -1.9781380000     1.9980880000
   25      H       0.0741510000    -9.6140330000     0.3141430000
   26      C       0.0000000000     0.0000000000     0.0000000000
   27      S       0.0793270000     0.9012800000     1.5075410000
   28      C       0.2156170000     2.4679030000     0.7188730000
   29      C       0.0795770000     0.9009400000    -1.0678720000
   30      C       0.1984330000     2.2859980000    -0.6864100000
   31      S       0.0611870000     0.6580440000    -2.8055160000
   32      C       0.2083470000     2.4035340000    -3.0545300000
   33      C       0.2676360000     3.1093600000    -1.8625510000
   34      F       0.3793470000     4.4413410000    -1.8190880000
   35      C       0.2492780000     2.8496880000    -4.4560840000
   36      O       0.1901320000     2.0820760000    -5.4065100000
   37      O       0.3595480000     4.1957210000    -4.5692250000
   38      C       0.4079010000     4.6884670000    -5.9162070000
   39      H       0.4969010000     5.7859160000    -5.8330640000
   40      H      -0.5125960000     4.4143480000    -6.4701680000
   41      H       1.2783770000     4.2681240000    -6.4592930000
   42      H       0.2947640000     3.3887670000     1.3064860000
 ----------------------------------------------------------------

   10   -2754.3162497568      7.60e-07  Convergence criterion met
 Total energy in the final basis set =    -2754.3162497568
        RIMP2         total energy =     -2759.3691174168 a.u.

                    Orbital Energies (a.u.)
 --------------------------------------------------------------

 Alpha MOs
 -- Occupied --
-92.0153 -91.9984 -91.9913 -91.9863 -26.3433 -20.6147 -20.5925 -20.5914
-20.5612 -11.4094 -11.3825 -11.3201 -11.3173 -11.3102 -11.3020 -11.3004
-11.2979 -11.2973 -11.2888 -11.2867 -11.2867 -11.2863 -11.2856 -11.2844
-11.2793 -11.2624 -11.2584 -11.2554 -11.2500  -9.0139  -8.9985  -8.9919
 -8.9863  -6.6946  -6.6941  -6.6935  -6.6795  -6.6788  -6.6776  -6.6729
 -6.6722  -6.6712  -6.6673  -6.6666  -6.6658  -1.6604  -1.4672  -1.4166
 -1.4142  -1.3699  -1.2222  -1.1950  -1.1661  -1.1364  -1.0861  -1.0524
 -1.0416  -1.0240  -1.0024  -0.9884  -0.9643  -0.9586  -0.9501  -0.9409
 -0.8961  -0.8680  -0.8522  -0.8149  -0.7920  -0.7880  -0.7863  -0.7653
 -0.7554  -0.7342  -0.7252  -0.7103  -0.6991  -0.6858  -0.6837  -0.6817
 -0.6738  -0.6593  -0.6582  -0.6527  -0.6310  -0.6200  -0.6169  -0.6031
 -0.5976  -0.5859  -0.5781  -0.5694  -0.5683  -0.5621  -0.5564  -0.5534
 -0.5323  -0.5295  -0.5228  -0.5199  -0.5182  -0.5111  -0.5063  -0.4947
 -0.4877  -0.4791  -0.4769  -0.4746  -0.4702  -0.4651  -0.4598  -0.4253
 -0.3940  -0.3862  -0.3609  -0.3513  -0.3248  -0.2911  -0.2497

          Ground-State Mulliken Net Atomic Charges

     Atom                 Charge (a.u.)
  ----------------------------------------
      1 C                    -0.190008
      2 C                    -0.253194
      3 S                    -0.022602
      4 C                    -0.016111
      5 H                     0.196433
      6 C                    -0.027633
      7 C                     0.240105
      8 C                     0.242535
      9 C                    -0.039357
     10 C                    -0.020573
     11 O                    -0.332927
     12 O                    -0.340804
     13 C                    -0.085708
     14 H                     0.122292
     15 H                     0.091296
     16 H                     0.093895
     17 C                    -0.088885
     18 H                     0.125790
     19 H                     0.095921
     20 H                     0.090314
     21 C                    -0.265370
     22 S                    -0.031939
     23 C                     0.026691
     24 H                     0.188456
     25 H                     0.206262
     26 C                     0.011382
     27 S                     0.086771
     28 C                    -0.180422
     29 C                     0.011042
     30 C                    -0.127290
     31 S                     0.002985
     32 C                    -0.163364
     33 C                     0.406384
     34 F                    -0.206870
     35 C                     0.444022
     36 O                    -0.461050
     37 O                    -0.300623
     38 C                    -0.058736
     39 H                     0.121424
     40 H                     0.095144
     41 H                     0.095091
     42 H                     0.219231
  ----------------------------------------
  Sum of atomic charges =     0.000000

                    Cartesian Multipole Moments
 -----------------------------------------------------------------
    Charge (ESU x 10^10)
                 0.0000
    Dipole Moment (Debye)
         X      -0.0552      Y       1.1512      Z       2.8663
       Tot       3.0893
    Quadrupole Moments (Debye-Ang)
        XX    -201.8127     XY       2.8060     YY    -160.0857
        XZ       2.3111     YZ      -7.6746     ZZ    -181.3312

 Total job time:  294.73s(wall), 9420.76s(cpu)
        *  Thank you very much for using Q-Chem.  Have a nice day.  *
