 Q-Chem 5.4, Q-Chem, Inc., Pleasanton, CA (2021)
 Q-Chem 5.4.0 for Intel X86 EM64T Linux

User input:
--------------------------------------------------------------
$molecule
0 1
C	-0.270358	-8.517702	0.172904
C	0.548363	-7.641575	-0.524688
S	-1.445750	-7.638634	1.180599
C	0.259951	-6.264785	-0.282727
H	1.347559	-7.966081	-1.203014
C	-0.833868	-6.072714	0.632972
C	-1.248701	-4.787049	1.013580
C	0.965673	-5.162801	-0.845068
C	0.553357	-3.874817	-0.460946
C	-0.543470	-3.683952	0.453541
O	1.958276	-5.499772	-1.714812
O	-2.245053	-4.459055	1.888193
C	-3.360989	-5.329063	2.033848
H	-4.130667	-4.755694	2.584788
H	-3.112380	-6.238095	2.624118
H	-3.770895	-5.637262	1.047748
C	2.994272	-4.572261	-2.013896
H	3.763700	-5.139743	-2.570853
H	3.448815	-4.153131	-1.090625
H	2.636780	-3.739531	-2.657717
C	-0.827659	-2.306654	0.694943
S	1.174750	-2.306501	-0.999993
C	0.000000	-1.435185	0.000000
H	-1.627541	-1.978138	1.370385
H	-0.269836	-9.614033	0.177122
C	0.000000	0.000000	0.000000
S	0.234628	0.873813	1.507541
C	0.640889	2.392969	0.718873
C	0.234815	0.873434	-1.067872
C	0.592377	2.216811	-0.686410
S	0.174526	0.637422	-2.805516
C	0.622551	2.330840	-3.054530
C	0.803505	3.015647	-1.862551
F	1.144815	4.307994	-1.819088
C	0.740334	2.763108	-4.456084
O	0.548793	2.017428	-5.406510
O	1.082665	4.069544	-4.569225
C	1.215848	4.546407	-5.916207
H	1.494066	5.611729	-5.833064
H	0.261736	4.436296	-6.470168
H	2.000108	3.981294	-6.459293
H	0.878739	3.286099	1.306486
$end

$rem
JOBTYPE		SP
EXCHANGE	HF
CORRELATION	pRIMP2
BASIS		cc-pvtz
METHOD		rimp2
AUX_BASIS	rimp2-cc-pvtz
SOLVENT_METHOD	PCM
PURECART	11111
SYMMETRY	false
MEM_TOTAL	110000
SCF_CONVERGENCE = 6
THRESH=10
GUI = 2
$end

$solvent
dielectric 4.90
$end
--------------------------------------------------------------

             Standard Nuclear Orientation (Angstroms)
    I     Atom           X                Y                Z
 ----------------------------------------------------------------
    1      C      -0.2703580000    -8.5177020000     0.1729040000
    2      C       0.5483630000    -7.6415750000    -0.5246880000
    3      S      -1.4457500000    -7.6386340000     1.1805990000
    4      C       0.2599510000    -6.2647850000    -0.2827270000
    5      H       1.3475590000    -7.9660810000    -1.2030140000
    6      C      -0.8338680000    -6.0727140000     0.6329720000
    7      C      -1.2487010000    -4.7870490000     1.0135800000
    8      C       0.9656730000    -5.1628010000    -0.8450680000
    9      C       0.5533570000    -3.8748170000    -0.4609460000
   10      C      -0.5434700000    -3.6839520000     0.4535410000
   11      O       1.9582760000    -5.4997720000    -1.7148120000
   12      O      -2.2450530000    -4.4590550000     1.8881930000
   13      C      -3.3609890000    -5.3290630000     2.0338480000
   14      H      -4.1306670000    -4.7556940000     2.5847880000
   15      H      -3.1123800000    -6.2380950000     2.6241180000
   16      H      -3.7708950000    -5.6372620000     1.0477480000
   17      C       2.9942720000    -4.5722610000    -2.0138960000
   18      H       3.7637000000    -5.1397430000    -2.5708530000
   19      H       3.4488150000    -4.1531310000    -1.0906250000
   20      H       2.6367800000    -3.7395310000    -2.6577170000
   21      C      -0.8276590000    -2.3066540000     0.6949430000
   22      S       1.1747500000    -2.3065010000    -0.9999930000
   23      C       0.0000000000    -1.4351850000     0.0000000000
   24      H      -1.6275410000    -1.9781380000     1.3703850000
   25      H      -0.2698360000    -9.6140330000     0.1771220000
   26      C       0.0000000000     0.0000000000     0.0000000000
   27      S       0.2346280000     0.8738130000     1.5075410000
   28      C       0.6408890000     2.3929690000     0.7188730000
   29      C       0.2348150000     0.8734340000    -1.0678720000
   30      C       0.5923770000     2.2168110000    -0.6864100000
   31      S       0.1745260000     0.6374220000    -2.8055160000
   32      C       0.6225510000     2.3308400000    -3.0545300000
   33      C       0.8035050000     3.0156470000    -1.8625510000
   34      F       1.1448150000     4.3079940000    -1.8190880000
   35      C       0.7403340000     2.7631080000    -4.4560840000
   36      O       0.5487930000     2.0174280000    -5.4065100000
   37      O       1.0826650000     4.0695440000    -4.5692250000
   38      C       1.2158480000     4.5464070000    -5.9162070000
   39      H       1.4940660000     5.6117290000    -5.8330640000
   40      H       0.2617360000     4.4362960000    -6.4701680000
   41      H       2.0001080000     3.9812940000    -6.4592930000
   42      H       0.8787390000     3.2860990000     1.3064860000
 ----------------------------------------------------------------

   10   -2754.3121769626      7.32e-07  Convergence criterion met
 Total energy in the final basis set =    -2754.3121769626
        RIMP2         total energy =     -2759.3640174199 a.u.

                    Orbital Energies (a.u.)
 --------------------------------------------------------------

 Alpha MOs
 -- Occupied --
-92.0151 -91.9975 -91.9896 -91.9863 -26.3428 -20.6145 -20.5922 -20.5915
-20.5608 -11.4089 -11.3817 -11.3193 -11.3178 -11.3097 -11.3003 -11.2973
-11.2968 -11.2937 -11.2886 -11.2867 -11.2862 -11.2859 -11.2845 -11.2840
-11.2797 -11.2608 -11.2588 -11.2560 -11.2499  -9.0135  -8.9976  -8.9900
 -8.9863  -6.6942  -6.6936  -6.6931  -6.6786  -6.6778  -6.6767  -6.6710
 -6.6703  -6.6693  -6.6672  -6.6666  -6.6658  -1.6599  -1.4669  -1.4163
 -1.4143  -1.3696  -1.2212  -1.1943  -1.1654  -1.1356  -1.0849  -1.0519
 -1.0409  -1.0227  -1.0017  -0.9877  -0.9633  -0.9589  -0.9501  -0.9394
 -0.8958  -0.8672  -0.8511  -0.8126  -0.7917  -0.7872  -0.7867  -0.7651
 -0.7550  -0.7338  -0.7248  -0.7095  -0.6993  -0.6850  -0.6832  -0.6808
 -0.6736  -0.6591  -0.6575  -0.6526  -0.6304  -0.6200  -0.6169  -0.6046
 -0.5972  -0.5842  -0.5779  -0.5692  -0.5662  -0.5595  -0.5565  -0.5517
 -0.5322  -0.5301  -0.5242  -0.5165  -0.5153  -0.5077  -0.5071  -0.4963
 -0.4886  -0.4794  -0.4757  -0.4732  -0.4697  -0.4652  -0.4599  -0.4147
 -0.3979  -0.3850  -0.3569  -0.3498  -0.3230  -0.2905  -0.2553

          Ground-State Mulliken Net Atomic Charges

     Atom                 Charge (a.u.)
  ----------------------------------------
      1 C                    -0.188639
      2 C                    -0.254122
      3 S                    -0.022656
      4 C                    -0.015221
      5 H                     0.196471
      6 C                    -0.025721
      7 C                     0.240056
      8 C                     0.240416
      9 C                    -0.041655
     10 C                    -0.012398
     11 O                    -0.333143
     12 O                    -0.340130
     13 C                    -0.085788
     14 H                     0.122417
     15 H                     0.091164
     16 H                     0.094228
     17 C                    -0.087693
     18 H                     0.125272
     19 H                     0.094427
     20 H                     0.090890
     21 C                    -0.256571
     22 S                    -0.009960
     23 C                    -0.019340
     24 H                     0.196399
     25 H                     0.206389
     26 C                     0.024026
     27 S                     0.111526
     28 C                    -0.192373
     29 C                    -0.063282
     30 C                    -0.089370
     31 S                     0.017928
     32 C                    -0.155022
     33 C                     0.395777
     34 F                    -0.207231
     35 C                     0.444538
     36 O                    -0.461010
     37 O                    -0.300733
     38 C                    -0.058446
     39 H                     0.121280
     40 H                     0.095119
     41 H                     0.094958
     42 H                     0.217227
  ----------------------------------------
  Sum of atomic charges =     0.000000

                    Cartesian Multipole Moments
 -----------------------------------------------------------------
    Charge (ESU x 10^10)
                -0.0000
    Dipole Moment (Debye)
         X       0.6922      Y       0.9513      Z       2.7246
       Tot       2.9677
    Quadrupole Moments (Debye-Ang)
        XX    -180.8951     XY       4.9778     YY    -160.9100
        XZ     -12.0532     YZ      -6.0691     ZZ    -201.3817

 Total job time:  292.32s(wall), 9245.99s(cpu)
        *  Thank you very much for using Q-Chem.  Have a nice day.  *
