 Q-Chem 5.4, Q-Chem, Inc., Pleasanton, CA (2021)
 Q-Chem 5.4.0 for Intel X86 EM64T Linux

User input:
--------------------------------------------------------------
$molecule
0 1
C	-0.123330	-8.517702	-0.296276
C	0.421494	-7.641575	0.631143
S	-0.911611	-7.638634	-1.628795
C	0.233291	-6.264785	0.305097
H	0.950737	-7.966081	1.535988
C	-0.478557	-6.072714	-0.931114
C	-0.781346	-4.787049	-1.405737
C	0.664542	-5.162801	1.097747
C	0.357854	-3.874817	0.624993
C	-0.352278	-3.683952	-0.613970
O	1.348709	-5.499772	2.226300
O	-1.469658	-4.459055	-2.538827
C	-1.419319	-5.329063	-3.663102
H	-1.828237	-4.755694	-4.516756
H	-2.043793	-6.238095	-3.520769
H	-0.377021	-5.637262	-3.895546
C	1.463351	-4.572261	3.298492
H	1.878237	-5.139743	4.152945
H	0.475176	-4.153131	3.585804
H	2.159469	-3.739531	3.058230
C	-0.540664	-2.306654	-0.935761
S	0.780808	-2.306501	1.330550
C	-0.000000	-1.435185	-0.000000
H	-1.066946	-1.978138	-1.840780
H	-0.127575	-9.614033	-0.296494
C	0.000000	0.000000	0.000000
S	0.581934	0.692785	1.507541
C	1.592155	1.897915	0.718873
C	0.581944	0.692363	-1.067872
C	1.473741	1.758764	-0.686410
S	0.427560	0.503942	-2.805516
C	1.549278	1.849357	-3.054530
C	2.002690	2.393529	-1.862551
F	2.858191	3.420549	-1.819088
C	1.838710	2.191348	-4.456084
O	1.349977	1.596481	-5.406510
O	2.701091	3.230705	-4.569225
C	3.023327	3.606605	-5.916207
H	3.725703	4.454534	-5.833064
H	2.112072	3.910035	-6.470168
H	3.495281	2.762996	-6.459293
H	2.185174	2.606846	1.306486
$end

$rem
JOBTYPE		SP
EXCHANGE	HF
CORRELATION	pRIMP2
BASIS		cc-pvtz
METHOD		rimp2
AUX_BASIS	rimp2-cc-pvtz
SOLVENT_METHOD	PCM
PURECART	11111
SYMMETRY	false
MEM_TOTAL	110000
SCF_CONVERGENCE = 6
THRESH=10
GUI = 2
$end

$solvent
dielectric 4.90
$end
--------------------------------------------------------------

             Standard Nuclear Orientation (Angstroms)
    I     Atom           X                Y                Z
 ----------------------------------------------------------------
    1      C      -0.1233300000    -8.5177020000    -0.2962760000
    2      C       0.4214940000    -7.6415750000     0.6311430000
    3      S      -0.9116110000    -7.6386340000    -1.6287950000
    4      C       0.2332910000    -6.2647850000     0.3050970000
    5      H       0.9507370000    -7.9660810000     1.5359880000
    6      C      -0.4785570000    -6.0727140000    -0.9311140000
    7      C      -0.7813460000    -4.7870490000    -1.4057370000
    8      C       0.6645420000    -5.1628010000     1.0977470000
    9      C       0.3578540000    -3.8748170000     0.6249930000
   10      C      -0.3522780000    -3.6839520000    -0.6139700000
   11      O       1.3487090000    -5.4997720000     2.2263000000
   12      O      -1.4696580000    -4.4590550000    -2.5388270000
   13      C      -1.4193190000    -5.3290630000    -3.6631020000
   14      H      -1.8282370000    -4.7556940000    -4.5167560000
   15      H      -2.0437930000    -6.2380950000    -3.5207690000
   16      H      -0.3770210000    -5.6372620000    -3.8955460000
   17      C       1.4633510000    -4.5722610000     3.2984920000
   18      H       1.8782370000    -5.1397430000     4.1529450000
   19      H       0.4751760000    -4.1531310000     3.5858040000
   20      H       2.1594690000    -3.7395310000     3.0582300000
   21      C      -0.5406640000    -2.3066540000    -0.9357610000
   22      S       0.7808080000    -2.3065010000     1.3305500000
   23      C       0.0000000000    -1.4351850000     0.0000000000
   24      H      -1.0669460000    -1.9781380000    -1.8407800000
   25      H      -0.1275750000    -9.6140330000    -0.2964940000
   26      C       0.0000000000     0.0000000000     0.0000000000
   27      S       0.5819340000     0.6927850000     1.5075410000
   28      C       1.5921550000     1.8979150000     0.7188730000
   29      C       0.5819440000     0.6923630000    -1.0678720000
   30      C       1.4737410000     1.7587640000    -0.6864100000
   31      S       0.4275600000     0.5039420000    -2.8055160000
   32      C       1.5492780000     1.8493570000    -3.0545300000
   33      C       2.0026900000     2.3935290000    -1.8625510000
   34      F       2.8581910000     3.4205490000    -1.8190880000
   35      C       1.8387100000     2.1913480000    -4.4560840000
   36      O       1.3499770000     1.5964810000    -5.4065100000
   37      O       2.7010910000     3.2307050000    -4.5692250000
   38      C       3.0233270000     3.6066050000    -5.9162070000
   39      H       3.7257030000     4.4545340000    -5.8330640000
   40      H       2.1120720000     3.9100350000    -6.4701680000
   41      H       3.4952810000     2.7629960000    -6.4592930000
   42      H       2.1851740000     2.6068460000     1.3064860000
 ----------------------------------------------------------------

   10   -2754.2864434224      7.24e-07  Convergence criterion met
 Total energy in the final basis set =    -2754.2864434224
        RIMP2         total energy =     -2759.3453328378 a.u.

                    Orbital Energies (a.u.)
 --------------------------------------------------------------

 Alpha MOs
 -- Occupied --
-92.0155 -92.0049 -91.9893 -91.9840 -26.3453 -20.6155 -20.5918 -20.5878
-20.5620 -11.4104 -11.3854 -11.3228 -11.3181 -11.3119 -11.3118 -11.2987
-11.2963 -11.2894 -11.2893 -11.2882 -11.2871 -11.2839 -11.2819 -11.2805
-11.2761 -11.2589 -11.2541 -11.2482 -11.2435  -9.0147  -9.0046  -8.9898
 -8.9839  -6.6954  -6.6947  -6.6943  -6.6856  -6.6848  -6.6838  -6.6707
 -6.6700  -6.6690  -6.6649  -6.6643  -6.6634  -1.6623  -1.4680  -1.4157
 -1.4107  -1.3707  -1.2281  -1.1917  -1.1649  -1.1388  -1.0845  -1.0492
 -1.0441  -1.0260  -0.9991  -0.9873  -0.9650  -0.9589  -0.9491  -0.9389
 -0.8945  -0.8704  -0.8483  -0.8107  -0.7976  -0.7868  -0.7842  -0.7626
 -0.7560  -0.7315  -0.7270  -0.7122  -0.7003  -0.6861  -0.6823  -0.6804
 -0.6745  -0.6591  -0.6579  -0.6505  -0.6291  -0.6179  -0.6157  -0.6035
 -0.6008  -0.5888  -0.5777  -0.5705  -0.5642  -0.5616  -0.5547  -0.5421
 -0.5341  -0.5309  -0.5211  -0.5172  -0.5152  -0.5115  -0.5038  -0.4941
 -0.4874  -0.4829  -0.4756  -0.4746  -0.4686  -0.4628  -0.4597  -0.4228
 -0.3949  -0.3818  -0.3593  -0.3481  -0.3251  -0.2923  -0.2486

          Ground-State Mulliken Net Atomic Charges

     Atom                 Charge (a.u.)
  ----------------------------------------
      1 C                    -0.196133
      2 C                    -0.253509
      3 S                    -0.025832
      4 C                    -0.022197
      5 H                     0.195278
      6 C                    -0.024741
      7 C                     0.230936
      8 C                     0.241862
      9 C                    -0.051942
     10 C                    -0.011637
     11 O                    -0.333022
     12 O                    -0.341576
     13 C                    -0.085658
     14 H                     0.122257
     15 H                     0.090304
     16 H                     0.093006
     17 C                    -0.088032
     18 H                     0.125424
     19 H                     0.094411
     20 H                     0.089089
     21 C                    -0.277630
     22 S                    -0.023112
     23 C                    -0.001101
     24 H                     0.193637
     25 H                     0.205064
     26 C                    -0.046876
     27 S                     0.086694
     28 C                    -0.150211
     29 C                     0.046628
     30 C                    -0.110784
     31 S                     0.031596
     32 C                    -0.155746
     33 C                     0.398160
     34 F                    -0.204703
     35 C                     0.447575
     36 O                    -0.461030
     37 O                    -0.301152
     38 C                    -0.058311
     39 H                     0.121517
     40 H                     0.095273
     41 H                     0.095314
     42 H                     0.220909
  ----------------------------------------
  Sum of atomic charges =     0.000000

                    Cartesian Multipole Moments
 -----------------------------------------------------------------
    Charge (ESU x 10^10)
                 0.0000
    Dipole Moment (Debye)
         X       2.7661      Y       2.2139      Z       2.9640
       Tot       4.6193
    Quadrupole Moments (Debye-Ang)
        XX    -193.0606     XY       6.9075     YY    -173.0239
        XZ       1.9032     YZ      -5.9010     ZZ    -182.3891

 Total job time:  303.52s(wall), 9784.77s(cpu)
        *  Thank you very much for using Q-Chem.  Have a nice day.  *
