 Q-Chem 5.4, Q-Chem, Inc., Pleasanton, CA (2021)
 Q-Chem 5.4.0 for Intel X86 EM64T Linux

User input:
--------------------------------------------------------------
$molecule
0 1
C	-0.095966	-8.517702	0.306235
C	0.082807	-7.641575	-0.754415
S	-0.348635	-7.638634	1.833702
C	0.017401	-6.264785	-0.383675
H	0.259008	-7.966081	-1.787757
C	-0.231913	-6.072714	1.020885
C	-0.305044	-4.787049	1.579097
C	0.196549	-5.162801	-1.268082
C	0.127606	-3.874817	-0.708796
C	-0.124792	-3.683952	0.696769
O	0.397867	-5.499772	-2.572378
O	-0.506103	-4.459055	2.889532
C	-1.267335	-5.329063	3.718420
H	-1.502804	-4.755694	4.635204
H	-0.697471	-6.238095	4.010790
H	-2.215194	-5.637262	3.226506
C	0.999238	-4.572261	-3.467415
H	1.230649	-5.139743	-4.388648
H	1.940905	-4.153131	-3.052323
H	0.311543	-3.739531	-3.730819
C	-0.187323	-2.306654	1.064366
S	0.257128	-2.306501	-1.521154
C	-0.000000	-1.435185	-0.000000
H	-0.365903	-1.978138	2.095939
H	-0.092855	-9.614033	0.309131
C	0.000000	0.000000	0.000000
S	0.452792	0.783312	1.507541
C	1.238397	2.145556	0.718873
C	0.452875	0.782898	-1.067872
C	1.145945	1.987956	-0.686410
S	0.333556	0.570531	-2.805516
C	1.204604	2.090290	-3.054530
C	1.556633	2.704929	-1.862551
F	2.220797	3.864903	-1.819088
C	1.430252	2.477345	-4.456084
O	1.052242	1.806648	-5.406510
O	2.099050	3.650663	-4.569225
C	2.351116	4.076808	-5.916207
H	2.895579	5.033821	-5.833064
H	1.401015	4.217390	-6.470168
H	2.962391	3.327969	-6.459293
H	1.699302	2.946693	1.306486
$end

$rem
JOBTYPE		SP
EXCHANGE	HF
CORRELATION	pRIMP2
BASIS		cc-pvtz
METHOD		rimp2
AUX_BASIS	rimp2-cc-pvtz
SOLVENT_METHOD	PCM
PURECART	11111
SYMMETRY	false
MEM_TOTAL	110000
SCF_CONVERGENCE = 6
THRESH=10
GUI = 2
$end

$solvent
dielectric 4.90
$end
--------------------------------------------------------------

             Standard Nuclear Orientation (Angstroms)
    I     Atom           X                Y                Z
 ----------------------------------------------------------------
    1      C      -0.0959660000    -8.5177020000     0.3062350000
    2      C       0.0828070000    -7.6415750000    -0.7544150000
    3      S      -0.3486350000    -7.6386340000     1.8337020000
    4      C       0.0174010000    -6.2647850000    -0.3836750000
    5      H       0.2590080000    -7.9660810000    -1.7877570000
    6      C      -0.2319130000    -6.0727140000     1.0208850000
    7      C      -0.3050440000    -4.7870490000     1.5790970000
    8      C       0.1965490000    -5.1628010000    -1.2680820000
    9      C       0.1276060000    -3.8748170000    -0.7087960000
   10      C      -0.1247920000    -3.6839520000     0.6967690000
   11      O       0.3978670000    -5.4997720000    -2.5723780000
   12      O      -0.5061030000    -4.4590550000     2.8895320000
   13      C      -1.2673350000    -5.3290630000     3.7184200000
   14      H      -1.5028040000    -4.7556940000     4.6352040000
   15      H      -0.6974710000    -6.2380950000     4.0107900000
   16      H      -2.2151940000    -5.6372620000     3.2265060000
   17      C       0.9992380000    -4.5722610000    -3.4674150000
   18      H       1.2306490000    -5.1397430000    -4.3886480000
   19      H       1.9409050000    -4.1531310000    -3.0523230000
   20      H       0.3115430000    -3.7395310000    -3.7308190000
   21      C      -0.1873230000    -2.3066540000     1.0643660000
   22      S       0.2571280000    -2.3065010000    -1.5211540000
   23      C       0.0000000000    -1.4351850000     0.0000000000
   24      H      -0.3659030000    -1.9781380000     2.0959390000
   25      H      -0.0928550000    -9.6140330000     0.3091310000
   26      C       0.0000000000     0.0000000000     0.0000000000
   27      S       0.4527920000     0.7833120000     1.5075410000
   28      C       1.2383970000     2.1455560000     0.7188730000
   29      C       0.4528750000     0.7828980000    -1.0678720000
   30      C       1.1459450000     1.9879560000    -0.6864100000
   31      S       0.3335560000     0.5705310000    -2.8055160000
   32      C       1.2046040000     2.0902900000    -3.0545300000
   33      C       1.5566330000     2.7049290000    -1.8625510000
   34      F       2.2207970000     3.8649030000    -1.8190880000
   35      C       1.4302520000     2.4773450000    -4.4560840000
   36      O       1.0522420000     1.8066480000    -5.4065100000
   37      O       2.0990500000     3.6506630000    -4.5692250000
   38      C       2.3511160000     4.0768080000    -5.9162070000
   39      H       2.8955790000     5.0338210000    -5.8330640000
   40      H       1.4010150000     4.2173900000    -6.4701680000
   41      H       2.9623910000     3.3279690000    -6.4592930000
   42      H       1.6993020000     2.9466930000     1.3064860000
 ----------------------------------------------------------------

   10   -2754.2979308062      7.23e-07  Convergence criterion met
 Total energy in the final basis set =    -2754.2979308062
        RIMP2         total energy =     -2759.3557620761 a.u.

                    Orbital Energies (a.u.)
 --------------------------------------------------------------

 Alpha MOs
 -- Occupied --
-92.0149 -92.0020 -91.9884 -91.9848 -26.3446 -20.6153 -20.5916 -20.5895
-20.5618 -11.4101 -11.3843 -11.3188 -11.3184 -11.3138 -11.3069 -11.2981
-11.2977 -11.2951 -11.2892 -11.2871 -11.2861 -11.2852 -11.2829 -11.2829
-11.2771 -11.2604 -11.2555 -11.2488 -11.2481  -9.0138  -9.0021  -8.9892
 -8.9848  -6.6945  -6.6939  -6.6934  -6.6831  -6.6823  -6.6812  -6.6701
 -6.6694  -6.6684  -6.6658  -6.6651  -6.6643  -1.6616  -1.4678  -1.4156
 -1.4123  -1.3705  -1.2259  -1.1928  -1.1648  -1.1379  -1.0857  -1.0505
 -1.0427  -1.0257  -1.0005  -0.9875  -0.9650  -0.9575  -0.9490  -0.9416
 -0.8945  -0.8697  -0.8494  -0.8166  -0.7929  -0.7869  -0.7839  -0.7642
 -0.7558  -0.7325  -0.7264  -0.7112  -0.6983  -0.6863  -0.6830  -0.6817
 -0.6744  -0.6592  -0.6579  -0.6515  -0.6303  -0.6186  -0.6159  -0.6042
 -0.5991  -0.5831  -0.5797  -0.5690  -0.5667  -0.5600  -0.5566  -0.5522
 -0.5327  -0.5291  -0.5239  -0.5191  -0.5169  -0.5113  -0.5056  -0.4945
 -0.4861  -0.4805  -0.4769  -0.4748  -0.4702  -0.4621  -0.4577  -0.4261
 -0.3920  -0.3842  -0.3597  -0.3529  -0.3246  -0.2907  -0.2466

          Ground-State Mulliken Net Atomic Charges

     Atom                 Charge (a.u.)
  ----------------------------------------
      1 C                    -0.194507
      2 C                    -0.253107
      3 S                    -0.025454
      4 C                    -0.021669
      5 H                     0.195927
      6 C                    -0.025899
      7 C                     0.232177
      8 C                     0.245464
      9 C                    -0.041577
     10 C                    -0.010456
     11 O                    -0.332910
     12 O                    -0.341499
     13 C                    -0.085514
     14 H                     0.121598
     15 H                     0.090675
     16 H                     0.093479
     17 C                    -0.089319
     18 H                     0.125836
     19 H                     0.094770
     20 H                     0.090808
     21 C                    -0.276142
     22 S                    -0.038269
     23 C                     0.017363
     24 H                     0.185793
     25 H                     0.205511
     26 C                     0.010320
     27 S                     0.103702
     28 C                    -0.175056
     29 C                    -0.019904
     30 C                    -0.104178
     31 S                     0.026743
     32 C                    -0.166043
     33 C                     0.410045
     34 F                    -0.205734
     35 C                     0.445435
     36 O                    -0.461063
     37 O                    -0.300940
     38 C                    -0.058406
     39 H                     0.121577
     40 H                     0.095242
     41 H                     0.095132
     42 H                     0.220048
  ----------------------------------------
  Sum of atomic charges =     0.000000

                    Cartesian Multipole Moments
 -----------------------------------------------------------------
    Charge (ESU x 10^10)
                 0.0000
    Dipole Moment (Debye)
         X       1.5302      Y       1.9324      Z       2.3997
       Tot       3.4401
    Quadrupole Moments (Debye-Ang)
        XX    -193.9676     XY       8.4703     YY    -168.2920
        XZ     -12.8456     YZ      -5.2993     ZZ    -184.6103

 Total job time:  306.66s(wall), 9849.05s(cpu)
        *  Thank you very much for using Q-Chem.  Have a nice day.  *
