 Q-Chem 5.4, Q-Chem, Inc., Pleasanton, CA (2021)
 Q-Chem 5.4.0 for Intel X86 EM64T Linux

User input:
--------------------------------------------------------------
$molecule
0 1
C	0.296276	-8.517702	-0.123330
C	-0.631143	-7.641575	0.421494
S	1.628795	-7.638634	-0.911611
C	-0.305097	-6.264785	0.233291
H	-1.535988	-7.966081	0.950737
C	0.931114	-6.072714	-0.478557
C	1.405737	-4.787049	-0.781346
C	-1.097747	-5.162801	0.664542
C	-0.624993	-3.874817	0.357854
C	0.613970	-3.683952	-0.352278
O	-2.226300	-5.499772	1.348709
O	2.538827	-4.459055	-1.469658
C	3.663102	-5.329063	-1.419319
H	4.516756	-4.755694	-1.828237
H	3.520769	-6.238095	-2.043793
H	3.895546	-5.637262	-0.377021
C	-3.298492	-4.572261	1.463351
H	-4.152945	-5.139743	1.878237
H	-3.585804	-4.153131	0.475176
H	-3.058230	-3.739531	2.159469
C	0.935761	-2.306654	-0.540664
S	-1.330550	-2.306501	0.780808
C	-0.000000	-1.435185	-0.000000
H	1.840780	-1.978138	-1.066946
H	0.296494	-9.614033	-0.127575
C	0.000000	0.000000	0.000000
S	0.452792	0.783312	1.507541
C	1.238397	2.145556	0.718873
C	0.452875	0.782898	-1.067872
C	1.145945	1.987956	-0.686410
S	0.333556	0.570531	-2.805516
C	1.204604	2.090290	-3.054530
C	1.556633	2.704929	-1.862551
F	2.220797	3.864903	-1.819088
C	1.430252	2.477345	-4.456084
O	1.052242	1.806648	-5.406510
O	2.099050	3.650663	-4.569225
C	2.351116	4.076808	-5.916207
H	2.895579	5.033821	-5.833064
H	1.401015	4.217390	-6.470168
H	2.962391	3.327969	-6.459293
H	1.699302	2.946693	1.306486
$end

$rem
JOBTYPE		SP
EXCHANGE	HF
CORRELATION	pRIMP2
BASIS		cc-pvtz
METHOD		rimp2
AUX_BASIS	rimp2-cc-pvtz
SOLVENT_METHOD	PCM
PURECART	11111
SYMMETRY	false
MEM_TOTAL	110000
SCF_CONVERGENCE = 6
THRESH=10
GUI = 2
$end

$solvent
dielectric 4.90
$end
--------------------------------------------------------------

             Standard Nuclear Orientation (Angstroms)
    I     Atom           X                Y                Z
 ----------------------------------------------------------------
    1      C       0.2962760000    -8.5177020000    -0.1233300000
    2      C      -0.6311430000    -7.6415750000     0.4214940000
    3      S       1.6287950000    -7.6386340000    -0.9116110000
    4      C      -0.3050970000    -6.2647850000     0.2332910000
    5      H      -1.5359880000    -7.9660810000     0.9507370000
    6      C       0.9311140000    -6.0727140000    -0.4785570000
    7      C       1.4057370000    -4.7870490000    -0.7813460000
    8      C      -1.0977470000    -5.1628010000     0.6645420000
    9      C      -0.6249930000    -3.8748170000     0.3578540000
   10      C       0.6139700000    -3.6839520000    -0.3522780000
   11      O      -2.2263000000    -5.4997720000     1.3487090000
   12      O       2.5388270000    -4.4590550000    -1.4696580000
   13      C       3.6631020000    -5.3290630000    -1.4193190000
   14      H       4.5167560000    -4.7556940000    -1.8282370000
   15      H       3.5207690000    -6.2380950000    -2.0437930000
   16      H       3.8955460000    -5.6372620000    -0.3770210000
   17      C      -3.2984920000    -4.5722610000     1.4633510000
   18      H      -4.1529450000    -5.1397430000     1.8782370000
   19      H      -3.5858040000    -4.1531310000     0.4751760000
   20      H      -3.0582300000    -3.7395310000     2.1594690000
   21      C       0.9357610000    -2.3066540000    -0.5406640000
   22      S      -1.3305500000    -2.3065010000     0.7808080000
   23      C       0.0000000000    -1.4351850000     0.0000000000
   24      H       1.8407800000    -1.9781380000    -1.0669460000
   25      H       0.2964940000    -9.6140330000    -0.1275750000
   26      C       0.0000000000     0.0000000000     0.0000000000
   27      S       0.4527920000     0.7833120000     1.5075410000
   28      C       1.2383970000     2.1455560000     0.7188730000
   29      C       0.4528750000     0.7828980000    -1.0678720000
   30      C       1.1459450000     1.9879560000    -0.6864100000
   31      S       0.3335560000     0.5705310000    -2.8055160000
   32      C       1.2046040000     2.0902900000    -3.0545300000
   33      C       1.5566330000     2.7049290000    -1.8625510000
   34      F       2.2207970000     3.8649030000    -1.8190880000
   35      C       1.4302520000     2.4773450000    -4.4560840000
   36      O       1.0522420000     1.8066480000    -5.4065100000
   37      O       2.0990500000     3.6506630000    -4.5692250000
   38      C       2.3511160000     4.0768080000    -5.9162070000
   39      H       2.8955790000     5.0338210000    -5.8330640000
   40      H       1.4010150000     4.2173900000    -6.4701680000
   41      H       2.9623910000     3.3279690000    -6.4592930000
   42      H       1.6993020000     2.9466930000     1.3064860000
 ----------------------------------------------------------------

   10   -2754.3002665392      7.98e-07  Convergence criterion met
 Total energy in the final basis set =    -2754.3002665392
        RIMP2         total energy =     -2759.3538652244 a.u.

                    Orbital Energies (a.u.)
 --------------------------------------------------------------

 Alpha MOs
 -- Occupied --
-92.0140 -91.9992 -91.9865 -91.9857 -26.3434 -20.6146 -20.5919 -20.5906
-20.5609 -11.4091 -11.3825 -11.3184 -11.3167 -11.3156 -11.3048 -11.2969
-11.2927 -11.2901 -11.2887 -11.2867 -11.2856 -11.2849 -11.2844 -11.2833
-11.2790 -11.2598 -11.2578 -11.2541 -11.2495  -9.0127  -8.9991  -8.9871
 -8.9856  -6.6934  -6.6928  -6.6923  -6.6801  -6.6794  -6.6783  -6.6680
 -6.6673  -6.6666  -6.6664  -6.6660  -6.6651  -1.6605  -1.4670  -1.4160
 -1.4134  -1.3697  -1.2228  -1.1933  -1.1647  -1.1363  -1.0841  -1.0510
 -1.0420  -1.0229  -1.0002  -0.9872  -0.9622  -0.9597  -0.9498  -0.9391
 -0.8948  -0.8678  -0.8489  -0.8087  -0.7964  -0.7877  -0.7857  -0.7639
 -0.7551  -0.7330  -0.7253  -0.7099  -0.7011  -0.6849  -0.6822  -0.6805
 -0.6737  -0.6587  -0.6576  -0.6520  -0.6295  -0.6194  -0.6166  -0.6054
 -0.5982  -0.5839  -0.5756  -0.5705  -0.5658  -0.5615  -0.5540  -0.5502
 -0.5308  -0.5289  -0.5234  -0.5157  -0.5144  -0.5081  -0.5048  -0.4950
 -0.4880  -0.4806  -0.4750  -0.4734  -0.4685  -0.4659  -0.4599  -0.4103
 -0.3946  -0.3860  -0.3574  -0.3495  -0.3200  -0.2944  -0.2551

          Ground-State Mulliken Net Atomic Charges

     Atom                 Charge (a.u.)
  ----------------------------------------
      1 C                    -0.190046
      2 C                    -0.253968
      3 S                    -0.023134
      4 C                    -0.017145
      5 H                     0.196084
      6 C                    -0.028583
      7 C                     0.239928
      8 C                     0.244584
      9 C                    -0.048621
     10 C                    -0.018381
     11 O                    -0.333600
     12 O                    -0.339880
     13 C                    -0.085654
     14 H                     0.122467
     15 H                     0.091037
     16 H                     0.093474
     17 C                    -0.086813
     18 H                     0.124883
     19 H                     0.094792
     20 H                     0.089259
     21 C                    -0.221979
     22 S                    -0.014057
     23 C                    -0.012965
     24 H                     0.201091
     25 H                     0.206103
     26 C                    -0.051344
     27 S                     0.113512
     28 C                    -0.177974
     29 C                    -0.051299
     30 C                    -0.078169
     31 S                     0.028816
     32 C                    -0.153460
     33 C                     0.392781
     34 F                    -0.206672
     35 C                     0.445827
     36 O                    -0.461240
     37 O                    -0.300982
     38 C                    -0.058397
     39 H                     0.121301
     40 H                     0.095157
     41 H                     0.095048
     42 H                     0.218217
  ----------------------------------------
  Sum of atomic charges =     0.000000

                    Cartesian Multipole Moments
 -----------------------------------------------------------------
    Charge (ESU x 10^10)
                 0.0000
    Dipole Moment (Debye)
         X       1.6580      Y       1.2128      Z       3.1535
       Tot       3.7636
    Quadrupole Moments (Debye-Ang)
        XX    -175.0376     XY       6.1527     YY    -165.2665
        XZ     -10.3784     YZ      -7.3294     ZZ    -204.2731

 Total job time:  286.72s(wall), 8779.25s(cpu)
        *  Thank you very much for using Q-Chem.  Have a nice day.  *
