 Q-Chem 5.4, Q-Chem, Inc., Pleasanton, CA (2021)
 Q-Chem 5.4.0 for Intel X86 EM64T Linux

User input:
--------------------------------------------------------------
$molecule
0 1
C	-0.147685	-8.517702	0.284919
C	0.212552	-7.641575	-0.728574
S	-0.661757	-7.638634	1.745304
C	0.083761	-6.264785	-0.374824
H	0.565513	-7.966081	-1.715621
C	-0.405665	-6.072714	0.965104
C	-0.574617	-4.787049	1.502136
C	0.413763	-5.162801	-1.214687
C	0.248748	-3.874817	-0.675870
C	-0.243888	-3.683952	0.664513
O	0.838511	-5.499772	-2.464209
O	-1.000176	-4.459055	2.757750
C	-1.893778	-5.329063	3.441858
H	-2.284868	-4.755694	4.303826
H	-1.383341	-6.238095	3.828743
H	-2.741817	-5.637262	2.792824
C	1.586168	-4.572261	-3.241222
H	1.974033	-5.139743	-4.108274
H	2.441448	-4.153131	-2.668916
H	0.954660	-3.739531	-3.620041
C	-0.369302	-2.306654	1.015668
S	0.517367	-2.306501	-1.453394
C	-0.000000	-1.435185	-0.000000
H	-0.724300	-1.978138	2.000559
H	-0.145124	-9.614033	0.288311
C	0.000000	0.000000	0.000000
S	0.157577	0.890937	1.507541
C	0.429889	2.439720	0.718873
C	0.157797	0.890576	-1.067872
C	0.396915	2.260004	-0.686410
S	0.118307	0.650207	-2.805516
C	0.417036	2.376229	-3.054530
C	0.537616	3.074202	-1.862551
F	0.764992	4.391378	-1.819088
C	0.496696	2.817118	-4.456084
O	0.370874	2.057582	-5.406510
O	0.723861	4.148418	-4.569225
C	0.814976	4.635075	-5.916207
H	0.999286	5.720591	-5.833064
H	-0.125909	4.442226	-6.470168
H	1.645504	4.140465	-6.459293
H	0.588993	3.350182	1.306486
$end

$rem
JOBTYPE		SP
EXCHANGE	HF
CORRELATION	pRIMP2
BASIS		cc-pvtz
METHOD		rimp2
AUX_BASIS	rimp2-cc-pvtz
SOLVENT_METHOD	PCM
PURECART	11111
SYMMETRY	false
MEM_TOTAL	110000
SCF_CONVERGENCE = 6
THRESH=10
GUI = 2
$end

$solvent
dielectric 4.90
$end
--------------------------------------------------------------

             Standard Nuclear Orientation (Angstroms)
    I     Atom           X                Y                Z
 ----------------------------------------------------------------
    1      C      -0.1476850000    -8.5177020000     0.2849190000
    2      C       0.2125520000    -7.6415750000    -0.7285740000
    3      S      -0.6617570000    -7.6386340000     1.7453040000
    4      C       0.0837610000    -6.2647850000    -0.3748240000
    5      H       0.5655130000    -7.9660810000    -1.7156210000
    6      C      -0.4056650000    -6.0727140000     0.9651040000
    7      C      -0.5746170000    -4.7870490000     1.5021360000
    8      C       0.4137630000    -5.1628010000    -1.2146870000
    9      C       0.2487480000    -3.8748170000    -0.6758700000
   10      C      -0.2438880000    -3.6839520000     0.6645130000
   11      O       0.8385110000    -5.4997720000    -2.4642090000
   12      O      -1.0001760000    -4.4590550000     2.7577500000
   13      C      -1.8937780000    -5.3290630000     3.4418580000
   14      H      -2.2848680000    -4.7556940000     4.3038260000
   15      H      -1.3833410000    -6.2380950000     3.8287430000
   16      H      -2.7418170000    -5.6372620000     2.7928240000
   17      C       1.5861680000    -4.5722610000    -3.2412220000
   18      H       1.9740330000    -5.1397430000    -4.1082740000
   19      H       2.4414480000    -4.1531310000    -2.6689160000
   20      H       0.9546600000    -3.7395310000    -3.6200410000
   21      C      -0.3693020000    -2.3066540000     1.0156680000
   22      S       0.5173670000    -2.3065010000    -1.4533940000
   23      C       0.0000000000    -1.4351850000     0.0000000000
   24      H      -0.7243000000    -1.9781380000     2.0005590000
   25      H      -0.1451240000    -9.6140330000     0.2883110000
   26      C       0.0000000000     0.0000000000     0.0000000000
   27      S       0.1575770000     0.8909370000     1.5075410000
   28      C       0.4298890000     2.4397200000     0.7188730000
   29      C       0.1577970000     0.8905760000    -1.0678720000
   30      C       0.3969150000     2.2600040000    -0.6864100000
   31      S       0.1183070000     0.6502070000    -2.8055160000
   32      C       0.4170360000     2.3762290000    -3.0545300000
   33      C       0.5376160000     3.0742020000    -1.8625510000
   34      F       0.7649920000     4.3913780000    -1.8190880000
   35      C       0.4966960000     2.8171180000    -4.4560840000
   36      O       0.3708740000     2.0575820000    -5.4065100000
   37      O       0.7238610000     4.1484180000    -4.5692250000
   38      C       0.8149760000     4.6350750000    -5.9162070000
   39      H       0.9992860000     5.7205910000    -5.8330640000
   40      H      -0.1259090000     4.4422260000    -6.4701680000
   41      H       1.6455040000     4.1404650000    -6.4592930000
   42      H       0.5889930000     3.3501820000     1.3064860000
 ----------------------------------------------------------------

   10   -2754.3144023056      7.70e-07  Convergence criterion met
 Total energy in the final basis set =    -2754.3144023056
        RIMP2         total energy =     -2759.3678506660 a.u.

                    Orbital Energies (a.u.)
 --------------------------------------------------------------

 Alpha MOs
 -- Occupied --
-92.0152 -91.9986 -91.9909 -91.9862 -26.3434 -20.6148 -20.5924 -20.5913
-20.5613 -11.4094 -11.3826 -11.3200 -11.3170 -11.3107 -11.3016 -11.3004
-11.2974 -11.2973 -11.2888 -11.2867 -11.2862 -11.2862 -11.2856 -11.2843
-11.2792 -11.2621 -11.2582 -11.2548 -11.2499  -9.0138  -8.9988  -8.9915
 -8.9862  -6.6946  -6.6940  -6.6934  -6.6797  -6.6790  -6.6779  -6.6724
 -6.6718  -6.6708  -6.6671  -6.6665  -6.6657  -1.6604  -1.4672  -1.4165
 -1.4141  -1.3699  -1.2225  -1.1948  -1.1660  -1.1365  -1.0860  -1.0522
 -1.0416  -1.0241  -1.0022  -0.9882  -0.9643  -0.9585  -0.9500  -0.9409
 -0.8960  -0.8681  -0.8519  -0.8149  -0.7921  -0.7879  -0.7859  -0.7652
 -0.7554  -0.7341  -0.7253  -0.7103  -0.6990  -0.6858  -0.6835  -0.6817
 -0.6738  -0.6592  -0.6582  -0.6526  -0.6309  -0.6199  -0.6168  -0.6035
 -0.5976  -0.5845  -0.5789  -0.5696  -0.5679  -0.5593  -0.5578  -0.5535
 -0.5325  -0.5295  -0.5247  -0.5191  -0.5174  -0.5112  -0.5065  -0.4954
 -0.4875  -0.4783  -0.4771  -0.4747  -0.4699  -0.4643  -0.4594  -0.4254
 -0.3943  -0.3856  -0.3603  -0.3515  -0.3251  -0.2904  -0.2495

          Ground-State Mulliken Net Atomic Charges

     Atom                 Charge (a.u.)
  ----------------------------------------
      1 C                    -0.190178
      2 C                    -0.253659
      3 S                    -0.022901
      4 C                    -0.018315
      5 H                     0.196382
      6 C                    -0.027535
      7 C                     0.240441
      8 C                     0.244308
      9 C                    -0.039375
     10 C                    -0.012092
     11 O                    -0.332771
     12 O                    -0.340634
     13 C                    -0.085710
     14 H                     0.122225
     15 H                     0.091099
     16 H                     0.094117
     17 C                    -0.089922
     18 H                     0.126187
     19 H                     0.095061
     20 H                     0.091399
     21 C                    -0.272055
     22 S                    -0.037247
     23 C                     0.029292
     24 H                     0.188253
     25 H                     0.206244
     26 C                     0.042917
     27 S                     0.099522
     28 C                    -0.190846
     29 C                    -0.043912
     30 C                    -0.109011
     31 S                     0.007950
     32 C                    -0.164747
     33 C                     0.410690
     34 F                    -0.207037
     35 C                     0.442195
     36 O                    -0.461104
     37 O                    -0.300694
     38 C                    -0.058666
     39 H                     0.121439
     40 H                     0.095219
     41 H                     0.095066
     42 H                     0.218408
  ----------------------------------------
  Sum of atomic charges =     0.000000

                    Cartesian Multipole Moments
 -----------------------------------------------------------------
    Charge (ESU x 10^10)
                 0.0000
    Dipole Moment (Debye)
         X       0.3544      Y       1.1954      Z       2.6870
       Tot       2.9622
    Quadrupole Moments (Debye-Ang)
        XX    -194.0841     XY       3.9686     YY    -160.7514
        XZ     -12.9138     YZ      -6.6194     ZZ    -188.6212

 Total job time:  306.30s(wall), 9714.42s(cpu)
        *  Thank you very much for using Q-Chem.  Have a nice day.  *
