 Q-Chem 5.4, Q-Chem, Inc., Pleasanton, CA (2021)
 Q-Chem 5.4.0 for Intel X86 EM64T Linux

User input:
--------------------------------------------------------------
$molecule
0 1
C	-0.318247	-8.517702	-0.041330
C	0.757333	-7.641575	-0.049453
S	-1.866383	-7.638634	-0.024919
C	0.380867	-6.264785	-0.049488
H	1.805573	-7.966081	-0.055368
C	-1.045647	-6.072714	-0.051115
C	-1.608077	-4.787049	-0.026203
C	1.282948	-5.162801	-0.026637
C	0.720187	-3.874817	0.002586
C	-0.707853	-3.683952	-0.001903
O	2.602386	-5.499772	-0.054867
O	-2.933517	-4.459055	0.003348
C	-3.881999	-5.329063	-0.602384
H	-4.825744	-4.755694	-0.675079
H	-4.070972	-6.238095	0.009592
H	-3.562152	-5.637262	-1.621263
C	3.588253	-4.572261	0.381947
H	4.535674	-5.139743	0.449872
H	3.342986	-4.153131	1.381388
H	3.728239	-3.739531	-0.341040
C	-1.080725	-2.306654	0.000348
S	1.542694	-2.306501	-0.010924
C	-0.000000	-1.435185	-0.000000
H	-2.127635	-1.978138	0.003612
H	-0.320559	-9.614033	-0.037764
C	0.000000	0.000000	0.000000
S	0.309893	0.850039	1.507541
C	0.847011	2.328006	0.718873
C	0.310046	0.849645	-1.067872
C	0.783331	2.156746	-0.686410
S	0.229416	0.619785	-2.805516
C	0.823328	2.267711	-3.054530
C	1.063278	2.934142	-1.862551
F	1.515925	4.191824	-1.819088
C	0.978337	2.688069	-4.456084
O	0.722535	1.961921	-5.406510
O	1.433229	3.959697	-4.569225
C	1.607467	4.423139	-5.916207
H	1.977475	5.460158	-5.833064
H	0.647388	4.396602	-6.470168
H	2.339490	3.791823	-6.459293
H	1.161798	3.197007	1.306486
$end

$rem
JOBTYPE		SP
EXCHANGE	HF
CORRELATION	pRIMP2
BASIS		cc-pvtz
METHOD		rimp2
AUX_BASIS	rimp2-cc-pvtz
SOLVENT_METHOD	PCM
PURECART	11111
SYMMETRY	false
MEM_TOTAL	110000
SCF_CONVERGENCE = 6
THRESH=10
GUI = 2
$end

$solvent
dielectric 4.90
$end
--------------------------------------------------------------

             Standard Nuclear Orientation (Angstroms)
    I     Atom           X                Y                Z
 ----------------------------------------------------------------
    1      C      -0.3182470000    -8.5177020000    -0.0413300000
    2      C       0.7573330000    -7.6415750000    -0.0494530000
    3      S      -1.8663830000    -7.6386340000    -0.0249190000
    4      C       0.3808670000    -6.2647850000    -0.0494880000
    5      H       1.8055730000    -7.9660810000    -0.0553680000
    6      C      -1.0456470000    -6.0727140000    -0.0511150000
    7      C      -1.6080770000    -4.7870490000    -0.0262030000
    8      C       1.2829480000    -5.1628010000    -0.0266370000
    9      C       0.7201870000    -3.8748170000     0.0025860000
   10      C      -0.7078530000    -3.6839520000    -0.0019030000
   11      O       2.6023860000    -5.4997720000    -0.0548670000
   12      O      -2.9335170000    -4.4590550000     0.0033480000
   13      C      -3.8819990000    -5.3290630000    -0.6023840000
   14      H      -4.8257440000    -4.7556940000    -0.6750790000
   15      H      -4.0709720000    -6.2380950000     0.0095920000
   16      H      -3.5621520000    -5.6372620000    -1.6212630000
   17      C       3.5882530000    -4.5722610000     0.3819470000
   18      H       4.5356740000    -5.1397430000     0.4498720000
   19      H       3.3429860000    -4.1531310000     1.3813880000
   20      H       3.7282390000    -3.7395310000    -0.3410400000
   21      C      -1.0807250000    -2.3066540000     0.0003480000
   22      S       1.5426940000    -2.3065010000    -0.0109240000
   23      C       0.0000000000    -1.4351850000     0.0000000000
   24      H      -2.1276350000    -1.9781380000     0.0036120000
   25      H      -0.3205590000    -9.6140330000    -0.0377640000
   26      C       0.0000000000     0.0000000000     0.0000000000
   27      S       0.3098930000     0.8500390000     1.5075410000
   28      C       0.8470110000     2.3280060000     0.7188730000
   29      C       0.3100460000     0.8496450000    -1.0678720000
   30      C       0.7833310000     2.1567460000    -0.6864100000
   31      S       0.2294160000     0.6197850000    -2.8055160000
   32      C       0.8233280000     2.2677110000    -3.0545300000
   33      C       1.0632780000     2.9341420000    -1.8625510000
   34      F       1.5159250000     4.1918240000    -1.8190880000
   35      C       0.9783370000     2.6880690000    -4.4560840000
   36      O       0.7225350000     1.9619210000    -5.4065100000
   37      O       1.4332290000     3.9596970000    -4.5692250000
   38      C       1.6074670000     4.4231390000    -5.9162070000
   39      H       1.9774750000     5.4601580000    -5.8330640000
   40      H       0.6473880000     4.3966020000    -6.4701680000
   41      H       2.3394900000     3.7918230000    -6.4592930000
   42      H       1.1617980000     3.1970070000     1.3064860000
 ----------------------------------------------------------------

   10   -2754.3077402676      7.30e-07  Convergence criterion met
 Total energy in the final basis set =    -2754.3077402676
        RIMP2         total energy =     -2759.3584537939 a.u.

                    Orbital Energies (a.u.)
 --------------------------------------------------------------

 Alpha MOs
 -- Occupied --
-92.0140 -91.9977 -91.9882 -91.9864 -26.3428 -20.6142 -20.5922 -20.5915
-20.5605 -11.4087 -11.3818 -11.3188 -11.3182 -11.3113 -11.3018 -11.2964
-11.2931 -11.2902 -11.2885 -11.2869 -11.2861 -11.2859 -11.2837 -11.2836
-11.2801 -11.2596 -11.2592 -11.2567 -11.2499  -9.0125  -8.9976  -8.9886
 -8.9863  -6.6932  -6.6926  -6.6921  -6.6786  -6.6779  -6.6768  -6.6695
 -6.6688  -6.6679  -6.6673  -6.6666  -6.6658  -1.6599  -1.4667  -1.4163
 -1.4143  -1.3693  -1.2208  -1.1939  -1.1649  -1.1353  -1.0840  -1.0517
 -1.0408  -1.0219  -1.0013  -0.9873  -0.9615  -0.9603  -0.9502  -0.9384
 -0.8956  -0.8669  -0.8504  -0.8098  -0.7928  -0.7883  -0.7861  -0.7648
 -0.7549  -0.7336  -0.7248  -0.7091  -0.7005  -0.6846  -0.6829  -0.6802
 -0.6734  -0.6590  -0.6572  -0.6526  -0.6301  -0.6200  -0.6172  -0.6052
 -0.5973  -0.5858  -0.5771  -0.5688  -0.5659  -0.5606  -0.5554  -0.5468
 -0.5334  -0.5305  -0.5233  -0.5157  -0.5148  -0.5090  -0.5037  -0.4944
 -0.4896  -0.4796  -0.4745  -0.4729  -0.4689  -0.4666  -0.4612  -0.4045
 -0.3973  -0.3868  -0.3564  -0.3493  -0.3130  -0.2995  -0.2594

          Ground-State Mulliken Net Atomic Charges

     Atom                 Charge (a.u.)
  ----------------------------------------
      1 C                    -0.187506
      2 C                    -0.254824
      3 S                    -0.022362
      4 C                    -0.012870
      5 H                     0.196486
      6 C                    -0.028715
      7 C                     0.245353
      8 C                     0.239231
      9 C                    -0.041696
     10 C                    -0.026277
     11 O                    -0.333257
     12 O                    -0.339641
     13 C                    -0.085749
     14 H                     0.122709
     15 H                     0.090858
     16 H                     0.094402
     17 C                    -0.086430
     18 H                     0.124787
     19 H                     0.094081
     20 H                     0.090287
     21 C                    -0.215288
     22 S                     0.001254
     23 C                    -0.073115
     24 H                     0.197493
     25 H                     0.206495
     26 C                    -0.008876
     27 S                     0.109999
     28 C                    -0.184599
     29 C                    -0.020415
     30 C                    -0.088154
     31 S                     0.012874
     32 C                    -0.154083
     33 C                     0.390163
     34 F                    -0.206705
     35 C                     0.446255
     36 O                    -0.461325
     37 O                    -0.300912
     38 C                    -0.058388
     39 H                     0.121161
     40 H                     0.095021
     41 H                     0.094997
     42 H                     0.217282
  ----------------------------------------
  Sum of atomic charges =     0.000000

                    Cartesian Multipole Moments
 -----------------------------------------------------------------
    Charge (ESU x 10^10)
                 0.0000
    Dipole Moment (Debye)
         X       1.0452      Y       0.8875      Z       2.7560
       Tot       3.0782
    Quadrupole Moments (Debye-Ang)
        XX    -176.3716     XY       5.6270     YY    -161.2886
        XZ       3.2471     YZ      -5.4030     ZZ    -205.2440

 Total job time:  305.33s(wall), 9813.20s(cpu)
        *  Thank you very much for using Q-Chem.  Have a nice day.  *
