 Q-Chem 5.4, Q-Chem, Inc., Pleasanton, CA (2021)
 Q-Chem 5.4.0 for Intel X86 EM64T Linux

User input:
--------------------------------------------------------------
$molecule
0 1
C	0.318247	-8.517702	0.041330
C	-0.757333	-7.641575	0.049453
S	1.866383	-7.638634	0.024919
C	-0.380867	-6.264785	0.049488
H	-1.805573	-7.966081	0.055368
C	1.045647	-6.072714	0.051115
C	1.608077	-4.787049	0.026203
C	-1.282948	-5.162801	0.026637
C	-0.720187	-3.874817	-0.002586
C	0.707853	-3.683952	0.001903
O	-2.602386	-5.499772	0.054867
O	2.933517	-4.459055	-0.003348
C	3.881999	-5.329063	0.602384
H	4.825744	-4.755694	0.675079
H	4.070972	-6.238095	-0.009592
H	3.562152	-5.637262	1.621263
C	-3.588253	-4.572261	-0.381947
H	-4.535674	-5.139743	-0.449872
H	-3.342986	-4.153131	-1.381388
H	-3.728239	-3.739531	0.341040
C	1.080725	-2.306654	-0.000348
S	-1.542694	-2.306501	0.010924
C	-0.000000	-1.435185	-0.000000
H	2.127635	-1.978138	-0.003612
H	0.320559	-9.614033	0.037764
C	0.000000	0.000000	0.000000
S	0.452792	0.783312	1.507541
C	1.238397	2.145556	0.718873
C	0.452875	0.782898	-1.067872
C	1.145945	1.987956	-0.686410
S	0.333556	0.570531	-2.805516
C	1.204604	2.090290	-3.054530
C	1.556633	2.704929	-1.862551
F	2.220797	3.864903	-1.819088
C	1.430252	2.477345	-4.456084
O	1.052242	1.806648	-5.406510
O	2.099050	3.650663	-4.569225
C	2.351116	4.076808	-5.916207
H	2.895579	5.033821	-5.833064
H	1.401015	4.217390	-6.470168
H	2.962391	3.327969	-6.459293
H	1.699302	2.946693	1.306486
$end

$rem
JOBTYPE		SP
EXCHANGE	HF
CORRELATION	pRIMP2
BASIS		cc-pvtz
METHOD		rimp2
AUX_BASIS	rimp2-cc-pvtz
SOLVENT_METHOD	PCM
PURECART	11111
SYMMETRY	false
MEM_TOTAL	110000
SCF_CONVERGENCE = 6
THRESH=10
GUI = 2
$end

$solvent
dielectric 4.90
$end
--------------------------------------------------------------

             Standard Nuclear Orientation (Angstroms)
    I     Atom           X                Y                Z
 ----------------------------------------------------------------
    1      C       0.3182470000    -8.5177020000     0.0413300000
    2      C      -0.7573330000    -7.6415750000     0.0494530000
    3      S       1.8663830000    -7.6386340000     0.0249190000
    4      C      -0.3808670000    -6.2647850000     0.0494880000
    5      H      -1.8055730000    -7.9660810000     0.0553680000
    6      C       1.0456470000    -6.0727140000     0.0511150000
    7      C       1.6080770000    -4.7870490000     0.0262030000
    8      C      -1.2829480000    -5.1628010000     0.0266370000
    9      C      -0.7201870000    -3.8748170000    -0.0025860000
   10      C       0.7078530000    -3.6839520000     0.0019030000
   11      O      -2.6023860000    -5.4997720000     0.0548670000
   12      O       2.9335170000    -4.4590550000    -0.0033480000
   13      C       3.8819990000    -5.3290630000     0.6023840000
   14      H       4.8257440000    -4.7556940000     0.6750790000
   15      H       4.0709720000    -6.2380950000    -0.0095920000
   16      H       3.5621520000    -5.6372620000     1.6212630000
   17      C      -3.5882530000    -4.5722610000    -0.3819470000
   18      H      -4.5356740000    -5.1397430000    -0.4498720000
   19      H      -3.3429860000    -4.1531310000    -1.3813880000
   20      H      -3.7282390000    -3.7395310000     0.3410400000
   21      C       1.0807250000    -2.3066540000    -0.0003480000
   22      S      -1.5426940000    -2.3065010000     0.0109240000
   23      C       0.0000000000    -1.4351850000     0.0000000000
   24      H       2.1276350000    -1.9781380000    -0.0036120000
   25      H       0.3205590000    -9.6140330000     0.0377640000
   26      C       0.0000000000     0.0000000000     0.0000000000
   27      S       0.4527920000     0.7833120000     1.5075410000
   28      C       1.2383970000     2.1455560000     0.7188730000
   29      C       0.4528750000     0.7828980000    -1.0678720000
   30      C       1.1459450000     1.9879560000    -0.6864100000
   31      S       0.3335560000     0.5705310000    -2.8055160000
   32      C       1.2046040000     2.0902900000    -3.0545300000
   33      C       1.5566330000     2.7049290000    -1.8625510000
   34      F       2.2207970000     3.8649030000    -1.8190880000
   35      C       1.4302520000     2.4773450000    -4.4560840000
   36      O       1.0522420000     1.8066480000    -5.4065100000
   37      O       2.0990500000     3.6506630000    -4.5692250000
   38      C       2.3511160000     4.0768080000    -5.9162070000
   39      H       2.8955790000     5.0338210000    -5.8330640000
   40      H       1.4010150000     4.2173900000    -6.4701680000
   41      H       2.9623910000     3.3279690000    -6.4592930000
   42      H       1.6993020000     2.9466930000     1.3064860000
 ----------------------------------------------------------------

   10   -2754.2981144318      8.17e-07  Convergence criterion met
 Total energy in the final basis set =    -2754.2981144318
        RIMP2         total energy =     -2759.3514378731 a.u.

                    Orbital Energies (a.u.)
 --------------------------------------------------------------

 Alpha MOs
 -- Occupied --
-92.0139 -91.9993 -91.9857 -91.9857 -26.3434 -20.6143 -20.5916 -20.5908
-20.5606 -11.4088 -11.3826 -11.3181 -11.3169 -11.3153 -11.3053 -11.2964
-11.2910 -11.2886 -11.2882 -11.2863 -11.2859 -11.2841 -11.2841 -11.2831
-11.2791 -11.2596 -11.2578 -11.2550 -11.2494  -9.0125  -8.9992  -8.9862
 -8.9856  -6.6932  -6.6925  -6.6921  -6.6802  -6.6795  -6.6784  -6.6671
 -6.6666  -6.6664  -6.6660  -6.6655  -6.6651  -1.6604  -1.4668  -1.4157
 -1.4136  -1.3695  -1.2222  -1.1930  -1.1643  -1.1358  -1.0836  -1.0508
 -1.0416  -1.0224  -1.0001  -0.9870  -0.9616  -0.9598  -0.9496  -0.9390
 -0.8944  -0.8675  -0.8485  -0.8102  -0.7935  -0.7884  -0.7855  -0.7640
 -0.7550  -0.7328  -0.7253  -0.7097  -0.7002  -0.6847  -0.6823  -0.6803
 -0.6735  -0.6586  -0.6571  -0.6521  -0.6293  -0.6195  -0.6164  -0.6054
 -0.5978  -0.5860  -0.5748  -0.5699  -0.5664  -0.5621  -0.5532  -0.5522
 -0.5306  -0.5268  -0.5224  -0.5156  -0.5139  -0.5088  -0.5035  -0.4937
 -0.4888  -0.4803  -0.4744  -0.4731  -0.4691  -0.4646  -0.4601  -0.4033
 -0.3969  -0.3863  -0.3589  -0.3456  -0.3124  -0.3016  -0.2574

          Ground-State Mulliken Net Atomic Charges

     Atom                 Charge (a.u.)
  ----------------------------------------
      1 C                    -0.189579
      2 C                    -0.254352
      3 S                    -0.023651
      4 C                    -0.016314
      5 H                     0.196283
      6 C                    -0.029253
      7 C                     0.240672
      8 C                     0.244143
      9 C                    -0.051663
     10 C                    -0.017384
     11 O                    -0.333603
     12 O                    -0.340239
     13 C                    -0.085635
     14 H                     0.122255
     15 H                     0.091093
     16 H                     0.093557
     17 C                    -0.086056
     18 H                     0.124395
     19 H                     0.094678
     20 H                     0.089430
     21 C                    -0.204984
     22 S                    -0.002074
     23 C                    -0.041220
     24 H                     0.198618
     25 H                     0.206121
     26 C                    -0.064591
     27 S                     0.111946
     28 C                    -0.176350
     29 C                    -0.016068
     30 C                    -0.084846
     31 S                     0.020620
     32 C                    -0.155040
     33 C                     0.390373
     34 F                    -0.206233
     35 C                     0.446962
     36 O                    -0.461687
     37 O                    -0.301070
     38 C                    -0.058399
     39 H                     0.121214
     40 H                     0.095038
     41 H                     0.095052
     42 H                     0.217843
  ----------------------------------------
  Sum of atomic charges =     0.000000

                    Cartesian Multipole Moments
 -----------------------------------------------------------------
    Charge (ESU x 10^10)
                 0.0000
    Dipole Moment (Debye)
         X       1.5257      Y       1.1954      Z       3.1944
       Tot       3.7364
    Quadrupole Moments (Debye-Ang)
        XX    -174.4741     XY       6.7528     YY    -165.4358
        XZ       2.1520     YZ      -7.6432     ZZ    -204.9727

 Total job time:  284.78s(wall), 8785.11s(cpu)
        *  Thank you very much for using Q-Chem.  Have a nice day.  *
