 Q-Chem 5.4, Q-Chem, Inc., Pleasanton, CA (2021)
 Q-Chem 5.4.0 for Intel X86 EM64T Linux

User input:
--------------------------------------------------------------
$molecule
0 1
C	0.284919	-8.517702	0.147685
C	-0.728574	-7.641575	-0.212552
S	1.745304	-7.638634	0.661757
C	-0.374824	-6.264785	-0.083761
H	-1.715621	-7.966081	-0.565513
C	0.965104	-6.072714	0.405665
C	1.502136	-4.787049	0.574617
C	-1.214687	-5.162801	-0.413763
C	-0.675870	-3.874817	-0.248748
C	0.664513	-3.683952	0.243888
O	-2.464209	-5.499772	-0.838511
O	2.757750	-4.459055	1.000176
C	3.441858	-5.329063	1.893778
H	4.303826	-4.755694	2.284868
H	3.828743	-6.238095	1.383341
H	2.792824	-5.637262	2.741817
C	-3.241222	-4.572261	-1.586168
H	-4.108274	-5.139743	-1.974033
H	-2.668916	-4.153131	-2.441448
H	-3.620041	-3.739531	-0.954660
C	1.015668	-2.306654	0.369302
S	-1.453394	-2.306501	-0.517367
C	-0.000000	-1.435185	-0.000000
H	2.000559	-1.978138	0.724300
H	0.288311	-9.614033	0.145124
C	0.000000	0.000000	0.000000
S	0.783786	0.451972	1.507541
C	2.145261	1.238908	0.718873
C	0.783650	0.451572	-1.067872
C	1.986396	1.148648	-0.686410
S	0.574133	0.327317	-2.805516
C	2.088363	1.207943	-3.054530
C	2.700548	1.564221	-1.862551
F	3.855718	2.236706	-1.819088
C	2.477307	1.430318	-4.456084
O	1.814592	1.038482	-5.406510
O	3.643162	2.112042	-4.569225
C	4.074530	2.355061	-5.916207
H	5.024556	2.911627	-5.833064
H	3.322010	2.951860	-6.470168
H	4.229490	1.400910	-6.459293
H	2.944986	1.702260	1.306486
$end

$rem
JOBTYPE		SP
EXCHANGE	HF
CORRELATION	pRIMP2
BASIS		cc-pvtz
METHOD		rimp2
AUX_BASIS	rimp2-cc-pvtz
SOLVENT_METHOD	PCM
PURECART	11111
SYMMETRY	false
MEM_TOTAL	110000
SCF_CONVERGENCE = 6
THRESH=10
GUI = 2
$end

$solvent
dielectric 4.90
$end
--------------------------------------------------------------

             Standard Nuclear Orientation (Angstroms)
    I     Atom           X                Y                Z
 ----------------------------------------------------------------
    1      C       0.2849190000    -8.5177020000     0.1476850000
    2      C      -0.7285740000    -7.6415750000    -0.2125520000
    3      S       1.7453040000    -7.6386340000     0.6617570000
    4      C      -0.3748240000    -6.2647850000    -0.0837610000
    5      H      -1.7156210000    -7.9660810000    -0.5655130000
    6      C       0.9651040000    -6.0727140000     0.4056650000
    7      C       1.5021360000    -4.7870490000     0.5746170000
    8      C      -1.2146870000    -5.1628010000    -0.4137630000
    9      C      -0.6758700000    -3.8748170000    -0.2487480000
   10      C       0.6645130000    -3.6839520000     0.2438880000
   11      O      -2.4642090000    -5.4997720000    -0.8385110000
   12      O       2.7577500000    -4.4590550000     1.0001760000
   13      C       3.4418580000    -5.3290630000     1.8937780000
   14      H       4.3038260000    -4.7556940000     2.2848680000
   15      H       3.8287430000    -6.2380950000     1.3833410000
   16      H       2.7928240000    -5.6372620000     2.7418170000
   17      C      -3.2412220000    -4.5722610000    -1.5861680000
   18      H      -4.1082740000    -5.1397430000    -1.9740330000
   19      H      -2.6689160000    -4.1531310000    -2.4414480000
   20      H      -3.6200410000    -3.7395310000    -0.9546600000
   21      C       1.0156680000    -2.3066540000     0.3693020000
   22      S      -1.4533940000    -2.3065010000    -0.5173670000
   23      C       0.0000000000    -1.4351850000     0.0000000000
   24      H       2.0005590000    -1.9781380000     0.7243000000
   25      H       0.2883110000    -9.6140330000     0.1451240000
   26      C       0.0000000000     0.0000000000     0.0000000000
   27      S       0.7837860000     0.4519720000     1.5075410000
   28      C       2.1452610000     1.2389080000     0.7188730000
   29      C       0.7836500000     0.4515720000    -1.0678720000
   30      C       1.9863960000     1.1486480000    -0.6864100000
   31      S       0.5741330000     0.3273170000    -2.8055160000
   32      C       2.0883630000     1.2079430000    -3.0545300000
   33      C       2.7005480000     1.5642210000    -1.8625510000
   34      F       3.8557180000     2.2367060000    -1.8190880000
   35      C       2.4773070000     1.4303180000    -4.4560840000
   36      O       1.8145920000     1.0384820000    -5.4065100000
   37      O       3.6431620000     2.1120420000    -4.5692250000
   38      C       4.0745300000     2.3550610000    -5.9162070000
   39      H       5.0245560000     2.9116270000    -5.8330640000
   40      H       3.3220100000     2.9518600000    -6.4701680000
   41      H       4.2294900000     1.4009100000    -6.4592930000
   42      H       2.9449860000     1.7022600000     1.3064860000
 ----------------------------------------------------------------

   11   -2754.2502439575      4.71e-07  Convergence criterion met
 Total energy in the final basis set =    -2754.2502439575
        RIMP2         total energy =     -2759.3134465781 a.u.

                    Orbital Energies (a.u.)
 --------------------------------------------------------------

 Alpha MOs
 -- Occupied --
-92.0135 -92.0092 -91.9834 -91.9810 -26.3462 -20.6151 -20.5902 -20.5883
-20.5612 -11.4100 -11.3870 -11.3346 -11.3232 -11.3161 -11.3115 -11.2972
-11.2936 -11.2891 -11.2869 -11.2850 -11.2848 -11.2810 -11.2786 -11.2757
-11.2670 -11.2570 -11.2532 -11.2478 -11.2424  -9.0128  -9.0088  -8.9834
 -8.9817  -6.6934  -6.6925  -6.6923  -6.6896  -6.6889  -6.6879  -6.6644
 -6.6638  -6.6629  -6.6626  -6.6619  -6.6610  -1.6632  -1.4676  -1.4141
 -1.4111  -1.3703  -1.2334  -1.1899  -1.1646  -1.1394  -1.0842  -1.0478
 -1.0455  -1.0263  -0.9968  -0.9869  -0.9647  -0.9571  -0.9480  -0.9401
 -0.8918  -0.8713  -0.8422  -0.8157  -0.7943  -0.7864  -0.7831  -0.7628
 -0.7555  -0.7304  -0.7278  -0.7129  -0.6990  -0.6859  -0.6826  -0.6795
 -0.6744  -0.6597  -0.6566  -0.6505  -0.6289  -0.6177  -0.6145  -0.6087
 -0.6007  -0.5906  -0.5746  -0.5682  -0.5655  -0.5636  -0.5527  -0.5464
 -0.5314  -0.5222  -0.5191  -0.5147  -0.5121  -0.5101  -0.5023  -0.4919
 -0.4880  -0.4843  -0.4749  -0.4730  -0.4667  -0.4603  -0.4565  -0.4058
 -0.3911  -0.3861  -0.3651  -0.3386  -0.3158  -0.3026  -0.2512

          Ground-State Mulliken Net Atomic Charges

     Atom                 Charge (a.u.)
  ----------------------------------------
      1 C                    -0.196505
      2 C                    -0.254002
      3 S                    -0.028885
      4 C                    -0.020505
      5 H                     0.195344
      6 C                    -0.025766
      7 C                     0.229014
      8 C                     0.243401
      9 C                    -0.045083
     10 C                    -0.018864
     11 O                    -0.333717
     12 O                    -0.342756
     13 C                    -0.085799
     14 H                     0.120731
     15 H                     0.090793
     16 H                     0.092922
     17 C                    -0.086484
     18 H                     0.124210
     19 H                     0.094404
     20 H                     0.089629
     21 C                    -0.267579
     22 S                    -0.025887
     23 C                     0.003545
     24 H                     0.192354
     25 H                     0.204816
     26 C                    -0.172731
     27 S                     0.126230
     28 C                    -0.130397
     29 C                     0.092592
     30 C                    -0.115558
     31 S                     0.055307
     32 C                    -0.154845
     33 C                     0.394949
     34 F                    -0.204047
     35 C                     0.449172
     36 O                    -0.463240
     37 O                    -0.301569
     38 C                    -0.058173
     39 H                     0.121352
     40 H                     0.095128
     41 H                     0.095293
     42 H                     0.221205
  ----------------------------------------
  Sum of atomic charges =     0.000000

                    Cartesian Multipole Moments
 -----------------------------------------------------------------
    Charge (ESU x 10^10)
                 0.0000
    Dipole Moment (Debye)
         X       3.3508      Y       1.7819      Z       2.7556
       Tot       4.6900
    Quadrupole Moments (Debye-Ang)
        XX    -172.0277     XY       9.0914     YY    -180.8179
        XZ       5.1898     YZ      -4.5756     ZZ    -197.0289

 Total job time:  333.56s(wall), 10081.44s(cpu)
        *  Thank you very much for using Q-Chem.  Have a nice day.  *
