 Q-Chem 5.4, Q-Chem, Inc., Pleasanton, CA (2021)
 Q-Chem 5.4.0 for Intel X86 EM64T Linux

User input:
--------------------------------------------------------------
$molecule
0 1
C	0.254945	-8.517702	0.194917
C	-0.680596	-7.641575	-0.335839
S	1.603876	-7.638634	0.954772
C	-0.354585	-6.264785	-0.147576
H	-1.591356	-7.966081	-0.854836
C	0.879999	-6.072714	0.567090
C	1.379534	-4.787049	0.826731
C	-1.124384	-5.162801	-0.618405
C	-0.622407	-3.874817	-0.362333
C	0.612067	-3.683952	0.355575
O	-2.281166	-5.499772	-1.253677
O	2.542174	-4.459055	1.463859
C	3.060718	-5.329063	2.462679
H	3.841678	-4.755694	2.997507
H	3.530361	-6.238095	2.027179
H	2.274283	-5.637262	3.185132
C	-2.916545	-4.572261	-2.124902
H	-3.703073	-5.139743	-2.657438
H	-2.204417	-4.153131	-2.867810
H	-3.399269	-3.739531	-1.568770
C	0.936109	-2.306654	0.540061
S	-1.341474	-2.306501	-0.761887
C	0.000000	-1.435185	0.000000
H	1.844392	-1.978138	1.060690
H	0.258730	-9.614033	0.192984
C	0.000000	0.000000	0.000000
S	0.693394	0.581209	1.507541
C	1.897536	1.592607	0.718873
C	0.693330	0.580791	-1.067872
C	1.756758	1.476132	-0.686410
S	0.508573	0.422041	-2.805516
C	1.846879	1.552232	-3.054530
C	2.387897	2.009402	-1.862551
F	3.408741	2.872264	-1.819088
C	2.191300	1.838768	-4.456084
O	1.606694	1.337806	-5.406510
O	3.221062	2.712584	-4.569225
C	3.603677	3.026817	-5.916207
H	4.442623	3.739898	-5.833064
H	2.758956	3.483875	-6.470168
H	3.921969	2.114070	-6.459293
H	2.604650	2.187790	1.306486
$end

$rem
JOBTYPE		SP
EXCHANGE	HF
CORRELATION	pRIMP2
BASIS		cc-pvtz
METHOD		rimp2
AUX_BASIS	rimp2-cc-pvtz
SOLVENT_METHOD	PCM
PURECART	11111
SYMMETRY	false
MEM_TOTAL	110000
SCF_CONVERGENCE = 6
THRESH=10
GUI = 2
$end

$solvent
dielectric 4.90
$end
--------------------------------------------------------------

             Standard Nuclear Orientation (Angstroms)
    I     Atom           X                Y                Z
 ----------------------------------------------------------------
    1      C       0.2549450000    -8.5177020000     0.1949170000
    2      C      -0.6805960000    -7.6415750000    -0.3358390000
    3      S       1.6038760000    -7.6386340000     0.9547720000
    4      C      -0.3545850000    -6.2647850000    -0.1475760000
    5      H      -1.5913560000    -7.9660810000    -0.8548360000
    6      C       0.8799990000    -6.0727140000     0.5670900000
    7      C       1.3795340000    -4.7870490000     0.8267310000
    8      C      -1.1243840000    -5.1628010000    -0.6184050000
    9      C      -0.6224070000    -3.8748170000    -0.3623330000
   10      C       0.6120670000    -3.6839520000     0.3555750000
   11      O      -2.2811660000    -5.4997720000    -1.2536770000
   12      O       2.5421740000    -4.4590550000     1.4638590000
   13      C       3.0607180000    -5.3290630000     2.4626790000
   14      H       3.8416780000    -4.7556940000     2.9975070000
   15      H       3.5303610000    -6.2380950000     2.0271790000
   16      H       2.2742830000    -5.6372620000     3.1851320000
   17      C      -2.9165450000    -4.5722610000    -2.1249020000
   18      H      -3.7030730000    -5.1397430000    -2.6574380000
   19      H      -2.2044170000    -4.1531310000    -2.8678100000
   20      H      -3.3992690000    -3.7395310000    -1.5687700000
   21      C       0.9361090000    -2.3066540000     0.5400610000
   22      S      -1.3414740000    -2.3065010000    -0.7618870000
   23      C       0.0000000000    -1.4351850000     0.0000000000
   24      H       1.8443920000    -1.9781380000     1.0606900000
   25      H       0.2587300000    -9.6140330000     0.1929840000
   26      C       0.0000000000     0.0000000000     0.0000000000
   27      S       0.6933940000     0.5812090000     1.5075410000
   28      C       1.8975360000     1.5926070000     0.7188730000
   29      C       0.6933300000     0.5807910000    -1.0678720000
   30      C       1.7567580000     1.4761320000    -0.6864100000
   31      S       0.5085730000     0.4220410000    -2.8055160000
   32      C       1.8468790000     1.5522320000    -3.0545300000
   33      C       2.3878970000     2.0094020000    -1.8625510000
   34      F       3.4087410000     2.8722640000    -1.8190880000
   35      C       2.1913000000     1.8387680000    -4.4560840000
   36      O       1.6066940000     1.3378060000    -5.4065100000
   37      O       3.2210620000     2.7125840000    -4.5692250000
   38      C       3.6036770000     3.0268170000    -5.9162070000
   39      H       4.4426230000     3.7398980000    -5.8330640000
   40      H       2.7589560000     3.4838750000    -6.4701680000
   41      H       3.9219690000     2.1140700000    -6.4592930000
   42      H       2.6046500000     2.1877900000     1.3064860000
 ----------------------------------------------------------------

   10   -2754.2715330432      9.52e-07  Convergence criterion met
 Total energy in the final basis set =    -2754.2715330432
        RIMP2         total energy =     -2759.3315078231 a.u.

                    Orbital Energies (a.u.)
 --------------------------------------------------------------

 Alpha MOs
 -- Occupied --
-92.0143 -92.0060 -91.9841 -91.9838 -26.3453 -20.6150 -20.5907 -20.5888
-20.5612 -11.4098 -11.3854 -11.3272 -11.3170 -11.3166 -11.3127 -11.2973
-11.2946 -11.2890 -11.2867 -11.2855 -11.2850 -11.2817 -11.2805 -11.2776
-11.2764 -11.2579 -11.2543 -11.2482 -11.2454  -9.0133  -9.0057  -8.9844
 -8.9840  -6.6939  -6.6931  -6.6928  -6.6866  -6.6858  -6.6848  -6.6653
 -6.6650  -6.6646  -6.6644  -6.6637  -6.6635  -1.6623  -1.4675  -1.4147
 -1.4117  -1.3702  -1.2292  -1.1910  -1.1643  -1.1385  -1.0841  -1.0487
 -1.0443  -1.0254  -0.9980  -0.9868  -0.9643  -0.9575  -0.9484  -0.9402
 -0.8927  -0.8702  -0.8447  -0.8152  -0.7933  -0.7863  -0.7842  -0.7632
 -0.7555  -0.7310  -0.7270  -0.7119  -0.6988  -0.6857  -0.6824  -0.6801
 -0.6742  -0.6590  -0.6570  -0.6509  -0.6289  -0.6181  -0.6149  -0.6066
 -0.6006  -0.5899  -0.5747  -0.5677  -0.5656  -0.5647  -0.5532  -0.5487
 -0.5313  -0.5232  -0.5202  -0.5137  -0.5133  -0.5113  -0.5032  -0.4924
 -0.4884  -0.4825  -0.4748  -0.4732  -0.4682  -0.4617  -0.4576  -0.4110
 -0.3920  -0.3854  -0.3630  -0.3424  -0.3176  -0.2991  -0.2524

          Ground-State Mulliken Net Atomic Charges

     Atom                 Charge (a.u.)
  ----------------------------------------
      1 C                    -0.195139
      2 C                    -0.253581
      3 S                    -0.027035
      4 C                    -0.019819
      5 H                     0.195599
      6 C                    -0.026493
      7 C                     0.232466
      8 C                     0.243807
      9 C                    -0.043297
     10 C                    -0.015350
     11 O                    -0.333581
     12 O                    -0.341949
     13 C                    -0.085649
     14 H                     0.121134
     15 H                     0.090787
     16 H                     0.093092
     17 C                    -0.086837
     18 H                     0.124405
     19 H                     0.094846
     20 H                     0.089600
     21 C                    -0.266980
     22 S                    -0.022119
     23 C                    -0.004472
     24 H                     0.193785
     25 H                     0.205135
     26 C                    -0.116129
     27 S                     0.111318
     28 C                    -0.144141
     29 C                     0.061052
     30 C                    -0.105808
     31 S                     0.040009
     32 C                    -0.152086
     33 C                     0.390701
     34 F                    -0.204665
     35 C                     0.448040
     36 O                    -0.462494
     37 O                    -0.301364
     38 C                    -0.058267
     39 H                     0.121336
     40 H                     0.095098
     41 H                     0.095265
     42 H                     0.219779
  ----------------------------------------
  Sum of atomic charges =     0.000000

                    Cartesian Multipole Moments
 -----------------------------------------------------------------
    Charge (ESU x 10^10)
                -0.0000
    Dipole Moment (Debye)
         X       2.5792      Y       1.8225      Z       2.7792
       Tot       4.2069
    Quadrupole Moments (Debye-Ang)
        XX    -179.2191     XY       9.8835     YY    -175.9549
        XZ       6.7875     YZ      -5.4487     ZZ    -193.4736

 Total job time:  285.68s(wall), 8863.30s(cpu)
        *  Thank you very much for using Q-Chem.  Have a nice day.  *
