 Q-Chem 5.4, Q-Chem, Inc., Pleasanton, CA (2021)
 Q-Chem 5.4.0 for Intel X86 EM64T Linux

User input:
--------------------------------------------------------------
$molecule
0 1
C	0.320589	-8.517702	-0.014560
C	-0.737240	-7.641575	0.180211
S	1.842356	-7.638634	-0.299553
C	-0.366488	-6.264785	0.114873
H	-1.768528	-7.966081	0.368061
C	1.038637	-6.072714	-0.131236
C	1.588197	-4.787049	-0.253435
C	-1.258831	-5.162801	0.249014
C	-0.709695	-3.874817	0.122513
C	0.697430	-3.683952	-0.121043
O	-2.553323	-5.499772	0.505933
O	2.888369	-4.459055	-0.512697
C	3.927625	-5.329063	-0.080869
H	4.869656	-4.755694	-0.173159
H	4.007459	-6.238095	-0.716363
H	3.789565	-5.637262	0.978072
C	-3.600064	-4.572261	0.246949
H	-4.544887	-5.139743	0.344574
H	-3.532074	-4.153131	-0.779898
H	-3.612378	-3.739531	0.983261
C	1.064246	-2.306654	-0.188009
S	-1.517360	-2.306501	0.278644
C	-0.000000	-1.435185	-0.000000
H	2.094685	-1.978138	-0.373017
H	0.322246	-9.614033	-0.018474
C	0.000000	0.000000	0.000000
S	0.157577	0.890937	1.507541
C	0.429889	2.439720	0.718873
C	0.157797	0.890576	-1.067872
C	0.396915	2.260004	-0.686410
S	0.118307	0.650207	-2.805516
C	0.417036	2.376229	-3.054530
C	0.537616	3.074202	-1.862551
F	0.764992	4.391378	-1.819088
C	0.496696	2.817118	-4.456084
O	0.370874	2.057582	-5.406510
O	0.723861	4.148418	-4.569225
C	0.814976	4.635075	-5.916207
H	0.999286	5.720591	-5.833064
H	-0.125909	4.442226	-6.470168
H	1.645504	4.140465	-6.459293
H	0.588993	3.350182	1.306486
$end

$rem
JOBTYPE		SP
EXCHANGE	HF
CORRELATION	pRIMP2
BASIS		cc-pvtz
METHOD		rimp2
AUX_BASIS	rimp2-cc-pvtz
SOLVENT_METHOD	PCM
PURECART	11111
SYMMETRY	false
MEM_TOTAL	110000
SCF_CONVERGENCE = 6
THRESH=10
GUI = 2
$end

$solvent
dielectric 4.90
$end
--------------------------------------------------------------

             Standard Nuclear Orientation (Angstroms)
    I     Atom           X                Y                Z
 ----------------------------------------------------------------
    1      C       0.3205890000    -8.5177020000    -0.0145600000
    2      C      -0.7372400000    -7.6415750000     0.1802110000
    3      S       1.8423560000    -7.6386340000    -0.2995530000
    4      C      -0.3664880000    -6.2647850000     0.1148730000
    5      H      -1.7685280000    -7.9660810000     0.3680610000
    6      C       1.0386370000    -6.0727140000    -0.1312360000
    7      C       1.5881970000    -4.7870490000    -0.2534350000
    8      C      -1.2588310000    -5.1628010000     0.2490140000
    9      C      -0.7096950000    -3.8748170000     0.1225130000
   10      C       0.6974300000    -3.6839520000    -0.1210430000
   11      O      -2.5533230000    -5.4997720000     0.5059330000
   12      O       2.8883690000    -4.4590550000    -0.5126970000
   13      C       3.9276250000    -5.3290630000    -0.0808690000
   14      H       4.8696560000    -4.7556940000    -0.1731590000
   15      H       4.0074590000    -6.2380950000    -0.7163630000
   16      H       3.7895650000    -5.6372620000     0.9780720000
   17      C      -3.6000640000    -4.5722610000     0.2469490000
   18      H      -4.5448870000    -5.1397430000     0.3445740000
   19      H      -3.5320740000    -4.1531310000    -0.7798980000
   20      H      -3.6123780000    -3.7395310000     0.9832610000
   21      C       1.0642460000    -2.3066540000    -0.1880090000
   22      S      -1.5173600000    -2.3065010000     0.2786440000
   23      C       0.0000000000    -1.4351850000     0.0000000000
   24      H       2.0946850000    -1.9781380000    -0.3730170000
   25      H       0.3222460000    -9.6140330000    -0.0184740000
   26      C       0.0000000000     0.0000000000     0.0000000000
   27      S       0.1575770000     0.8909370000     1.5075410000
   28      C       0.4298890000     2.4397200000     0.7188730000
   29      C       0.1577970000     0.8905760000    -1.0678720000
   30      C       0.3969150000     2.2600040000    -0.6864100000
   31      S       0.1183070000     0.6502070000    -2.8055160000
   32      C       0.4170360000     2.3762290000    -3.0545300000
   33      C       0.5376160000     3.0742020000    -1.8625510000
   34      F       0.7649920000     4.3913780000    -1.8190880000
   35      C       0.4966960000     2.8171180000    -4.4560840000
   36      O       0.3708740000     2.0575820000    -5.4065100000
   37      O       0.7238610000     4.1484180000    -4.5692250000
   38      C       0.8149760000     4.6350750000    -5.9162070000
   39      H       0.9992860000     5.7205910000    -5.8330640000
   40      H      -0.1259090000     4.4422260000    -6.4701680000
   41      H       1.6455040000     4.1404650000    -6.4592930000
   42      H       0.5889930000     3.3501820000     1.3064860000
 ----------------------------------------------------------------

   10   -2754.3123658373      7.01e-07  Convergence criterion met
 Total energy in the final basis set =    -2754.3123658373
        RIMP2         total energy =     -2759.3620450299 a.u.

                    Orbital Energies (a.u.)
 --------------------------------------------------------------

 Alpha MOs
 -- Occupied --
-92.0143 -91.9965 -91.9884 -91.9865 -26.3425 -20.6141 -20.5923 -20.5917
-20.5604 -11.4085 -11.3813 -11.3190 -11.3185 -11.3093 -11.3005 -11.2962
-11.2958 -11.2916 -11.2884 -11.2869 -11.2863 -11.2861 -11.2840 -11.2833
-11.2802 -11.2606 -11.2594 -11.2584 -11.2501  -9.0127  -8.9965  -8.9888
 -8.9864  -6.6934  -6.6928  -6.6923  -6.6775  -6.6768  -6.6757  -6.6697
 -6.6690  -6.6681  -6.6674  -6.6668  -6.6659  -1.6596  -1.4666  -1.4164
 -1.4145  -1.3692  -1.2198  -1.1943  -1.1652  -1.1348  -1.0842  -1.0520
 -1.0405  -1.0215  -1.0015  -0.9876  -0.9609  -0.9608  -0.9503  -0.9385
 -0.8956  -0.8665  -0.8511  -0.8087  -0.7944  -0.7884  -0.7864  -0.7647
 -0.7548  -0.7339  -0.7245  -0.7089  -0.7009  -0.6844  -0.6832  -0.6799
 -0.6733  -0.6592  -0.6569  -0.6527  -0.6303  -0.6202  -0.6172  -0.6046
 -0.5968  -0.5846  -0.5770  -0.5703  -0.5668  -0.5614  -0.5538  -0.5510
 -0.5311  -0.5304  -0.5240  -0.5163  -0.5147  -0.5083  -0.5038  -0.4947
 -0.4894  -0.4789  -0.4750  -0.4728  -0.4695  -0.4664  -0.4610  -0.4059
 -0.3967  -0.3873  -0.3576  -0.3481  -0.3151  -0.2979  -0.2589

          Ground-State Mulliken Net Atomic Charges

     Atom                 Charge (a.u.)
  ----------------------------------------
      1 C                    -0.187627
      2 C                    -0.254136
      3 S                    -0.021739
      4 C                    -0.014060
      5 H                     0.196436
      6 C                    -0.028424
      7 C                     0.242733
      8 C                     0.240717
      9 C                    -0.052481
     10 C                    -0.026857
     11 O                    -0.333519
     12 O                    -0.339588
     13 C                    -0.085793
     14 H                     0.122763
     15 H                     0.091298
     16 H                     0.093858
     17 C                    -0.086317
     18 H                     0.124561
     19 H                     0.095139
     20 H                     0.089553
     21 C                    -0.204778
     22 S                     0.001987
     23 C                    -0.038531
     24 H                     0.198660
     25 H                     0.206540
     26 C                    -0.049607
     27 S                     0.108557
     28 C                    -0.185694
     29 C                     0.006936
     30 C                    -0.103713
     31 S                     0.009214
     32 C                    -0.154941
     33 C                     0.392138
     34 F                    -0.207158
     35 C                     0.445842
     36 O                    -0.461306
     37 O                    -0.300685
     38 C                    -0.058604
     39 H                     0.121150
     40 H                     0.095032
     41 H                     0.094972
     42 H                     0.217473
  ----------------------------------------
  Sum of atomic charges =     0.000000

                    Cartesian Multipole Moments
 -----------------------------------------------------------------
    Charge (ESU x 10^10)
                -0.0000
    Dipole Moment (Debye)
         X       0.5170      Y       0.8352      Z       3.2912
       Tot       3.4347
    Quadrupole Moments (Debye-Ang)
        XX    -176.4618     XY       1.8956     YY    -159.7372
        XZ       0.3222     YZ      -8.4531     ZZ    -206.7557

 Total job time:  302.18s(wall), 9494.80s(cpu)
        *  Thank you very much for using Q-Chem.  Have a nice day.  *
