 Q-Chem 5.4, Q-Chem, Inc., Pleasanton, CA (2021)
 Q-Chem 5.4.0 for Intel X86 EM64T Linux

User input:
--------------------------------------------------------------
$molecule
0 1
C	0.318247	-8.517702	0.041330
C	-0.757333	-7.641575	0.049453
S	1.866383	-7.638634	0.024919
C	-0.380867	-6.264785	0.049488
H	-1.805573	-7.966081	0.055368
C	1.045647	-6.072714	0.051115
C	1.608077	-4.787049	0.026203
C	-1.282948	-5.162801	0.026637
C	-0.720187	-3.874817	-0.002586
C	0.707853	-3.683952	0.001903
O	-2.602386	-5.499772	0.054867
O	2.933517	-4.459055	-0.003348
C	3.881999	-5.329063	0.602384
H	4.825744	-4.755694	0.675079
H	4.070972	-6.238095	-0.009592
H	3.562152	-5.637262	1.621263
C	-3.588253	-4.572261	-0.381947
H	-4.535674	-5.139743	-0.449872
H	-3.342986	-4.153131	-1.381388
H	-3.728239	-3.739531	0.341040
C	1.080725	-2.306654	-0.000348
S	-1.542694	-2.306501	0.010924
C	-0.000000	-1.435185	-0.000000
H	2.127635	-1.978138	-0.003612
H	0.320559	-9.614033	0.037764
C	0.000000	0.000000	0.000000
S	0.309893	0.850039	1.507541
C	0.847011	2.328006	0.718873
C	0.310046	0.849645	-1.067872
C	0.783331	2.156746	-0.686410
S	0.229416	0.619785	-2.805516
C	0.823328	2.267711	-3.054530
C	1.063278	2.934142	-1.862551
F	1.515925	4.191824	-1.819088
C	0.978337	2.688069	-4.456084
O	0.722535	1.961921	-5.406510
O	1.433229	3.959697	-4.569225
C	1.607467	4.423139	-5.916207
H	1.977475	5.460158	-5.833064
H	0.647388	4.396602	-6.470168
H	2.339490	3.791823	-6.459293
H	1.161798	3.197007	1.306486
$end

$rem
JOBTYPE		SP
EXCHANGE	HF
CORRELATION	pRIMP2
BASIS		cc-pvtz
METHOD		rimp2
AUX_BASIS	rimp2-cc-pvtz
SOLVENT_METHOD	PCM
PURECART	11111
SYMMETRY	false
MEM_TOTAL	110000
SCF_CONVERGENCE = 6
THRESH=10
GUI = 2
$end

$solvent
dielectric 4.90
$end
--------------------------------------------------------------

             Standard Nuclear Orientation (Angstroms)
    I     Atom           X                Y                Z
 ----------------------------------------------------------------
    1      C       0.3182470000    -8.5177020000     0.0413300000
    2      C      -0.7573330000    -7.6415750000     0.0494530000
    3      S       1.8663830000    -7.6386340000     0.0249190000
    4      C      -0.3808670000    -6.2647850000     0.0494880000
    5      H      -1.8055730000    -7.9660810000     0.0553680000
    6      C       1.0456470000    -6.0727140000     0.0511150000
    7      C       1.6080770000    -4.7870490000     0.0262030000
    8      C      -1.2829480000    -5.1628010000     0.0266370000
    9      C      -0.7201870000    -3.8748170000    -0.0025860000
   10      C       0.7078530000    -3.6839520000     0.0019030000
   11      O      -2.6023860000    -5.4997720000     0.0548670000
   12      O       2.9335170000    -4.4590550000    -0.0033480000
   13      C       3.8819990000    -5.3290630000     0.6023840000
   14      H       4.8257440000    -4.7556940000     0.6750790000
   15      H       4.0709720000    -6.2380950000    -0.0095920000
   16      H       3.5621520000    -5.6372620000     1.6212630000
   17      C      -3.5882530000    -4.5722610000    -0.3819470000
   18      H      -4.5356740000    -5.1397430000    -0.4498720000
   19      H      -3.3429860000    -4.1531310000    -1.3813880000
   20      H      -3.7282390000    -3.7395310000     0.3410400000
   21      C       1.0807250000    -2.3066540000    -0.0003480000
   22      S      -1.5426940000    -2.3065010000     0.0109240000
   23      C       0.0000000000    -1.4351850000     0.0000000000
   24      H       2.1276350000    -1.9781380000    -0.0036120000
   25      H       0.3205590000    -9.6140330000     0.0377640000
   26      C       0.0000000000     0.0000000000     0.0000000000
   27      S       0.3098930000     0.8500390000     1.5075410000
   28      C       0.8470110000     2.3280060000     0.7188730000
   29      C       0.3100460000     0.8496450000    -1.0678720000
   30      C       0.7833310000     2.1567460000    -0.6864100000
   31      S       0.2294160000     0.6197850000    -2.8055160000
   32      C       0.8233280000     2.2677110000    -3.0545300000
   33      C       1.0632780000     2.9341420000    -1.8625510000
   34      F       1.5159250000     4.1918240000    -1.8190880000
   35      C       0.9783370000     2.6880690000    -4.4560840000
   36      O       0.7225350000     1.9619210000    -5.4065100000
   37      O       1.4332290000     3.9596970000    -4.5692250000
   38      C       1.6074670000     4.4231390000    -5.9162070000
   39      H       1.9774750000     5.4601580000    -5.8330640000
   40      H       0.6473880000     4.3966020000    -6.4701680000
   41      H       2.3394900000     3.7918230000    -6.4592930000
   42      H       1.1617980000     3.1970070000     1.3064860000
 ----------------------------------------------------------------

   10   -2754.3067997904      7.35e-07  Convergence criterion met
 Total energy in the final basis set =    -2754.3067997904
        RIMP2         total energy =     -2759.3579269399 a.u.

                    Orbital Energies (a.u.)
 --------------------------------------------------------------

 Alpha MOs
 -- Occupied --
-92.0143 -91.9976 -91.9872 -91.9862 -26.3428 -20.6142 -20.5920 -20.5914
-20.5604 -11.4086 -11.3818 -11.3186 -11.3179 -11.3115 -11.3023 -11.2962
-11.2930 -11.2912 -11.2884 -11.2866 -11.2862 -11.2853 -11.2836 -11.2836
-11.2798 -11.2602 -11.2588 -11.2572 -11.2498  -9.0127  -8.9976  -8.9876
 -8.9861  -6.6934  -6.6928  -6.6923  -6.6786  -6.6779  -6.6767  -6.6686
 -6.6679  -6.6671  -6.6670  -6.6664  -6.6656  -1.6599  -1.4666  -1.4161
 -1.4142  -1.3693  -1.2206  -1.1938  -1.1648  -1.1351  -1.0839  -1.0515
 -1.0409  -1.0219  -1.0009  -0.9874  -0.9612  -0.9603  -0.9500  -0.9387
 -0.8951  -0.8669  -0.8500  -0.8097  -0.7934  -0.7886  -0.7860  -0.7645
 -0.7548  -0.7334  -0.7248  -0.7092  -0.7005  -0.6845  -0.6829  -0.6801
 -0.6733  -0.6590  -0.6569  -0.6525  -0.6299  -0.6199  -0.6168  -0.6049
 -0.5972  -0.5853  -0.5759  -0.5702  -0.5667  -0.5617  -0.5533  -0.5524
 -0.5305  -0.5287  -0.5232  -0.5161  -0.5144  -0.5086  -0.5036  -0.4941
 -0.4892  -0.4793  -0.4748  -0.4729  -0.4695  -0.4655  -0.4607  -0.4040
 -0.3973  -0.3868  -0.3582  -0.3468  -0.3134  -0.3000  -0.2585

          Ground-State Mulliken Net Atomic Charges

     Atom                 Charge (a.u.)
  ----------------------------------------
      1 C                    -0.188334
      2 C                    -0.254326
      3 S                    -0.022608
      4 C                    -0.015269
      5 H                     0.196447
      6 C                    -0.029149
      7 C                     0.241553
      8 C                     0.243543
      9 C                    -0.053602
     10 C                    -0.021373
     11 O                    -0.333560
     12 O                    -0.339859
     13 C                    -0.085689
     14 H                     0.122538
     15 H                     0.091170
     16 H                     0.093721
     17 C                    -0.086098
     18 H                     0.124467
     19 H                     0.094902
     20 H                     0.089485
     21 C                    -0.199298
     22 S                     0.002274
     23 C                    -0.039086
     24 H                     0.198806
     25 H                     0.206372
     26 C                    -0.060270
     27 S                     0.110321
     28 C                    -0.183681
     29 C                    -0.006065
     30 C                    -0.093952
     31 S                     0.013216
     32 C                    -0.155197
     33 C                     0.391145
     34 F                    -0.206728
     35 C                     0.446423
     36 O                    -0.461450
     37 O                    -0.300899
     38 C                    -0.058414
     39 H                     0.121136
     40 H                     0.095014
     41 H                     0.095001
     42 H                     0.217370
  ----------------------------------------
  Sum of atomic charges =     0.000000

                    Cartesian Multipole Moments
 -----------------------------------------------------------------
    Charge (ESU x 10^10)
                -0.0000
    Dipole Moment (Debye)
         X       0.9717      Y       0.9907      Z       3.2573
       Tot       3.5406
    Quadrupole Moments (Debye-Ang)
        XX    -176.4843     XY       4.6796     YY    -162.0324
        XZ       3.2906     YZ      -8.2209     ZZ    -205.2740

 Total job time:  455.14s(wall), 18131.87s(cpu)
        *  Thank you very much for using Q-Chem.  Have a nice day.  *
