                         Program Version 4.2.1 -  RELEASE  -
|  1> ! RI BP86 def2-SVP def2/J D3BJ TIGHTSCF  Opt Grid3 FinalGrid5
|  2> %maxcore 3000
|  3> %geom
|  4> optimizehydrogens true
|  5> end
|  6>
|  7>
|  8> *xyz 0 1
|  9> C	-4.566250	-0.775414	0.096682
| 10> C	-3.986690	0.484096	0.048752
| 11> S	-3.328270	-2.054524	0.128922
| 12> C	-2.559520	0.463396	0.043202
| 13> H	-4.562270	1.413166	0.017102
| 14> C	-2.017040	-0.868694	0.098892
| 15> C	-0.631740	-1.093094	0.077212
| 16> C	-1.718060	1.610086	-0.032128
| 17> C	-0.330450	1.385756	-0.058138
| 18> C	0.211260	0.052016	0.000492
| 19> O	-2.373940	2.803696	-0.051548
| 20> O	0.016940	-2.294804	0.095682
| 21> C	-0.585680	-3.403804	0.751742
| 22> H	0.202970	-4.174164	0.844752
| 23> H	-1.426500	-3.833524	0.164272
| 24> H	-0.951050	-3.129264	1.764692
| 25> C	-1.724230	3.970366	-0.541198
| 26> H	-2.509500	4.743946	-0.631528
| 27> H	-1.268270	3.796086	-1.539118
| 28> H	-0.946430	4.340946	0.161392
| 29> C	1.638010	0.034826	-0.007488
| 30> S	0.982590	2.573356	-0.100948
| 31> C	2.211740	1.297816	-0.063328
| 32> H	2.217280	-0.896774	0.027062
| 33> H	-5.484167	-1.343809	0.124169
| 34> H	3.257417	1.567428	-0.079703
| 35> **                         ****END OF INPUT****
 Total Charge           Charge          ....    0
 Multiplicity           Mult            ....    1
 Number of Electrons    NEL             ....  130
Dispersion correction           -0.061124798
FINAL SINGLE POINT ENERGY     -1409.554745619947
Dispersion correction            ... done
Dispersion correction           -0.061103331
FINAL SINGLE POINT ENERGY     -1409.558895504970
Dispersion correction            ... done
Dispersion correction           -0.061089961
FINAL SINGLE POINT ENERGY     -1409.563137884232
Dispersion correction            ... done
Dispersion correction           -0.061094093
FINAL SINGLE POINT ENERGY     -1409.563383479901
Dispersion correction            ... done
Dispersion correction           -0.061095665
FINAL SINGLE POINT ENERGY     -1409.563391821633
Dispersion correction            ... done
                    ***********************HURRAY********************

CARTESIAN COORDINATES (ANGSTROEM)
---------------------------------
  C     -4.555911   -0.805074    0.096483
  C     -3.983019    0.457497    0.048937
  S     -3.311182   -2.077620    0.128633
  C     -2.555759    0.444355    0.043616
  H     -4.562221    1.388990    0.017894
  C     -2.006243   -0.884858    0.099090
  C     -0.619771   -1.101916    0.077586
  C     -1.720369    1.595500   -0.031313
  C     -0.331586    1.378526   -0.057146
  C      0.217167    0.047659    0.001267
  O     -2.382555    2.785626   -0.050567
  O      0.035259   -2.300179    0.095887
  C     -0.561588   -3.412505    0.751594
  H      0.233842   -4.175129    0.853452
  H     -1.394764   -3.852393    0.160924
  H     -0.937130   -3.138893    1.761297
  C     -1.738951    3.955832   -0.539842
  H     -2.529476    4.723940   -0.636424
  H     -1.275784    3.783504   -1.535071
  H     -0.966152    4.333305    0.164456
  C      1.643990    0.038024   -0.006483
  S      0.975155    2.573070   -0.099468
  C      2.211034    1.304047   -0.061939
  H      2.228585   -0.889927    0.027039
  H     -5.615414   -1.086246    0.109131
  H      3.270993    1.583978   -0.079139

 Multiplicity           Mult            ....    1
 Number of Electrons    NEL             ....  130
 Basis Dimension        Dim             ....  282

ORBITAL ENERGIES
----------------

  NO   OCC          E(Eh)            E(eV)
   0   2.0000     -88.114850     -2397.7270
   1   2.0000     -88.113985     -2397.7034
   2   2.0000     -18.815435      -511.9940
   3   2.0000     -18.812519      -511.9147
   4   2.0000      -9.978986      -271.5420
   5   2.0000      -9.976571      -271.4763
   6   2.0000      -9.974253      -271.4132
   7   2.0000      -9.972136      -271.3556
   8   2.0000      -9.946940      -270.6700
   9   2.0000      -9.946036      -270.6454
  10   2.0000      -9.943418      -270.5742
  11   2.0000      -9.943360      -270.5726
  12   2.0000      -9.925270      -270.0803
  13   2.0000      -9.924693      -270.0646
  14   2.0000      -9.921036      -269.9651
  15   2.0000      -9.920908      -269.9616
  16   2.0000      -7.709941      -209.7982
  17   2.0000      -7.709016      -209.7730
  18   2.0000      -5.737613      -156.1284
  19   2.0000      -5.736687      -156.1032
  20   2.0000      -5.732994      -156.0027
  21   2.0000      -5.732107      -155.9786
  22   2.0000      -5.728368      -155.8768
  23   2.0000      -5.727426      -155.8512
  24   2.0000      -0.974659       -26.5218
  25   2.0000      -0.971253       -26.4292
  26   2.0000      -0.809147       -22.0180
  27   2.0000      -0.789453       -21.4821
  28   2.0000      -0.726763       -19.7762
  29   2.0000      -0.706804       -19.2331
  30   2.0000      -0.669929       -18.2297
  31   2.0000      -0.648627       -17.6500
  32   2.0000      -0.644310       -17.5326
  33   2.0000      -0.641901       -17.4670
  34   2.0000      -0.589707       -16.0467
  35   2.0000      -0.553158       -15.0522
  36   2.0000      -0.525127       -14.2894
  37   2.0000      -0.513995       -13.9865
  38   2.0000      -0.494000       -13.4424
  39   2.0000      -0.485868       -13.2212
  40   2.0000      -0.469212       -12.7679
  41   2.0000      -0.452505       -12.3133
  42   2.0000      -0.425307       -11.5732
  43   2.0000      -0.419783       -11.4229
  44   2.0000      -0.409607       -11.1460
  45   2.0000      -0.404410       -11.0045
  46   2.0000      -0.400576       -10.9002
  47   2.0000      -0.392506       -10.6806
  48   2.0000      -0.369385       -10.0515
  49   2.0000      -0.362609        -9.8671
  50   2.0000      -0.359666        -9.7870
  51   2.0000      -0.341314        -9.2876
  52   2.0000      -0.339082        -9.2269
  53   2.0000      -0.332900        -9.0587
  54   2.0000      -0.320074        -8.7097
  55   2.0000      -0.314707        -8.5636
  56   2.0000      -0.303764        -8.2658
  57   2.0000      -0.300917        -8.1884
  58   2.0000      -0.286991        -7.8094
  59   2.0000      -0.278165        -7.5693
  60   2.0000      -0.238982        -6.5030
  61   2.0000      -0.233014        -6.3406
  62   2.0000      -0.225705        -6.1417
  63   2.0000      -0.206505        -5.6193
  64   2.0000      -0.158211        -4.3051
  65   0.0000      -0.068635        -1.8676
  66   0.0000      -0.026159        -0.7118
  67   0.0000      -0.020565        -0.5596
  68   0.0000      -0.007520        -0.2046
  69   0.0000       0.000751         0.0204

MULLIKEN ATOMIC CHARGES
-----------------------
   0 C :   -0.088711
   1 C :    0.000765
   2 S :    0.066313
   3 C :    0.032659
   4 H :    0.008163
   5 C :   -0.129113
   6 C :    0.084007
   7 C :    0.092163
   8 C :   -0.138239
   9 C :    0.039673
  10 O :   -0.279343
  11 O :   -0.282895
  12 C :    0.101414
  13 H :    0.052392
  14 H :    0.052150
  15 H :    0.047198
  16 C :    0.100712
  17 H :    0.054222
  18 H :    0.049642
  19 H :    0.053776
  20 C :   -0.002354
  21 S :    0.065407
  22 C :   -0.087900
  23 H :    0.007857
  24 H :    0.050128
  25 H :    0.049915
Sum of atomic charges:    0.0000000

LOEWDIN ATOMIC CHARGES
----------------------
   0 C :   -0.177361
   1 C :   -0.056996
   2 S :    0.377908
   3 C :   -0.068572
   4 H :    0.039432
   5 C :   -0.190871
   6 C :    0.009817
   7 C :    0.013517
   8 C :   -0.192548
   9 C :   -0.066160
  10 O :   -0.084114
  11 O :   -0.088955
  12 C :    0.051805
  13 H :    0.032834
  14 H :    0.010857
  15 H :    0.021981
  16 C :    0.050851
  17 H :    0.034000
  18 H :    0.021380
  19 H :    0.013267
  20 C :   -0.057184
  21 S :    0.380363
  22 C :   -0.179560
  23 H :    0.039458
  24 H :    0.032444
  25 H :    0.032409

  Mayer bond orders larger than 0.100000
B(  0-C ,  1-C ) :   1.5605 B(  0-C ,  2-S ) :   1.0886 B(  0-C , 24-H ) :   0.9586
B(  1-C ,  3-C ) :   1.2234 B(  1-C ,  4-H ) :   0.9795 B(  2-S ,  5-C ) :   1.0388
B(  3-C ,  5-C ) :   1.2823 B(  3-C ,  7-C ) :   1.2867 B(  5-C ,  6-C ) :   1.3501
B(  6-C ,  9-C ) :   1.2897 B(  6-C , 11-O ) :   1.2010 B(  7-C ,  8-C ) :   1.3505
B(  7-C , 10-O ) :   1.2065 B(  8-C ,  9-C ) :   1.2783 B(  8-C , 21-S ) :   1.0343
B(  9-C , 20-C ) :   1.2222 B( 10-O , 16-C ) :   0.9588 B( 11-O , 12-C ) :   0.9612
B( 12-C , 13-H ) :   0.9708 B( 12-C , 14-H ) :   0.9504 B( 12-C , 15-H ) :   0.9605
B( 16-C , 17-H ) :   0.9699 B( 16-C , 18-H ) :   0.9598 B( 16-C , 19-H ) :   0.9516
B( 20-C , 22-C ) :   1.5586 B( 20-C , 23-H ) :   0.9805 B( 21-S , 22-C ) :   1.0929
B( 22-C , 25-H ) :   0.9582

Dispersion correction           -0.061095696
FINAL SINGLE POINT ENERGY     -1409.563392553111

DIPOLE MOMENT
-------------
                                X             Y             Z
Electronic contribution:     -0.10898      -0.07862      -0.44101
Nuclear contribution   :      0.11919       0.16050       0.50812
                        -----------------------------------------
Total Dipole Moment    :      0.01021       0.08188       0.06710
                        -----------------------------------------
Magnitude (a.u.)       :      0.10636
Magnitude (Debye)      :      0.27034

Rotational constants in cm-1:     0.021331     0.013221     0.008226
Rotational constants in MHz :   639.501694   396.342446   246.621087

                             ****ORCA TERMINATED NORMALLY****
TOTAL RUN TIME: 0 days 0 hours 5 minutes 4 seconds 899 msec
