                         Program Version 4.2.1 -  RELEASE  -
|  1> ! RI BP86 def2-SVP def2/J D3BJ TIGHTSCF  Opt Grid3 FinalGrid5
|  2> %maxcore 3000
|  3> %geom
|  4> optimizehydrogens true
|  5> end
|  6>
|  7>
|  8> *xyz 0 1
|  9> C	0.581282	-0.332555	0.032419
| 10> S	1.835092	-1.564285	0.078119
| 11> C	3.159672	-0.407805	0.023989
| 12> C	1.189112	0.926695	-0.024261
| 13> C	2.630492	0.905775	-0.027721
| 14> C	0.763652	2.283385	-0.082611
| 15> C	1.829192	3.204175	-0.126481
| 16> S	3.325752	2.418105	-0.095391
| 17> C	1.706022	4.672655	-0.193901
| 18> O	0.602322	5.199355	-0.215071
| 19> O	2.834122	5.427535	-0.234251
| 20> F	-0.507078	2.735065	-0.100801
| 21> C	2.842852	6.803895	-0.303721
| 22> H	3.893862	7.159035	-0.323791
| 23> H	2.336372	7.235495	0.585719
| 24> H	2.333112	7.143535	-1.230451
| 25> H	-0.464396	-0.602167	0.048794
| 26> H	4.083313	-0.967306	0.039687
| 27> **                         ****END OF INPUT****
 Total Charge           Charge          ....    0
 Multiplicity           Mult            ....    1
 Number of Electrons    NEL             ....  110
Dispersion correction           -0.038469903
FINAL SINGLE POINT ENERGY     -1353.974202318797
Dispersion correction            ... done
Dispersion correction           -0.038461601
FINAL SINGLE POINT ENERGY     -1353.976944065509
Dispersion correction            ... done
Dispersion correction           -0.038477228
FINAL SINGLE POINT ENERGY     -1353.979336291753
Dispersion correction            ... done
FINAL SINGLE POINT ENERGY     -1353.979587787117
Dispersion correction            ... done
Dispersion correction           -0.038496967
FINAL SINGLE POINT ENERGY     -1353.979633711130
Dispersion correction            ... done
Dispersion correction           -0.038497848
FINAL SINGLE POINT ENERGY     -1353.979639027841
Dispersion correction            ... done
                    ***********************HURRAY********************

CARTESIAN COORDINATES (ANGSTROEM)
---------------------------------
  C      0.561977   -0.340224    0.033036
  S      1.810583   -1.577248    0.078220
  C      3.140023   -0.426373    0.023763
  C      1.175107    0.916450   -0.023730
  C      2.616385    0.889437   -0.027659
  C      0.755368    2.274932   -0.081821
  C      1.824777    3.191213   -0.125955
  S      3.318010    2.398820   -0.095420
  C      1.707794    4.660207   -0.193204
  O      0.606324    5.191570   -0.213970
  O      2.839063    5.410315   -0.233853
  F     -0.513447    2.731982   -0.099559
  C      2.853589    6.786632   -0.303204
  H      3.914607    7.096591   -0.321984
  H      2.345495    7.250673    0.570984
  H      2.340134    7.160415   -1.216663
  H     -0.500352   -0.603593    0.047545
  H      4.179311   -0.771214    0.033749

 Multiplicity           Mult            ....    1
 Number of Electrons    NEL             ....  110
 Basis Dimension        Dim             ....  215

ORBITAL ENERGIES
----------------

  NO   OCC          E(Eh)            E(eV)
   0   2.0000     -88.146591     -2398.5907
   1   2.0000     -88.126974     -2398.0569
   2   2.0000     -24.311791      -661.5575
   3   2.0000     -18.824593      -512.2432
   4   2.0000     -18.758091      -510.4336
   5   2.0000     -10.041368      -273.2395
   6   2.0000     -10.019273      -272.6383
   7   2.0000      -9.974144      -271.4103
   8   2.0000      -9.965538      -271.1761
   9   2.0000      -9.965465      -271.1741
  10   2.0000      -9.965092      -271.1639
  11   2.0000      -9.960403      -271.0363
  12   2.0000      -9.952705      -270.8269
  13   2.0000      -7.741537      -210.6579
  14   2.0000      -7.726075      -210.2372
  15   2.0000      -5.768550      -156.9702
  16   2.0000      -5.763846      -156.8422
  17   2.0000      -5.761582      -156.7806
  18   2.0000      -5.753188      -156.5522
  19   2.0000      -5.748669      -156.4292
  20   2.0000      -5.744305      -156.3105
  21   2.0000      -1.115785       -30.3621
  22   2.0000      -1.010138       -27.4873
  23   2.0000      -0.916660       -24.9436
  24   2.0000      -0.852079       -23.1862
  25   2.0000      -0.794082       -21.6081
  26   2.0000      -0.706513       -19.2252
  27   2.0000      -0.698827       -19.0161
  28   2.0000      -0.660666       -17.9776
  29   2.0000      -0.640598       -17.4315
  30   2.0000      -0.581579       -15.8256
  31   2.0000      -0.537989       -14.6394
  32   2.0000      -0.521524       -14.1914
  33   2.0000      -0.510553       -13.8929
  34   2.0000      -0.488650       -13.2968
  35   2.0000      -0.461913       -12.5693
  36   2.0000      -0.440370       -11.9831
  37   2.0000      -0.426744       -11.6123
  38   2.0000      -0.422117       -11.4864
  39   2.0000      -0.417422       -11.3586
  40   2.0000      -0.395851       -10.7717
  41   2.0000      -0.387080       -10.5330
  42   2.0000      -0.377070       -10.2606
  43   2.0000      -0.375785       -10.2256
  44   2.0000      -0.358431        -9.7534
  45   2.0000      -0.354173        -9.6375
  46   2.0000      -0.337292        -9.1782
  47   2.0000      -0.314429        -8.5561
  48   2.0000      -0.311813        -8.4849
  49   2.0000      -0.300634        -8.1807
  50   2.0000      -0.262903        -7.1539
  51   2.0000      -0.258690        -7.0393
  52   2.0000      -0.236330        -6.4309
  53   2.0000      -0.225346        -6.1320
  54   2.0000      -0.192771        -5.2456
  55   0.0000      -0.103919        -2.8278
  56   0.0000      -0.052561        -1.4303
  57   0.0000      -0.024416        -0.6644
  58   0.0000       0.001283         0.0349
  59   0.0000       0.010275         0.2796

MULLIKEN ATOMIC CHARGES
-----------------------
   0 C :   -0.135503
   1 S :    0.121432
   2 C :   -0.153662
   3 C :    0.036319
   4 C :   -0.014471
   5 C :    0.246398
   6 C :   -0.238443
   7 S :    0.175751
   8 C :    0.164900
   9 O :   -0.187116
  10 O :   -0.255590
  11 F :   -0.127476
  12 C :    0.114279
  13 H :    0.050043
  14 H :    0.044447
  15 H :    0.044494
  16 H :    0.059059
  17 H :    0.055141
Sum of atomic charges:   -0.0000000

LOEWDIN ATOMIC CHARGES
----------------------
   0 C :   -0.193582
   1 S :    0.463983
   2 C :   -0.219967
   3 C :   -0.105267
   4 C :   -0.214550
   5 C :    0.067490
   6 C :   -0.265147
   7 S :    0.471439
   8 C :    0.045867
   9 O :   -0.164480
  10 O :   -0.075231
  11 F :   -0.021130
  12 C :    0.049289
  13 H :    0.031438
  14 H :    0.025394
  15 H :    0.025420
  16 H :    0.041790
  17 H :    0.037243

  Mayer bond orders larger than 0.100000
B(  0-C ,  1-S ) :   1.1860 B(  0-C ,  2-C ) :   0.1416 B(  0-C ,  3-C ) :   1.3696
B(  0-C , 16-H ) :   0.9622 B(  1-S ,  2-C ) :   1.1867 B(  2-C ,  4-C ) :   1.4180
B(  2-C , 17-H ) :   0.9651 B(  3-C ,  4-C ) :   1.2319 B(  3-C ,  5-C ) :   1.1694
B(  4-C ,  7-S ) :   1.0844 B(  5-C ,  6-C ) :   1.4436 B(  5-C , 11-F ) :   1.2290
B(  6-C ,  7-S ) :   1.0750 B(  6-C ,  8-C ) :   0.9876 B(  8-C ,  9-O ) :   2.0839
B(  8-C , 10-O ) :   1.2139 B( 10-O , 12-C ) :   0.9567 B( 12-C , 13-H ) :   0.9730
B( 12-C , 14-H ) :   0.9647 B( 12-C , 15-H ) :   0.9647

Dispersion correction           -0.038497541
FINAL SINGLE POINT ENERGY     -1353.979639825232

DIPOLE MOMENT
-------------
                                X             Y             Z
Electronic contribution:     -4.15206      -8.74286       0.43844
Nuclear contribution   :      5.02292       8.13170      -0.41902
                        -----------------------------------------
Total Dipole Moment    :      0.87086      -0.61116       0.01942
                        -----------------------------------------
Magnitude (a.u.)       :      1.06409
Magnitude (Debye)      :      2.70471

Rotational constants in cm-1:     0.054282     0.011977     0.009831
Rotational constants in MHz :  1627.342917   359.066486   294.716205

                             ****ORCA TERMINATED NORMALLY****
TOTAL RUN TIME: 0 days 0 hours 3 minutes 34 seconds 251 msec
