 Q-Chem 5.4, Q-Chem, Inc., Pleasanton, CA (2021)
 Q-Chem 5.4.0 for Intel X86 EM64T Linux

User input:
--------------------------------------------------------------
$molecule
0 1
C	-0.135457	-8.519741	-0.235993
C	0.558188	-7.635967	0.577858
S	-1.148850	-7.651740	-1.414705
C	0.308648	-6.261894	0.283020
H	1.238560	-7.954738	1.377597
C	-0.609026	-6.079985	-0.810887
C	-0.996828	-4.798382	-1.231581
C	0.865740	-5.153542	0.982901
C	0.474408	-3.869626	0.564713
C	-0.442046	-3.688927	-0.532196
O	1.738137	-5.481075	1.976332
O	-1.874052	-4.479871	-2.228709
C	-2.016062	-5.356026	-3.340298
H	-2.573877	-4.790496	-4.110807
H	-2.598484	-6.268513	-3.085998
H	-1.028695	-5.658187	-3.751679
C	2.033195	-4.546999	3.007565
H	2.594833	-5.107564	3.778655
H	1.108067	-4.131473	3.461650
H	2.671451	-3.712085	2.645264
C	-0.691020	-2.314326	-0.822814
S	1.005649	-2.295487	1.178037
C	0.000000	-1.435180	0.000000
H	-1.368875	-1.993211	-1.623656
H	-0.133782	-9.615985	-0.230172
C	0.000000	0.000000	0.000000
S	0.234946	0.868203	1.510732
C	0.641630	2.390125	0.727629
C	0.235036	0.877284	-1.064665
C	0.593019	2.219143	-0.678287
C	0.219452	0.812732	-2.486150
C	0.546689	2.034501	-3.106916
S	0.866345	3.240357	-1.965735
C	0.617067	2.279095	-4.559972
O	0.378342	1.376631	-5.350277
O	0.952308	3.517725	-5.004375
F	-0.065123	-0.264443	-3.246290
C	1.054950	3.861577	-6.334976
H	1.341516	4.928732	-6.370268
H	0.093573	3.716085	-6.875609
H	1.822303	3.252232	-6.861878
H	0.879812	3.278780	1.321510
$end

$rem
JOBTYPE		SP
EXCHANGE	HF
CORRELATION	pRIMP2
BASIS		cc-pvtz
METHOD		rimp2
AUX_BASIS	rimp2-cc-pvtz
SOLVENT_METHOD	PCM
PURECART	11111
SYMMETRY	false
MEM_TOTAL	110000
SCF_CONVERGENCE = 6
THRESH=10
GUI = 2
$end

$solvent
dielectric 4.90
$end
--------------------------------------------------------------

             Standard Nuclear Orientation (Angstroms)
    I     Atom           X                Y                Z
 ----------------------------------------------------------------
    1      C      -0.1354570000    -8.5197410000    -0.2359930000
    2      C       0.5581880000    -7.6359670000     0.5778580000
    3      S      -1.1488500000    -7.6517400000    -1.4147050000
    4      C       0.3086480000    -6.2618940000     0.2830200000
    5      H       1.2385600000    -7.9547380000     1.3775970000
    6      C      -0.6090260000    -6.0799850000    -0.8108870000
    7      C      -0.9968280000    -4.7983820000    -1.2315810000
    8      C       0.8657400000    -5.1535420000     0.9829010000
    9      C       0.4744080000    -3.8696260000     0.5647130000
   10      C      -0.4420460000    -3.6889270000    -0.5321960000
   11      O       1.7381370000    -5.4810750000     1.9763320000
   12      O      -1.8740520000    -4.4798710000    -2.2287090000
   13      C      -2.0160620000    -5.3560260000    -3.3402980000
   14      H      -2.5738770000    -4.7904960000    -4.1108070000
   15      H      -2.5984840000    -6.2685130000    -3.0859980000
   16      H      -1.0286950000    -5.6581870000    -3.7516790000
   17      C       2.0331950000    -4.5469990000     3.0075650000
   18      H       2.5948330000    -5.1075640000     3.7786550000
   19      H       1.1080670000    -4.1314730000     3.4616500000
   20      H       2.6714510000    -3.7120850000     2.6452640000
   21      C      -0.6910200000    -2.3143260000    -0.8228140000
   22      S       1.0056490000    -2.2954870000     1.1780370000
   23      C       0.0000000000    -1.4351800000     0.0000000000
   24      H      -1.3688750000    -1.9932110000    -1.6236560000
   25      H      -0.1337820000    -9.6159850000    -0.2301720000
   26      C       0.0000000000     0.0000000000     0.0000000000
   27      S       0.2349460000     0.8682030000     1.5107320000
   28      C       0.6416300000     2.3901250000     0.7276290000
   29      C       0.2350360000     0.8772840000    -1.0646650000
   30      C       0.5930190000     2.2191430000    -0.6782870000
   31      C       0.2194520000     0.8127320000    -2.4861500000
   32      C       0.5466890000     2.0345010000    -3.1069160000
   33      S       0.8663450000     3.2403570000    -1.9657350000
   34      C       0.6170670000     2.2790950000    -4.5599720000
   35      O       0.3783420000     1.3766310000    -5.3502770000
   36      O       0.9523080000     3.5177250000    -5.0043750000
   37      F      -0.0651230000    -0.2644430000    -3.2462900000
   38      C       1.0549500000     3.8615770000    -6.3349760000
   39      H       1.3415160000     4.9287320000    -6.3702680000
   40      H       0.0935730000     3.7160850000    -6.8756090000
   41      H       1.8223030000     3.2522320000    -6.8618780000
   42      H       0.8798120000     3.2787800000     1.3215100000
 ----------------------------------------------------------------

   10   -2754.2940952377      7.78e-07  Convergence criterion met
 Total energy in the final basis set =    -2754.2940952377
        RIMP2         total energy =     -2759.3490446244 a.u.

                    Orbital Energies (a.u.)
 --------------------------------------------------------------

 Alpha MOs
 -- Occupied --
-92.0161 -91.9950 -91.9918 -91.9865 -26.3348 -20.6119 -20.5929 -20.5911
-20.5498 -11.4102 -11.3776 -11.3198 -11.3183 -11.3113 -11.2972 -11.2970
-11.2954 -11.2940 -11.2884 -11.2877 -11.2868 -11.2853 -11.2843 -11.2826
-11.2801 -11.2616 -11.2595 -11.2570 -11.2501  -9.0145  -8.9990  -8.9922
 -8.9864  -6.6953  -6.6947  -6.6942  -6.6803  -6.6796  -6.6783  -6.6732
 -6.6725  -6.6715  -6.6674  -6.6668  -6.6659  -1.6479  -1.4717  -1.4170
 -1.4139  -1.3670  -1.2339  -1.1966  -1.1692  -1.1424  -1.0844  -1.0525
 -1.0479  -1.0280  -1.0030  -0.9935  -0.9720  -0.9612  -0.9506  -0.9382
 -0.8966  -0.8696  -0.8510  -0.8041  -0.7940  -0.7882  -0.7720  -0.7701
 -0.7579  -0.7326  -0.7191  -0.7160  -0.7016  -0.6891  -0.6833  -0.6784
 -0.6716  -0.6613  -0.6594  -0.6524  -0.6299  -0.6200  -0.6167  -0.6064
 -0.6014  -0.5947  -0.5873  -0.5772  -0.5684  -0.5608  -0.5555  -0.5482
 -0.5377  -0.5266  -0.5227  -0.5175  -0.5169  -0.5087  -0.5040  -0.4951
 -0.4874  -0.4844  -0.4774  -0.4699  -0.4620  -0.4612  -0.4604  -0.4183
 -0.3975  -0.3864  -0.3583  -0.3504  -0.3224  -0.2863  -0.2512

          Ground-State Mulliken Net Atomic Charges

     Atom                 Charge (a.u.)
  ----------------------------------------
      1 C                    -0.187477
      2 C                    -0.255024
      3 S                    -0.020951
      4 C                    -0.013116
      5 H                     0.196374
      6 C                    -0.027496
      7 C                     0.244410
      8 C                     0.240265
      9 C                    -0.045445
     10 C                    -0.027778
     11 O                    -0.332949
     12 O                    -0.339367
     13 C                    -0.085699
     14 H                     0.123469
     15 H                     0.090817
     16 H                     0.094331
     17 C                    -0.087587
     18 H                     0.125416
     19 H                     0.094609
     20 H                     0.089738
     21 C                    -0.224634
     22 S                    -0.014495
     23 C                    -0.041471
     24 H                     0.194513
     25 H                     0.206604
     26 C                     0.001786
     27 S                     0.095782
     28 C                    -0.229873
     29 C                    -0.061469
     30 C                    -0.014554
     31 C                     0.371142
     32 C                    -0.143858
     33 S                     0.039445
     34 C                     0.458122
     35 O                    -0.450602
     36 O                    -0.297976
     37 F                    -0.211634
     38 C                    -0.054889
     39 H                     0.116568
     40 H                     0.084437
     41 H                     0.084460
     42 H                     0.216055
  ----------------------------------------
  Sum of atomic charges =     0.000000

                    Cartesian Multipole Moments
 -----------------------------------------------------------------
    Charge (ESU x 10^10)
                 0.0000
    Dipole Moment (Debye)
         X       1.1536      Y       1.4053      Z       3.1096
       Tot       3.6022
    Quadrupole Moments (Debye-Ang)
        XX    -195.6686     XY       3.1126     YY    -159.1383
        XZ       7.4119     YZ      -8.9228     ZZ    -186.3498

 Total job time:  304.88s(wall), 9954.52s(cpu)
        *  Thank you very much for using Q-Chem.  Have a nice day.  *
