 Q-Chem 5.4, Q-Chem, Inc., Pleasanton, CA (2021)
 Q-Chem 5.4.0 for Intel X86 EM64T Linux

User input:
--------------------------------------------------------------
$molecule
0 1
C	0.255929	-8.519741	-0.092419
C	-0.666007	-7.635967	0.449364
S	1.592708	-7.651740	-0.885736
C	-0.332317	-6.261894	0.254813
H	-1.571741	-7.954738	0.980526
C	0.904324	-6.079985	-0.458965
C	1.385968	-4.798382	-0.767823
C	-1.118303	-5.153542	0.681909
C	-0.638514	-3.869626	0.369139
C	0.600871	-3.688927	-0.342916
O	-2.248132	-5.481075	1.368544
O	2.520275	-4.479871	-1.458570
C	3.639637	-5.356026	-1.405396
H	4.495304	-4.790496	-1.820940
H	3.490336	-6.268513	-2.023129
H	3.873314	-5.658187	-0.361595
C	-3.314934	-4.546999	1.480048
H	-4.171837	-5.107564	1.899255
H	-3.601473	-4.131473	0.490123
H	-3.068969	-3.712085	2.171521
C	0.930308	-2.314326	-0.537642
S	-1.334769	-2.295487	0.785807
C	-0.000000	-1.435180	-0.000000
H	1.836691	-1.993211	-1.066134
H	0.249906	-9.615985	-0.091781
C	0.000000	0.000000	0.000000
S	0.382139	0.814215	1.510732
C	1.046923	2.242395	0.727629
C	0.383804	0.823142	-1.064665
C	0.969360	2.082453	-0.678287
C	0.357247	0.762277	-2.486150
C	0.891671	1.908660	-3.106916
S	1.415865	3.040689	-1.965735
C	1.003453	2.137318	-4.559972
O	0.611644	1.290019	-5.350277
O	1.548687	3.298916	-5.004375
F	-0.110054	-0.249117	-3.246290
C	1.709479	3.619721	-6.334976
H	2.177001	4.620902	-6.370268
H	0.737443	3.643380	-6.875609
H	2.359363	2.886384	-6.861878
H	1.435800	3.076190	1.321510
$end

$rem
JOBTYPE		SP
EXCHANGE	HF
CORRELATION	pRIMP2
BASIS		cc-pvtz
METHOD		rimp2
AUX_BASIS	rimp2-cc-pvtz
SOLVENT_METHOD	PCM
PURECART	11111
SYMMETRY	false
MEM_TOTAL	110000
SCF_CONVERGENCE = 6
THRESH=10
GUI = 2
$end

$solvent
dielectric 4.90
$end
--------------------------------------------------------------

             Standard Nuclear Orientation (Angstroms)
    I     Atom           X                Y                Z
 ----------------------------------------------------------------
    1      C       0.2559290000    -8.5197410000    -0.0924190000
    2      C      -0.6660070000    -7.6359670000     0.4493640000
    3      S       1.5927080000    -7.6517400000    -0.8857360000
    4      C      -0.3323170000    -6.2618940000     0.2548130000
    5      H      -1.5717410000    -7.9547380000     0.9805260000
    6      C       0.9043240000    -6.0799850000    -0.4589650000
    7      C       1.3859680000    -4.7983820000    -0.7678230000
    8      C      -1.1183030000    -5.1535420000     0.6819090000
    9      C      -0.6385140000    -3.8696260000     0.3691390000
   10      C       0.6008710000    -3.6889270000    -0.3429160000
   11      O      -2.2481320000    -5.4810750000     1.3685440000
   12      O       2.5202750000    -4.4798710000    -1.4585700000
   13      C       3.6396370000    -5.3560260000    -1.4053960000
   14      H       4.4953040000    -4.7904960000    -1.8209400000
   15      H       3.4903360000    -6.2685130000    -2.0231290000
   16      H       3.8733140000    -5.6581870000    -0.3615950000
   17      C      -3.3149340000    -4.5469990000     1.4800480000
   18      H      -4.1718370000    -5.1075640000     1.8992550000
   19      H      -3.6014730000    -4.1314730000     0.4901230000
   20      H      -3.0689690000    -3.7120850000     2.1715210000
   21      C       0.9303080000    -2.3143260000    -0.5376420000
   22      S      -1.3347690000    -2.2954870000     0.7858070000
   23      C       0.0000000000    -1.4351800000     0.0000000000
   24      H       1.8366910000    -1.9932110000    -1.0661340000
   25      H       0.2499060000    -9.6159850000    -0.0917810000
   26      C       0.0000000000     0.0000000000     0.0000000000
   27      S       0.3821390000     0.8142150000     1.5107320000
   28      C       1.0469230000     2.2423950000     0.7276290000
   29      C       0.3838040000     0.8231420000    -1.0646650000
   30      C       0.9693600000     2.0824530000    -0.6782870000
   31      C       0.3572470000     0.7622770000    -2.4861500000
   32      C       0.8916710000     1.9086600000    -3.1069160000
   33      S       1.4158650000     3.0406890000    -1.9657350000
   34      C       1.0034530000     2.1373180000    -4.5599720000
   35      O       0.6116440000     1.2900190000    -5.3502770000
   36      O       1.5486870000     3.2989160000    -5.0043750000
   37      F      -0.1100540000    -0.2491170000    -3.2462900000
   38      C       1.7094790000     3.6197210000    -6.3349760000
   39      H       2.1770010000     4.6209020000    -6.3702680000
   40      H       0.7374430000     3.6433800000    -6.8756090000
   41      H       2.3593630000     2.8863840000    -6.8618780000
   42      H       1.4358000000     3.0761900000     1.3215100000
 ----------------------------------------------------------------

   10   -2754.2865095557      8.58e-07  Convergence criterion met
 Total energy in the final basis set =    -2754.2865095557
        RIMP2         total energy =     -2759.3427123103 a.u.

                    Orbital Energies (a.u.)
 --------------------------------------------------------------

 Alpha MOs
 -- Occupied --
-92.0158 -91.9960 -91.9883 -91.9862 -26.3338 -20.6125 -20.5922 -20.5912
-20.5508 -11.4110 -11.3772 -11.3189 -11.3178 -11.3043 -11.2993 -11.2992
-11.2967 -11.2941 -11.2886 -11.2869 -11.2858 -11.2857 -11.2845 -11.2838
-11.2796 -11.2608 -11.2588 -11.2571 -11.2498  -9.0141  -9.0000  -8.9888
 -8.9861  -6.6948  -6.6942  -6.6938  -6.6813  -6.6806  -6.6793  -6.6698
 -6.6691  -6.6682  -6.6671  -6.6664  -6.6656  -1.6466  -1.4723  -1.4163
 -1.4139  -1.3677  -1.2346  -1.1956  -1.1684  -1.1424  -1.0839  -1.0517
 -1.0481  -1.0282  -1.0018  -0.9930  -0.9719  -0.9608  -0.9502  -0.9387
 -0.8955  -0.8699  -0.8492  -0.8034  -0.7927  -0.7877  -0.7729  -0.7706
 -0.7573  -0.7323  -0.7183  -0.7150  -0.7014  -0.6894  -0.6826  -0.6788
 -0.6718  -0.6606  -0.6588  -0.6524  -0.6295  -0.6198  -0.6165  -0.6070
 -0.6031  -0.5958  -0.5819  -0.5766  -0.5709  -0.5643  -0.5532  -0.5515
 -0.5338  -0.5264  -0.5247  -0.5159  -0.5142  -0.5079  -0.5021  -0.4960
 -0.4892  -0.4852  -0.4745  -0.4676  -0.4620  -0.4616  -0.4601  -0.4106
 -0.3977  -0.3870  -0.3590  -0.3482  -0.3186  -0.2880  -0.2553

          Ground-State Mulliken Net Atomic Charges

     Atom                 Charge (a.u.)
  ----------------------------------------
      1 C                    -0.188557
      2 C                    -0.254104
      3 S                    -0.021941
      4 C                    -0.016008
      5 H                     0.196291
      6 C                    -0.029232
      7 C                     0.242500
      8 C                     0.244578
      9 C                    -0.049606
     10 C                    -0.019796
     11 O                    -0.333494
     12 O                    -0.339596
     13 C                    -0.085578
     14 H                     0.122635
     15 H                     0.091165
     16 H                     0.093642
     17 C                    -0.086825
     18 H                     0.125019
     19 H                     0.095213
     20 H                     0.089139
     21 C                    -0.213281
     22 S                    -0.009966
     23 C                    -0.011401
     24 H                     0.199677
     25 H                     0.206415
     26 C                    -0.049870
     27 S                     0.122174
     28 C                    -0.225858
     29 C                    -0.126663
     30 C                    -0.004540
     31 C                     0.394370
     32 C                    -0.151261
     33 S                     0.043543
     34 C                     0.460538
     35 O                    -0.448208
     36 O                    -0.297830
     37 F                    -0.210545
     38 C                    -0.054863
     39 H                     0.116662
     40 H                     0.084806
     41 H                     0.084667
     42 H                     0.215991
  ----------------------------------------
  Sum of atomic charges =     0.000000

                    Cartesian Multipole Moments
 -----------------------------------------------------------------
    Charge (ESU x 10^10)
                 0.0000
    Dipole Moment (Debye)
         X       1.7580      Y       1.7140      Z       3.4115
       Tot       4.2032
    Quadrupole Moments (Debye-Ang)
        XX    -175.6490     XY       5.2620     YY    -161.8230
        XZ     -11.6414     YZ     -10.9212     ZZ    -204.0557

 Total job time:  316.29s(wall), 9883.89s(cpu)
        *  Thank you very much for using Q-Chem.  Have a nice day.  *
