 Q-Chem 5.4, Q-Chem, Inc., Pleasanton, CA (2021)
 Q-Chem 5.4.0 for Intel X86 EM64T Linux

User input:
--------------------------------------------------------------
$molecule
0 1
C	-0.208002	-8.519741	-0.175432
C	0.722164	-7.635967	0.352097
S	-1.563424	-7.651740	-0.936458
C	0.386833	-6.261894	0.160388
H	1.635031	-7.954738	0.870905
C	-0.849637	-6.079985	-0.553685
C	-1.357938	-4.798382	-0.816372
C	1.149702	-5.153542	0.627524
C	0.638941	-3.869626	0.368399
C	-0.597409	-3.688927	-0.348912
O	2.309260	-5.481075	1.262667
O	-2.523296	-4.479871	-1.453338
C	-3.036927	-5.356026	-2.449320
H	-3.824632	-4.790496	-2.982577
H	-3.497250	-6.268513	-2.011155
H	-2.249807	-5.658187	-3.173591
C	2.939226	-4.546999	2.130793
H	3.730721	-5.107564	2.663289
H	2.225196	-4.131473	2.873906
H	3.415077	-3.712085	1.572045
C	-0.930765	-2.314326	-0.536849
S	1.347913	-2.295487	0.763041
C	-0.000000	-1.435180	-0.000000
H	-1.841645	-1.993211	-1.057554
H	-0.204438	-9.615985	-0.170535
C	0.000000	0.000000	0.000000
S	0.579852	0.687566	1.510732
C	1.591625	1.895024	0.727629
C	0.583771	0.695758	-1.064665
C	1.475308	1.760606	-0.678287
C	0.542366	0.643841	-2.486150
C	1.355286	1.612843	-3.106916
S	2.154609	2.570627	-1.965735
C	1.522440	1.804778	-4.559972
O	0.924684	1.087757	-5.350277
O	2.349739	2.785679	-5.004375
F	-0.170780	-0.212144	-3.246290
C	2.588082	3.053936	-6.334976
H	3.298799	3.899999	-6.370268
H	1.655291	3.328371	-6.875609
H	3.026021	2.177385	-6.861878
H	2.183053	2.599759	1.321510
$end

$rem
JOBTYPE		SP
EXCHANGE	HF
CORRELATION	pRIMP2
BASIS		cc-pvtz
METHOD		rimp2
AUX_BASIS	rimp2-cc-pvtz
SOLVENT_METHOD	PCM
PURECART	11111
SYMMETRY	false
MEM_TOTAL	110000
SCF_CONVERGENCE = 6
THRESH=10
GUI = 2
$end

$solvent
dielectric 4.90
$end
--------------------------------------------------------------

             Standard Nuclear Orientation (Angstroms)
    I     Atom           X                Y                Z
 ----------------------------------------------------------------
    1      C      -0.2080020000    -8.5197410000    -0.1754320000
    2      C       0.7221640000    -7.6359670000     0.3520970000
    3      S      -1.5634240000    -7.6517400000    -0.9364580000
    4      C       0.3868330000    -6.2618940000     0.1603880000
    5      H       1.6350310000    -7.9547380000     0.8709050000
    6      C      -0.8496370000    -6.0799850000    -0.5536850000
    7      C      -1.3579380000    -4.7983820000    -0.8163720000
    8      C       1.1497020000    -5.1535420000     0.6275240000
    9      C       0.6389410000    -3.8696260000     0.3683990000
   10      C      -0.5974090000    -3.6889270000    -0.3489120000
   11      O       2.3092600000    -5.4810750000     1.2626670000
   12      O      -2.5232960000    -4.4798710000    -1.4533380000
   13      C      -3.0369270000    -5.3560260000    -2.4493200000
   14      H      -3.8246320000    -4.7904960000    -2.9825770000
   15      H      -3.4972500000    -6.2685130000    -2.0111550000
   16      H      -2.2498070000    -5.6581870000    -3.1735910000
   17      C       2.9392260000    -4.5469990000     2.1307930000
   18      H       3.7307210000    -5.1075640000     2.6632890000
   19      H       2.2251960000    -4.1314730000     2.8739060000
   20      H       3.4150770000    -3.7120850000     1.5720450000
   21      C      -0.9307650000    -2.3143260000    -0.5368490000
   22      S       1.3479130000    -2.2954870000     0.7630410000
   23      C       0.0000000000    -1.4351800000     0.0000000000
   24      H      -1.8416450000    -1.9932110000    -1.0575540000
   25      H      -0.2044380000    -9.6159850000    -0.1705350000
   26      C       0.0000000000     0.0000000000     0.0000000000
   27      S       0.5798520000     0.6875660000     1.5107320000
   28      C       1.5916250000     1.8950240000     0.7276290000
   29      C       0.5837710000     0.6957580000    -1.0646650000
   30      C       1.4753080000     1.7606060000    -0.6782870000
   31      C       0.5423660000     0.6438410000    -2.4861500000
   32      C       1.3552860000     1.6128430000    -3.1069160000
   33      S       2.1546090000     2.5706270000    -1.9657350000
   34      C       1.5224400000     1.8047780000    -4.5599720000
   35      O       0.9246840000     1.0877570000    -5.3502770000
   36      O       2.3497390000     2.7856790000    -5.0043750000
   37      F      -0.1707800000    -0.2121440000    -3.2462900000
   38      C       2.5880820000     3.0539360000    -6.3349760000
   39      H       3.2987990000     3.8999990000    -6.3702680000
   40      H       1.6552910000     3.3283710000    -6.8756090000
   41      H       3.0260210000     2.1773850000    -6.8618780000
   42      H       2.1830530000     2.5997590000     1.3215100000
 ----------------------------------------------------------------

   11   -2754.2668334036      4.62e-07  Convergence criterion met
 Total energy in the final basis set =    -2754.2668334036
        RIMP2         total energy =     -2759.3298668727 a.u.

                    Orbital Energies (a.u.)
 --------------------------------------------------------------

 Alpha MOs
 -- Occupied --
-92.0157 -91.9994 -91.9877 -91.9847 -26.3340 -20.6138 -20.5917 -20.5891
-20.5532 -11.4130 -11.3767 -11.3178 -11.3145 -11.3077 -11.3039 -11.2983
-11.2948 -11.2917 -11.2894 -11.2890 -11.2870 -11.2844 -11.2826 -11.2822
-11.2778 -11.2581 -11.2564 -11.2488 -11.2485  -9.0145  -9.0032  -8.9882
 -8.9846  -6.6951  -6.6944  -6.6941  -6.6844  -6.6838  -6.6825  -6.6691
 -6.6684  -6.6675  -6.6656  -6.6650  -6.6641  -1.6470  -1.4738  -1.4156
 -1.4119  -1.3695  -1.2377  -1.1938  -1.1686  -1.1432  -1.0828  -1.0498
 -1.0494  -1.0300  -1.0001  -0.9919  -0.9734  -0.9597  -0.9494  -0.9376
 -0.8946  -0.8722  -0.8470  -0.8029  -0.7935  -0.7866  -0.7732  -0.7692
 -0.7555  -0.7306  -0.7185  -0.7155  -0.6998  -0.6908  -0.6807  -0.6799
 -0.6737  -0.6604  -0.6581  -0.6511  -0.6290  -0.6184  -0.6160  -0.6087
 -0.6031  -0.5987  -0.5869  -0.5761  -0.5659  -0.5622  -0.5544  -0.5429
 -0.5368  -0.5275  -0.5216  -0.5150  -0.5139  -0.5084  -0.5026  -0.4925
 -0.4884  -0.4864  -0.4722  -0.4668  -0.4636  -0.4625  -0.4605  -0.4133
 -0.3952  -0.3844  -0.3551  -0.3504  -0.3147  -0.2910  -0.2533

          Ground-State Mulliken Net Atomic Charges

     Atom                 Charge (a.u.)
  ----------------------------------------
      1 C                    -0.191741
      2 C                    -0.254703
      3 S                    -0.024261
      4 C                    -0.017126
      5 H                     0.195676
      6 C                    -0.026323
      7 C                     0.236722
      8 C                     0.240858
      9 C                    -0.047961
     10 C                    -0.021673
     11 O                    -0.333420
     12 O                    -0.340198
     13 C                    -0.085402
     14 H                     0.122306
     15 H                     0.090162
     16 H                     0.093856
     17 C                    -0.086851
     18 H                     0.124994
     19 H                     0.094131
     20 H                     0.089206
     21 C                    -0.236958
     22 S                    -0.009111
     23 C                    -0.049818
     24 H                     0.193622
     25 H                     0.205702
     26 C                    -0.044922
     27 S                     0.114232
     28 C                    -0.196060
     29 C                    -0.053216
     30 C                    -0.013268
     31 C                     0.357029
     32 C                    -0.136007
     33 S                     0.054231
     34 C                     0.457455
     35 O                    -0.444476
     36 O                    -0.297402
     37 F                    -0.209143
     38 C                    -0.054664
     39 H                     0.116979
     40 H                     0.085063
     41 H                     0.085075
     42 H                     0.217402
  ----------------------------------------
  Sum of atomic charges =     0.000000

                    Cartesian Multipole Moments
 -----------------------------------------------------------------
    Charge (ESU x 10^10)
                -0.0000
    Dipole Moment (Debye)
         X       3.2878      Y       2.2909      Z       2.8554
       Tot       4.9205
    Quadrupole Moments (Debye-Ang)
        XX    -181.3195     XY       8.0107     YY    -168.8669
        XZ       4.9152     YZ      -7.4969     ZZ    -192.7334

 Total job time:  297.13s(wall), 9650.83s(cpu)
        *  Thank you very much for using Q-Chem.  Have a nice day.  *
