 Q-Chem 5.4, Q-Chem, Inc., Pleasanton, CA (2021)
 Q-Chem 5.4.0 for Intel X86 EM64T Linux

User input:
--------------------------------------------------------------
$molecule
0 1
C	0.255929	-8.519741	-0.092419
C	-0.666007	-7.635967	0.449364
S	1.592708	-7.651740	-0.885736
C	-0.332317	-6.261894	0.254813
H	-1.571741	-7.954738	0.980526
C	0.904324	-6.079985	-0.458965
C	1.385968	-4.798382	-0.767823
C	-1.118303	-5.153542	0.681909
C	-0.638514	-3.869626	0.369139
C	0.600871	-3.688927	-0.342916
O	-2.248132	-5.481075	1.368544
O	2.520275	-4.479871	-1.458570
C	3.639637	-5.356026	-1.405396
H	4.495304	-4.790496	-1.820940
H	3.490336	-6.268513	-2.023129
H	3.873314	-5.658187	-0.361595
C	-3.314934	-4.546999	1.480048
H	-4.171837	-5.107564	1.899255
H	-3.601473	-4.131473	0.490123
H	-3.068969	-3.712085	2.171521
C	0.930308	-2.314326	-0.537642
S	-1.334769	-2.295487	0.785807
C	-0.000000	-1.435180	-0.000000
H	1.836691	-1.993211	-1.066134
H	0.249906	-9.615985	-0.091781
C	0.000000	0.000000	0.000000
S	0.690437	0.576430	1.510732
C	1.896512	1.589852	0.727629
C	0.695720	0.583817	-1.064665
C	1.758621	1.477674	-0.678287
C	0.645928	0.539878	-2.486150
C	1.614763	1.352997	-3.106916
S	2.568261	2.157430	-1.965735
C	1.812707	1.512991	-4.559972
O	1.099523	0.910662	-5.350277
O	2.797769	2.335330	-5.004375
F	-0.205024	-0.179266	-3.246290
C	3.079074	2.558124	-6.334976
H	3.925910	3.267919	-6.370268
H	2.208109	2.990367	-6.875609
H	3.358147	1.618843	-6.861878
H	2.601331	2.181180	1.321510
$end

$rem
JOBTYPE		SP
EXCHANGE	HF
CORRELATION	pRIMP2
BASIS		cc-pvtz
METHOD		rimp2
AUX_BASIS	rimp2-cc-pvtz
SOLVENT_METHOD	PCM
PURECART	11111
SYMMETRY	false
MEM_TOTAL	110000
SCF_CONVERGENCE = 6
THRESH=10
GUI = 2
$end

$solvent
dielectric 4.90
$end
--------------------------------------------------------------

             Standard Nuclear Orientation (Angstroms)
    I     Atom           X                Y                Z
 ----------------------------------------------------------------
    1      C       0.2559290000    -8.5197410000    -0.0924190000
    2      C      -0.6660070000    -7.6359670000     0.4493640000
    3      S       1.5927080000    -7.6517400000    -0.8857360000
    4      C      -0.3323170000    -6.2618940000     0.2548130000
    5      H      -1.5717410000    -7.9547380000     0.9805260000
    6      C       0.9043240000    -6.0799850000    -0.4589650000
    7      C       1.3859680000    -4.7983820000    -0.7678230000
    8      C      -1.1183030000    -5.1535420000     0.6819090000
    9      C      -0.6385140000    -3.8696260000     0.3691390000
   10      C       0.6008710000    -3.6889270000    -0.3429160000
   11      O      -2.2481320000    -5.4810750000     1.3685440000
   12      O       2.5202750000    -4.4798710000    -1.4585700000
   13      C       3.6396370000    -5.3560260000    -1.4053960000
   14      H       4.4953040000    -4.7904960000    -1.8209400000
   15      H       3.4903360000    -6.2685130000    -2.0231290000
   16      H       3.8733140000    -5.6581870000    -0.3615950000
   17      C      -3.3149340000    -4.5469990000     1.4800480000
   18      H      -4.1718370000    -5.1075640000     1.8992550000
   19      H      -3.6014730000    -4.1314730000     0.4901230000
   20      H      -3.0689690000    -3.7120850000     2.1715210000
   21      C       0.9303080000    -2.3143260000    -0.5376420000
   22      S      -1.3347690000    -2.2954870000     0.7858070000
   23      C       0.0000000000    -1.4351800000     0.0000000000
   24      H       1.8366910000    -1.9932110000    -1.0661340000
   25      H       0.2499060000    -9.6159850000    -0.0917810000
   26      C       0.0000000000     0.0000000000     0.0000000000
   27      S       0.6904370000     0.5764300000     1.5107320000
   28      C       1.8965120000     1.5898520000     0.7276290000
   29      C       0.6957200000     0.5838170000    -1.0646650000
   30      C       1.7586210000     1.4776740000    -0.6782870000
   31      C       0.6459280000     0.5398780000    -2.4861500000
   32      C       1.6147630000     1.3529970000    -3.1069160000
   33      S       2.5682610000     2.1574300000    -1.9657350000
   34      C       1.8127070000     1.5129910000    -4.5599720000
   35      O       1.0995230000     0.9106620000    -5.3502770000
   36      O       2.7977690000     2.3353300000    -5.0043750000
   37      F      -0.2050240000    -0.1792660000    -3.2462900000
   38      C       3.0790740000     2.5581240000    -6.3349760000
   39      H       3.9259100000     3.2679190000    -6.3702680000
   40      H       2.2081090000     2.9903670000    -6.8756090000
   41      H       3.3581470000     1.6188430000    -6.8618780000
   42      H       2.6013310000     2.1811800000     1.3215100000
 ----------------------------------------------------------------

   11   -2754.2546766546      5.61e-07  Convergence criterion met
 Total energy in the final basis set =    -2754.2546766546
        RIMP2         total energy =     -2759.3207376975 a.u.

                    Orbital Energies (a.u.)
 --------------------------------------------------------------

 Alpha MOs
 -- Occupied --
-92.0161 -92.0024 -91.9843 -91.9827 -26.3341 -20.6149 -20.5908 -20.5891
-20.5550 -11.4146 -11.3771 -11.3175 -11.3169 -11.3137 -11.3076 -11.2997
-11.2936 -11.2918 -11.2899 -11.2857 -11.2849 -11.2840 -11.2819 -11.2811
-11.2770 -11.2581 -11.2552 -11.2484 -11.2477  -9.0149  -9.0061  -8.9842
 -8.9835  -6.6955  -6.6947  -6.6944  -6.6873  -6.6867  -6.6854  -6.6652
 -6.6646  -6.6645  -6.6638  -6.6638  -6.6629  -1.6470  -1.4750  -1.4148
 -1.4119  -1.3708  -1.2405  -1.1930  -1.1689  -1.1440  -1.0835  -1.0510
 -1.0487  -1.0314  -0.9989  -0.9921  -0.9744  -0.9588  -0.9488  -0.9390
 -0.8934  -0.8736  -0.8445  -0.8031  -0.7947  -0.7860  -0.7753  -0.7698
 -0.7544  -0.7308  -0.7185  -0.7156  -0.7000  -0.6919  -0.6809  -0.6803
 -0.6754  -0.6609  -0.6573  -0.6509  -0.6277  -0.6183  -0.6153  -0.6101
 -0.6068  -0.6003  -0.5806  -0.5743  -0.5689  -0.5625  -0.5547  -0.5486
 -0.5320  -0.5263  -0.5232  -0.5148  -0.5134  -0.5079  -0.5020  -0.4951
 -0.4892  -0.4864  -0.4698  -0.4653  -0.4640  -0.4625  -0.4582  -0.4071
 -0.3955  -0.3851  -0.3597  -0.3466  -0.3176  -0.2913  -0.2524

          Ground-State Mulliken Net Atomic Charges

     Atom                 Charge (a.u.)
  ----------------------------------------
      1 C                    -0.193524
      2 C                    -0.253994
      3 S                    -0.026010
      4 C                    -0.019261
      5 H                     0.195673
      6 C                    -0.026634
      7 C                     0.236153
      8 C                     0.244380
      9 C                    -0.045790
     10 C                    -0.018976
     11 O                    -0.333752
     12 O                    -0.341217
     13 C                    -0.085566
     14 H                     0.121575
     15 H                     0.090871
     16 H                     0.092939
     17 C                    -0.087193
     18 H                     0.124827
     19 H                     0.094864
     20 H                     0.089260
     21 C                    -0.262138
     22 S                    -0.030838
     23 C                     0.026039
     24 H                     0.194975
     25 H                     0.205415
     26 C                    -0.126080
     27 S                     0.135781
     28 C                    -0.171767
     29 C                    -0.106807
     30 C                    -0.012329
     31 C                     0.401125
     32 C                    -0.138418
     33 S                     0.062577
     34 C                     0.459074
     35 O                    -0.441229
     36 O                    -0.297126
     37 F                    -0.210083
     38 C                    -0.054642
     39 H                     0.117174
     40 H                     0.085461
     41 H                     0.085483
     42 H                     0.219726
  ----------------------------------------
  Sum of atomic charges =     0.000000

                    Cartesian Multipole Moments
 -----------------------------------------------------------------
    Charge (ESU x 10^10)
                 0.0000
    Dipole Moment (Debye)
         X       3.9861      Y       2.4726      Z       3.1300
       Tot       5.6391
    Quadrupole Moments (Debye-Ang)
        XX    -167.8491     XY       9.0999     YY    -173.3457
        XZ     -15.8340     YZ      -8.9513     ZZ    -201.6982

 Total job time:  303.09s(wall), 9788.98s(cpu)
        *  Thank you very much for using Q-Chem.  Have a nice day.  *
