 Q-Chem 5.4, Q-Chem, Inc., Pleasanton, CA (2021)
 Q-Chem 5.4.0 for Intel X86 EM64T Linux

User input:
--------------------------------------------------------------
$molecule
0 1
C	-0.135457	-8.519741	-0.235993
C	0.558188	-7.635967	0.577858
S	-1.148850	-7.651740	-1.414705
C	0.308648	-6.261894	0.283020
H	1.238560	-7.954738	1.377597
C	-0.609026	-6.079985	-0.810887
C	-0.996828	-4.798382	-1.231581
C	0.865740	-5.153542	0.982901
C	0.474408	-3.869626	0.564713
C	-0.442046	-3.688927	-0.532196
O	1.738137	-5.481075	1.976332
O	-1.874052	-4.479871	-2.228709
C	-2.016062	-5.356026	-3.340298
H	-2.573877	-4.790496	-4.110807
H	-2.598484	-6.268513	-3.085998
H	-1.028695	-5.658187	-3.751679
C	2.033195	-4.546999	3.007565
H	2.594833	-5.107564	3.778655
H	1.108067	-4.131473	3.461650
H	2.671451	-3.712085	2.645264
C	-0.691020	-2.314326	-0.822814
S	1.005649	-2.295487	1.178037
C	-0.000000	-1.435180	-0.000000
H	-1.368875	-1.993211	-1.623656
H	-0.133782	-9.615985	-0.230172
C	0.000000	0.000000	0.000000
S	0.382139	0.814215	1.510732
C	1.046923	2.242395	0.727629
C	0.383804	0.823142	-1.064665
C	0.969360	2.082453	-0.678287
C	0.357247	0.762277	-2.486150
C	0.891671	1.908660	-3.106916
S	1.415865	3.040689	-1.965735
C	1.003453	2.137318	-4.559972
O	0.611644	1.290019	-5.350277
O	1.548687	3.298916	-5.004375
F	-0.110054	-0.249117	-3.246290
C	1.709479	3.619721	-6.334976
H	2.177001	4.620902	-6.370268
H	0.737443	3.643380	-6.875609
H	2.359363	2.886384	-6.861878
H	1.435800	3.076190	1.321510
$end

$rem
JOBTYPE		SP
EXCHANGE	HF
CORRELATION	pRIMP2
BASIS		cc-pvtz
METHOD		rimp2
AUX_BASIS	rimp2-cc-pvtz
SOLVENT_METHOD	PCM
PURECART	11111
SYMMETRY	false
MEM_TOTAL	110000
SCF_CONVERGENCE = 6
THRESH=10
GUI = 2
$end

$solvent
dielectric 4.90
$end
--------------------------------------------------------------

             Standard Nuclear Orientation (Angstroms)
    I     Atom           X                Y                Z
 ----------------------------------------------------------------
    1      C      -0.1354570000    -8.5197410000    -0.2359930000
    2      C       0.5581880000    -7.6359670000     0.5778580000
    3      S      -1.1488500000    -7.6517400000    -1.4147050000
    4      C       0.3086480000    -6.2618940000     0.2830200000
    5      H       1.2385600000    -7.9547380000     1.3775970000
    6      C      -0.6090260000    -6.0799850000    -0.8108870000
    7      C      -0.9968280000    -4.7983820000    -1.2315810000
    8      C       0.8657400000    -5.1535420000     0.9829010000
    9      C       0.4744080000    -3.8696260000     0.5647130000
   10      C      -0.4420460000    -3.6889270000    -0.5321960000
   11      O       1.7381370000    -5.4810750000     1.9763320000
   12      O      -1.8740520000    -4.4798710000    -2.2287090000
   13      C      -2.0160620000    -5.3560260000    -3.3402980000
   14      H      -2.5738770000    -4.7904960000    -4.1108070000
   15      H      -2.5984840000    -6.2685130000    -3.0859980000
   16      H      -1.0286950000    -5.6581870000    -3.7516790000
   17      C       2.0331950000    -4.5469990000     3.0075650000
   18      H       2.5948330000    -5.1075640000     3.7786550000
   19      H       1.1080670000    -4.1314730000     3.4616500000
   20      H       2.6714510000    -3.7120850000     2.6452640000
   21      C      -0.6910200000    -2.3143260000    -0.8228140000
   22      S       1.0056490000    -2.2954870000     1.1780370000
   23      C       0.0000000000    -1.4351800000     0.0000000000
   24      H      -1.3688750000    -1.9932110000    -1.6236560000
   25      H      -0.1337820000    -9.6159850000    -0.2301720000
   26      C       0.0000000000     0.0000000000     0.0000000000
   27      S       0.3821390000     0.8142150000     1.5107320000
   28      C       1.0469230000     2.2423950000     0.7276290000
   29      C       0.3838040000     0.8231420000    -1.0646650000
   30      C       0.9693600000     2.0824530000    -0.6782870000
   31      C       0.3572470000     0.7622770000    -2.4861500000
   32      C       0.8916710000     1.9086600000    -3.1069160000
   33      S       1.4158650000     3.0406890000    -1.9657350000
   34      C       1.0034530000     2.1373180000    -4.5599720000
   35      O       0.6116440000     1.2900190000    -5.3502770000
   36      O       1.5486870000     3.2989160000    -5.0043750000
   37      F      -0.1100540000    -0.2491170000    -3.2462900000
   38      C       1.7094790000     3.6197210000    -6.3349760000
   39      H       2.1770010000     4.6209020000    -6.3702680000
   40      H       0.7374430000     3.6433800000    -6.8756090000
   41      H       2.3593630000     2.8863840000    -6.8618780000
   42      H       1.4358000000     3.0761900000     1.3215100000
 ----------------------------------------------------------------

   10   -2754.2862534380      7.95e-07  Convergence criterion met
 Total energy in the final basis set =    -2754.2862534380
        RIMP2         total energy =     -2759.3441436085 a.u.

                    Orbital Energies (a.u.)
 --------------------------------------------------------------

 Alpha MOs
 -- Occupied --
-92.0162 -91.9964 -91.9912 -91.9859 -26.3350 -20.6125 -20.5925 -20.5903
-20.5508 -11.4110 -11.3775 -11.3193 -11.3168 -11.3076 -11.2990 -11.2983
-11.2972 -11.2950 -11.2887 -11.2875 -11.2852 -11.2849 -11.2846 -11.2837
-11.2792 -11.2606 -11.2583 -11.2536 -11.2496  -9.0148  -9.0003  -8.9916
 -8.9858  -6.6955  -6.6949  -6.6944  -6.6816  -6.6809  -6.6796  -6.6725
 -6.6718  -6.6708  -6.6668  -6.6661  -6.6653  -1.6480  -1.4723  -1.4166
 -1.4131  -1.3677  -1.2352  -1.1957  -1.1690  -1.1428  -1.0839  -1.0516
 -1.0485  -1.0287  -1.0022  -0.9931  -0.9726  -0.9607  -0.9502  -0.9381
 -0.8960  -0.8704  -0.8499  -0.8037  -0.7943  -0.7878  -0.7713  -0.7707
 -0.7571  -0.7317  -0.7193  -0.7162  -0.7010  -0.6896  -0.6826  -0.6789
 -0.6724  -0.6611  -0.6590  -0.6519  -0.6293  -0.6194  -0.6163  -0.6071
 -0.6017  -0.5962  -0.5877  -0.5766  -0.5677  -0.5609  -0.5553  -0.5460
 -0.5375  -0.5271  -0.5221  -0.5168  -0.5166  -0.5086  -0.5042  -0.4947
 -0.4869  -0.4853  -0.4756  -0.4694  -0.4619  -0.4616  -0.4606  -0.4186
 -0.3969  -0.3854  -0.3574  -0.3506  -0.3218  -0.2869  -0.2503

          Ground-State Mulliken Net Atomic Charges

     Atom                 Charge (a.u.)
  ----------------------------------------
      1 C                    -0.189269
      2 C                    -0.254930
      3 S                    -0.022111
      4 C                    -0.014788
      5 H                     0.196115
      6 C                    -0.026999
      7 C                     0.240508
      8 C                     0.241017
      9 C                    -0.048173
     10 C                    -0.024310
     11 O                    -0.333020
     12 O                    -0.339664
     13 C                    -0.085597
     14 H                     0.123207
     15 H                     0.090600
     16 H                     0.094002
     17 C                    -0.087606
     18 H                     0.125408
     19 H                     0.094508
     20 H                     0.089509
     21 C                    -0.234323
     22 S                    -0.013019
     23 C                    -0.038278
     24 H                     0.193751
     25 H                     0.206256
     26 C                    -0.003510
     27 S                     0.095747
     28 C                    -0.217232
     29 C                    -0.058043
     30 C                    -0.016646
     31 C                     0.363951
     32 C                    -0.138769
     33 S                     0.044503
     34 C                     0.456909
     35 O                    -0.448849
     36 O                    -0.297877
     37 F                    -0.210742
     38 C                    -0.054782
     39 H                     0.116712
     40 H                     0.084582
     41 H                     0.084646
     42 H                     0.216603
  ----------------------------------------
  Sum of atomic charges =     0.000000

                    Cartesian Multipole Moments
 -----------------------------------------------------------------
    Charge (ESU x 10^10)
                -0.0000
    Dipole Moment (Debye)
         X       1.9191      Y       1.7623      Z       3.0778
       Tot       4.0326
    Quadrupole Moments (Debye-Ang)
        XX    -193.8336     XY       5.2740     YY    -162.4690
        XZ       5.4252     YZ      -8.7186     ZZ    -185.8491

 Total job time:  311.67s(wall), 9863.86s(cpu)
        *  Thank you very much for using Q-Chem.  Have a nice day.  *
