 Q-Chem 5.4, Q-Chem, Inc., Pleasanton, CA (2021)
 Q-Chem 5.4.0 for Intel X86 EM64T Linux

User input:
--------------------------------------------------------------
$molecule
0 1
C	0.255929	-8.519741	-0.092419
C	-0.666007	-7.635967	0.449364
S	1.592708	-7.651740	-0.885736
C	-0.332317	-6.261894	0.254813
H	-1.571741	-7.954738	0.980526
C	0.904324	-6.079985	-0.458965
C	1.385968	-4.798382	-0.767823
C	-1.118303	-5.153542	0.681909
C	-0.638514	-3.869626	0.369139
C	0.600871	-3.688927	-0.342916
O	-2.248132	-5.481075	1.368544
O	2.520275	-4.479871	-1.458570
C	3.639637	-5.356026	-1.405396
H	4.495304	-4.790496	-1.820940
H	3.490336	-6.268513	-2.023129
H	3.873314	-5.658187	-0.361595
C	-3.314934	-4.546999	1.480048
H	-4.171837	-5.107564	1.899255
H	-3.601473	-4.131473	0.490123
H	-3.068969	-3.712085	2.171521
C	0.930308	-2.314326	-0.537642
S	-1.334769	-2.295487	0.785807
C	-0.000000	-1.435180	-0.000000
H	1.836691	-1.993211	-1.066134
H	0.249906	-9.615985	-0.091781
C	0.000000	0.000000	0.000000
S	0.451648	0.777811	1.510732
C	1.238377	2.142617	0.727629
C	0.454085	0.786559	-1.064665
C	1.147169	1.990043	-0.678287
C	0.422325	0.728240	-2.486150
C	1.054629	1.823683	-3.106916
S	1.675491	2.905718	-1.965735
C	1.185914	2.041729	-4.559972
O	0.721749	1.231802	-5.350277
O	1.830313	3.151386	-5.004375
F	-0.131347	-0.238577	-3.246290
C	2.018453	3.456956	-6.334976
H	2.571455	4.413580	-6.370268
H	1.052178	3.565244	-6.875609
H	2.601950	2.669768	-6.861878
H	1.698444	2.939346	1.321510
$end

$rem
JOBTYPE		SP
EXCHANGE	HF
CORRELATION	pRIMP2
BASIS		cc-pvtz
METHOD		rimp2
AUX_BASIS	rimp2-cc-pvtz
SOLVENT_METHOD	PCM
PURECART	11111
SYMMETRY	false
MEM_TOTAL	110000
SCF_CONVERGENCE = 6
THRESH=10
GUI = 2
$end

$solvent
dielectric 4.90
$end
--------------------------------------------------------------

             Standard Nuclear Orientation (Angstroms)
    I     Atom           X                Y                Z
 ----------------------------------------------------------------
    1      C       0.2559290000    -8.5197410000    -0.0924190000
    2      C      -0.6660070000    -7.6359670000     0.4493640000
    3      S       1.5927080000    -7.6517400000    -0.8857360000
    4      C      -0.3323170000    -6.2618940000     0.2548130000
    5      H      -1.5717410000    -7.9547380000     0.9805260000
    6      C       0.9043240000    -6.0799850000    -0.4589650000
    7      C       1.3859680000    -4.7983820000    -0.7678230000
    8      C      -1.1183030000    -5.1535420000     0.6819090000
    9      C      -0.6385140000    -3.8696260000     0.3691390000
   10      C       0.6008710000    -3.6889270000    -0.3429160000
   11      O      -2.2481320000    -5.4810750000     1.3685440000
   12      O       2.5202750000    -4.4798710000    -1.4585700000
   13      C       3.6396370000    -5.3560260000    -1.4053960000
   14      H       4.4953040000    -4.7904960000    -1.8209400000
   15      H       3.4903360000    -6.2685130000    -2.0231290000
   16      H       3.8733140000    -5.6581870000    -0.3615950000
   17      C      -3.3149340000    -4.5469990000     1.4800480000
   18      H      -4.1718370000    -5.1075640000     1.8992550000
   19      H      -3.6014730000    -4.1314730000     0.4901230000
   20      H      -3.0689690000    -3.7120850000     2.1715210000
   21      C       0.9303080000    -2.3143260000    -0.5376420000
   22      S      -1.3347690000    -2.2954870000     0.7858070000
   23      C       0.0000000000    -1.4351800000     0.0000000000
   24      H       1.8366910000    -1.9932110000    -1.0661340000
   25      H       0.2499060000    -9.6159850000    -0.0917810000
   26      C       0.0000000000     0.0000000000     0.0000000000
   27      S       0.4516480000     0.7778110000     1.5107320000
   28      C       1.2383770000     2.1426170000     0.7276290000
   29      C       0.4540850000     0.7865590000    -1.0646650000
   30      C       1.1471690000     1.9900430000    -0.6782870000
   31      C       0.4223250000     0.7282400000    -2.4861500000
   32      C       1.0546290000     1.8236830000    -3.1069160000
   33      S       1.6754910000     2.9057180000    -1.9657350000
   34      C       1.1859140000     2.0417290000    -4.5599720000
   35      O       0.7217490000     1.2318020000    -5.3502770000
   36      O       1.8303130000     3.1513860000    -5.0043750000
   37      F      -0.1313470000    -0.2385770000    -3.2462900000
   38      C       2.0184530000     3.4569560000    -6.3349760000
   39      H       2.5714550000     4.4135800000    -6.3702680000
   40      H       1.0521780000     3.5652440000    -6.8756090000
   41      H       2.6019500000     2.6697680000    -6.8618780000
   42      H       1.6984440000     2.9393460000     1.3215100000
 ----------------------------------------------------------------

   10   -2754.2818890454      9.08e-07  Convergence criterion met
 Total energy in the final basis set =    -2754.2818890454
        RIMP2         total energy =     -2759.3397323811 a.u.

                    Orbital Energies (a.u.)
 --------------------------------------------------------------

 Alpha MOs
 -- Occupied --
-92.0158 -91.9969 -91.9874 -91.9859 -26.3338 -20.6128 -20.5920 -20.5908
-20.5515 -11.4116 -11.3772 -11.3186 -11.3172 -11.3019 -11.3014 -11.3004
-11.2972 -11.2939 -11.2888 -11.2867 -11.2857 -11.2855 -11.2850 -11.2835
-11.2792 -11.2604 -11.2582 -11.2557 -11.2496  -9.0142  -9.0009  -8.9879
 -8.9858  -6.6949  -6.6942  -6.6938  -6.6821  -6.6815  -6.6801  -6.6689
 -6.6682  -6.6673  -6.6668  -6.6661  -6.6653  -1.6467  -1.4727  -1.4161
 -1.4136  -1.3682  -1.2353  -1.1951  -1.1683  -1.1427  -1.0837  -1.0514
 -1.0485  -1.0287  -1.0013  -0.9928  -0.9723  -0.9605  -0.9500  -0.9387
 -0.8952  -0.8705  -0.8484  -0.8033  -0.7929  -0.7875  -0.7730  -0.7708
 -0.7569  -0.7320  -0.7184  -0.7151  -0.7011  -0.6897  -0.6822  -0.6791
 -0.6723  -0.6606  -0.6586  -0.6521  -0.6291  -0.6196  -0.6162  -0.6074
 -0.6036  -0.5966  -0.5814  -0.5763  -0.5707  -0.5640  -0.5536  -0.5511
 -0.5331  -0.5265  -0.5245  -0.5156  -0.5140  -0.5080  -0.5021  -0.4958
 -0.4889  -0.4857  -0.4737  -0.4669  -0.4624  -0.4618  -0.4599  -0.4100
 -0.3975  -0.3867  -0.3591  -0.3479  -0.3184  -0.2885  -0.2549

          Ground-State Mulliken Net Atomic Charges

     Atom                 Charge (a.u.)
  ----------------------------------------
      1 C                    -0.189334
      2 C                    -0.254075
      3 S                    -0.022565
      4 C                    -0.016626
      5 H                     0.196198
      6 C                    -0.029000
      7 C                     0.241790
      8 C                     0.244809
      9 C                    -0.048556
     10 C                    -0.018230
     11 O                    -0.333529
     12 O                    -0.339836
     13 C                    -0.085557
     14 H                     0.122470
     15 H                     0.091118
     16 H                     0.093536
     17 C                    -0.086939
     18 H                     0.125013
     19 H                     0.095142
     20 H                     0.089140
     21 C                    -0.221907
     22 S                    -0.013111
     23 C                    -0.008186
     24 H                     0.199397
     25 H                     0.206261
     26 C                    -0.052214
     27 S                     0.124552
     28 C                    -0.218465
     29 C                    -0.129420
     30 C                    -0.004702
     31 C                     0.392617
     32 C                    -0.149336
     33 S                     0.046522
     34 C                     0.460199
     35 O                    -0.447202
     36 O                    -0.297741
     37 F                    -0.210284
     38 C                    -0.054919
     39 H                     0.116755
     40 H                     0.084905
     41 H                     0.084833
     42 H                     0.216474
  ----------------------------------------
  Sum of atomic charges =     0.000000

                    Cartesian Multipole Moments
 -----------------------------------------------------------------
    Charge (ESU x 10^10)
                -0.0000
    Dipole Moment (Debye)
         X       2.1392      Y       1.8624      Z       3.3733
       Tot       4.4072
    Quadrupole Moments (Debye-Ang)
        XX    -174.4586     XY       6.3387     YY    -163.6298
        XZ     -12.5155     YZ     -10.6366     ZZ    -203.7330

 Total job time:  324.74s(wall), 10755.69s(cpu)
        *  Thank you very much for using Q-Chem.  Have a nice day.  *
