 Q-Chem 5.4, Q-Chem, Inc., Pleasanton, CA (2021)
 Q-Chem 5.4.0 for Intel X86 EM64T Linux

User input:
--------------------------------------------------------------
$molecule
0 1
C	0.268090	-8.519741	-0.046574
C	-0.733920	-7.635967	0.326886
S	1.722318	-7.651740	-0.595708
C	-0.371516	-6.261894	0.193236
H	-1.718130	-7.954738	0.692700
C	0.970283	-6.079985	-0.294958
C	1.498243	-4.798382	-0.515487
C	-1.219725	-5.153542	0.477358
C	-0.692914	-3.869626	0.252655
C	0.651289	-3.688927	-0.233366
O	-2.451623	-5.481075	0.957369
O	2.735264	-4.479871	-0.998769
C	3.828387	-5.356026	-0.752029
H	4.743213	-4.790496	-1.012675
H	3.788623	-6.268513	-1.386303
H	3.877260	-5.658187	0.316492
C	-3.521580	-4.546999	0.881930
H	-4.438260	-5.107564	1.145969
H	-3.631868	-4.131473	-0.142712
H	-3.399425	-3.712085	1.605610
C	1.009535	-2.314326	-0.367928
S	-1.450945	-2.295487	0.542088
C	0.000000	-1.435180	0.000000
H	1.993920	-1.993211	-0.730999
H	0.262047	-9.615985	-0.046991
C	0.000000	0.000000	0.000000
S	0.002233	0.899428	1.510732
C	0.001157	2.474749	0.727629
C	-0.000030	0.908223	-1.064665
C	-0.001545	2.297013	-0.678287
C	0.001624	0.841837	-2.486150
C	0.001494	2.106670	-3.106916
S	-0.001841	3.354171	-1.965735
C	0.006168	2.361146	-4.559972
O	0.009152	1.427646	-5.350277
O	0.009405	3.644337	-5.004375
F	0.005539	-0.272288	-3.246290
C	0.019554	4.003038	-6.334976
H	0.020155	5.108000	-6.370268
H	-0.871409	3.613681	-6.875609
H	0.918470	3.613062	-6.861878
H	0.001222	3.394771	1.321510
$end

$rem
JOBTYPE		SP
EXCHANGE	HF
CORRELATION	pRIMP2
BASIS		cc-pvtz
METHOD		rimp2
AUX_BASIS	rimp2-cc-pvtz
SOLVENT_METHOD	PCM
PURECART	11111
SYMMETRY	false
MEM_TOTAL	110000
SCF_CONVERGENCE = 6
THRESH=10
GUI = 2
$end

$solvent
dielectric 4.90
$end
--------------------------------------------------------------

             Standard Nuclear Orientation (Angstroms)
    I     Atom           X                Y                Z
 ----------------------------------------------------------------
    1      C       0.2680900000    -8.5197410000    -0.0465740000
    2      C      -0.7339200000    -7.6359670000     0.3268860000
    3      S       1.7223180000    -7.6517400000    -0.5957080000
    4      C      -0.3715160000    -6.2618940000     0.1932360000
    5      H      -1.7181300000    -7.9547380000     0.6927000000
    6      C       0.9702830000    -6.0799850000    -0.2949580000
    7      C       1.4982430000    -4.7983820000    -0.5154870000
    8      C      -1.2197250000    -5.1535420000     0.4773580000
    9      C      -0.6929140000    -3.8696260000     0.2526550000
   10      C       0.6512890000    -3.6889270000    -0.2333660000
   11      O      -2.4516230000    -5.4810750000     0.9573690000
   12      O       2.7352640000    -4.4798710000    -0.9987690000
   13      C       3.8283870000    -5.3560260000    -0.7520290000
   14      H       4.7432130000    -4.7904960000    -1.0126750000
   15      H       3.7886230000    -6.2685130000    -1.3863030000
   16      H       3.8772600000    -5.6581870000     0.3164920000
   17      C      -3.5215800000    -4.5469990000     0.8819300000
   18      H      -4.4382600000    -5.1075640000     1.1459690000
   19      H      -3.6318680000    -4.1314730000    -0.1427120000
   20      H      -3.3994250000    -3.7120850000     1.6056100000
   21      C       1.0095350000    -2.3143260000    -0.3679280000
   22      S      -1.4509450000    -2.2954870000     0.5420880000
   23      C       0.0000000000    -1.4351800000     0.0000000000
   24      H       1.9939200000    -1.9932110000    -0.7309990000
   25      H       0.2620470000    -9.6159850000    -0.0469910000
   26      C       0.0000000000     0.0000000000     0.0000000000
   27      S       0.0022330000     0.8994280000     1.5107320000
   28      C       0.0011570000     2.4747490000     0.7276290000
   29      C      -0.0000300000     0.9082230000    -1.0646650000
   30      C      -0.0015450000     2.2970130000    -0.6782870000
   31      C       0.0016240000     0.8418370000    -2.4861500000
   32      C       0.0014940000     2.1066700000    -3.1069160000
   33      S      -0.0018410000     3.3541710000    -1.9657350000
   34      C       0.0061680000     2.3611460000    -4.5599720000
   35      O       0.0091520000     1.4276460000    -5.3502770000
   36      O       0.0094050000     3.6443370000    -5.0043750000
   37      F       0.0055390000    -0.2722880000    -3.2462900000
   38      C       0.0195540000     4.0030380000    -6.3349760000
   39      H       0.0201550000     5.1080000000    -6.3702680000
   40      H      -0.8714090000     3.6136810000    -6.8756090000
   41      H       0.9184700000     3.6130620000    -6.8618780000
   42      H       0.0012220000     3.3947710000     1.3215100000
 ----------------------------------------------------------------

   10   -2754.2958245525      8.53e-07  Convergence criterion met
 Total energy in the final basis set =    -2754.2958245525
        RIMP2         total energy =     -2759.3479382719 a.u.

                    Orbital Energies (a.u.)
 --------------------------------------------------------------

 Alpha MOs
 -- Occupied --
-92.0159 -91.9941 -91.9906 -91.9868 -26.3336 -20.6118 -20.5927 -20.5919
-20.5497 -11.4100 -11.3771 -11.3196 -11.3191 -11.3103 -11.2967 -11.2959
-11.2937 -11.2932 -11.2883 -11.2873 -11.2871 -11.2862 -11.2844 -11.2825
-11.2805 -11.2613 -11.2600 -11.2597 -11.2503  -9.0141  -8.9981  -8.9910
 -8.9867  -6.6948  -6.6942  -6.6938  -6.6794  -6.6787  -6.6774  -6.6719
 -6.6712  -6.6702  -6.6676  -6.6670  -6.6662  -1.6464  -1.4715  -1.4168
 -1.4147  -1.3668  -1.2328  -1.1964  -1.1685  -1.1416  -1.0842  -1.0525
 -1.0472  -1.0273  -1.0028  -0.9934  -0.9711  -0.9616  -0.9507  -0.9383
 -0.8963  -0.8688  -0.8510  -0.8040  -0.7915  -0.7882  -0.7731  -0.7696
 -0.7584  -0.7330  -0.7180  -0.7147  -0.7017  -0.6886  -0.6834  -0.6782
 -0.6707  -0.6608  -0.6591  -0.6529  -0.6308  -0.6204  -0.6172  -0.6061
 -0.6017  -0.5940  -0.5838  -0.5771  -0.5710  -0.5653  -0.5540  -0.5502
 -0.5361  -0.5262  -0.5248  -0.5165  -0.5144  -0.5075  -0.5016  -0.4955
 -0.4904  -0.4837  -0.4762  -0.4692  -0.4616  -0.4611  -0.4604  -0.4098
 -0.3985  -0.3877  -0.3584  -0.3486  -0.3169  -0.2880  -0.2583

          Ground-State Mulliken Net Atomic Charges

     Atom                 Charge (a.u.)
  ----------------------------------------
      1 C                    -0.186739
      2 C                    -0.254501
      3 S                    -0.020888
      4 C                    -0.012654
      5 H                     0.196513
      6 C                    -0.027711
      7 C                     0.246520
      8 C                     0.238634
      9 C                    -0.047361
     10 C                    -0.032291
     11 O                    -0.333213
     12 O                    -0.339315
     13 C                    -0.085791
     14 H                     0.122923
     15 H                     0.091406
     16 H                     0.093857
     17 C                    -0.086675
     18 H                     0.124910
     19 H                     0.095484
     20 H                     0.089423
     21 C                    -0.211139
     22 S                    -0.000431
     23 C                    -0.044045
     24 H                     0.197107
     25 H                     0.206712
     26 C                    -0.026431
     27 S                     0.116506
     28 C                    -0.239820
     29 C                    -0.086244
     30 C                    -0.007296
     31 C                     0.396381
     32 C                    -0.156819
     33 S                     0.036071
     34 C                     0.460601
     35 O                    -0.450418
     36 O                    -0.297860
     37 F                    -0.211073
     38 C                    -0.055006
     39 H                     0.116498
     40 H                     0.084589
     41 H                     0.084435
     42 H                     0.215153
  ----------------------------------------
  Sum of atomic charges =     0.000000

                    Cartesian Multipole Moments
 -----------------------------------------------------------------
    Charge (ESU x 10^10)
                -0.0000
    Dipole Moment (Debye)
         X       0.0783      Y       1.3931      Z       3.5107
       Tot       3.7778
    Quadrupole Moments (Debye-Ang)
        XX    -176.6885     XY      -0.9699     YY    -157.8553
        XZ      -2.9858     YZ     -11.8014     ZZ    -206.4456

 Total job time:  299.85s(wall), 9751.10s(cpu)
        *  Thank you very much for using Q-Chem.  Have a nice day.  *
