 Q-Chem 5.4, Q-Chem, Inc., Pleasanton, CA (2021)
 Q-Chem 5.4.0 for Intel X86 EM64T Linux

User input:
--------------------------------------------------------------
$molecule
0 1
C	0.267851	-8.519741	0.047927
C	-0.801461	-7.635967	0.056157
S	1.822194	-7.651740	0.029285
C	-0.415201	-6.261894	0.054516
H	-1.851431	-7.954738	0.063290
C	1.012650	-6.079985	0.054687
C	1.584194	-4.798382	0.028030
C	-1.309433	-5.153542	0.031399
C	-0.737539	-3.869626	0.000427
C	0.691828	-3.688927	0.003462
O	-2.631211	-5.481075	0.061128
O	2.911907	-4.479871	-0.003021
C	3.854716	-5.356026	0.602710
H	4.803517	-4.790496	0.670671
H	4.034285	-6.268513	-0.006913
H	3.535185	-5.658187	1.623507
C	-3.610841	-4.546999	-0.375708
H	-4.562544	-5.107564	-0.441115
H	-3.364029	-4.131473	-1.376277
H	-3.743566	-3.712085	0.346107
C	1.074491	-2.314326	-0.000458
S	-1.548848	-2.295487	0.013144
C	-0.000000	-1.435180	-0.000000
H	2.123688	-1.993211	-0.004953
H	0.262315	-9.615985	0.045468
C	0.000000	0.000000	0.000000
S	0.382139	0.814215	1.510732
C	1.046923	2.242395	0.727629
C	0.383804	0.823142	-1.064665
C	0.969360	2.082453	-0.678287
C	0.357247	0.762277	-2.486150
C	0.891671	1.908660	-3.106916
S	1.415865	3.040689	-1.965735
C	1.003453	2.137318	-4.559972
O	0.611644	1.290019	-5.350277
O	1.548687	3.298916	-5.004375
F	-0.110054	-0.249117	-3.246290
C	1.709479	3.619721	-6.334976
H	2.177001	4.620902	-6.370268
H	0.737443	3.643380	-6.875609
H	2.359363	2.886384	-6.861878
H	1.435800	3.076190	1.321510
$end

$rem
JOBTYPE		SP
EXCHANGE	HF
CORRELATION	pRIMP2
BASIS		cc-pvtz
METHOD		rimp2
AUX_BASIS	rimp2-cc-pvtz
SOLVENT_METHOD	PCM
PURECART	11111
SYMMETRY	false
MEM_TOTAL	110000
SCF_CONVERGENCE = 6
THRESH=10
GUI = 2
$end

$solvent
dielectric 4.90
$end
--------------------------------------------------------------

             Standard Nuclear Orientation (Angstroms)
    I     Atom           X                Y                Z
 ----------------------------------------------------------------
    1      C       0.2678510000    -8.5197410000     0.0479270000
    2      C      -0.8014610000    -7.6359670000     0.0561570000
    3      S       1.8221940000    -7.6517400000     0.0292850000
    4      C      -0.4152010000    -6.2618940000     0.0545160000
    5      H      -1.8514310000    -7.9547380000     0.0632900000
    6      C       1.0126500000    -6.0799850000     0.0546870000
    7      C       1.5841940000    -4.7983820000     0.0280300000
    8      C      -1.3094330000    -5.1535420000     0.0313990000
    9      C      -0.7375390000    -3.8696260000     0.0004270000
   10      C       0.6918280000    -3.6889270000     0.0034620000
   11      O      -2.6312110000    -5.4810750000     0.0611280000
   12      O       2.9119070000    -4.4798710000    -0.0030210000
   13      C       3.8547160000    -5.3560260000     0.6027100000
   14      H       4.8035170000    -4.7904960000     0.6706710000
   15      H       4.0342850000    -6.2685130000    -0.0069130000
   16      H       3.5351850000    -5.6581870000     1.6235070000
   17      C      -3.6108410000    -4.5469990000    -0.3757080000
   18      H      -4.5625440000    -5.1075640000    -0.4411150000
   19      H      -3.3640290000    -4.1314730000    -1.3762770000
   20      H      -3.7435660000    -3.7120850000     0.3461070000
   21      C       1.0744910000    -2.3143260000    -0.0004580000
   22      S      -1.5488480000    -2.2954870000     0.0131440000
   23      C       0.0000000000    -1.4351800000     0.0000000000
   24      H       2.1236880000    -1.9932110000    -0.0049530000
   25      H       0.2623150000    -9.6159850000     0.0454680000
   26      C       0.0000000000     0.0000000000     0.0000000000
   27      S       0.3821390000     0.8142150000     1.5107320000
   28      C       1.0469230000     2.2423950000     0.7276290000
   29      C       0.3838040000     0.8231420000    -1.0646650000
   30      C       0.9693600000     2.0824530000    -0.6782870000
   31      C       0.3572470000     0.7622770000    -2.4861500000
   32      C       0.8916710000     1.9086600000    -3.1069160000
   33      S       1.4158650000     3.0406890000    -1.9657350000
   34      C       1.0034530000     2.1373180000    -4.5599720000
   35      O       0.6116440000     1.2900190000    -5.3502770000
   36      O       1.5486870000     3.2989160000    -5.0043750000
   37      F      -0.1100540000    -0.2491170000    -3.2462900000
   38      C       1.7094790000     3.6197210000    -6.3349760000
   39      H       2.1770010000     4.6209020000    -6.3702680000
   40      H       0.7374430000     3.6433800000    -6.8756090000
   41      H       2.3593630000     2.8863840000    -6.8618780000
   42      H       1.4358000000     3.0761900000     1.3215100000
 ----------------------------------------------------------------

   10   -2754.2835937654      9.15e-07  Convergence criterion met
 Total energy in the final basis set =    -2754.2835937654
        RIMP2         total energy =     -2759.3400131753 a.u.

                    Orbital Energies (a.u.)
 --------------------------------------------------------------

 Alpha MOs
 -- Occupied --
-92.0161 -91.9960 -91.9872 -91.9859 -26.3337 -20.6126 -20.5918 -20.5912
-20.5511 -11.4112 -11.3766 -11.3184 -11.3176 -11.3023 -11.2997 -11.2991
-11.2961 -11.2926 -11.2887 -11.2863 -11.2861 -11.2850 -11.2849 -11.2835
-11.2795 -11.2602 -11.2585 -11.2572 -11.2496  -9.0143  -9.0000  -8.9876
 -8.9859  -6.6949  -6.6943  -6.6939  -6.6812  -6.6806  -6.6792  -6.6685
 -6.6678  -6.6669  -6.6669  -6.6662  -6.6654  -1.6466  -1.4724  -1.4159
 -1.4140  -1.3679  -1.2342  -1.1950  -1.1678  -1.1420  -1.0834  -1.0513
 -1.0478  -1.0281  -1.0012  -0.9926  -0.9716  -0.9606  -0.9499  -0.9385
 -0.8949  -0.8699  -0.8488  -0.8046  -0.7908  -0.7876  -0.7741  -0.7688
 -0.7573  -0.7321  -0.7179  -0.7150  -0.7009  -0.6892  -0.6824  -0.6789
 -0.6718  -0.6603  -0.6583  -0.6523  -0.6300  -0.6197  -0.6163  -0.6070
 -0.6024  -0.5959  -0.5828  -0.5760  -0.5707  -0.5657  -0.5533  -0.5527
 -0.5316  -0.5265  -0.5238  -0.5157  -0.5136  -0.5076  -0.5012  -0.4933
 -0.4906  -0.4853  -0.4746  -0.4660  -0.4620  -0.4616  -0.4599  -0.4039
 -0.4008  -0.3868  -0.3588  -0.3461  -0.3130  -0.2916  -0.2582

          Ground-State Mulliken Net Atomic Charges

     Atom                 Charge (a.u.)
  ----------------------------------------
      1 C                    -0.188648
      2 C                    -0.254388
      3 S                    -0.022900
      4 C                    -0.015581
      5 H                     0.196448
      6 C                    -0.029384
      7 C                     0.242381
      8 C                     0.244608
      9 C                    -0.054143
     10 C                    -0.017629
     11 O                    -0.333541
     12 O                    -0.340113
     13 C                    -0.085560
     14 H                     0.122385
     15 H                     0.091137
     16 H                     0.093681
     17 C                    -0.086232
     18 H                     0.124439
     19 H                     0.095345
     20 H                     0.089172
     21 C                    -0.206823
     22 S                     0.001620
     23 C                    -0.033424
     24 H                     0.198878
     25 H                     0.206331
     26 C                    -0.048981
     27 S                     0.122578
     28 C                    -0.226087
     29 C                    -0.106889
     30 C                    -0.000776
     31 C                     0.379604
     32 C                    -0.152756
     33 S                     0.044311
     34 C                     0.459249
     35 O                    -0.447649
     36 O                    -0.297636
     37 F                    -0.210002
     38 C                    -0.054854
     39 H                     0.116667
     40 H                     0.084759
     41 H                     0.084759
     42 H                     0.215647
  ----------------------------------------
  Sum of atomic charges =     0.000000

                    Cartesian Multipole Moments
 -----------------------------------------------------------------
    Charge (ESU x 10^10)
                -0.0000
    Dipole Moment (Debye)
         X       1.6291      Y       1.8298      Z       3.4048
       Tot       4.1946
    Quadrupole Moments (Debye-Ang)
        XX    -175.0406     XY       5.9883     YY    -162.5166
        XZ       0.9269     YZ     -11.3961     ZZ    -204.5141

 Total job time:  343.90s(wall), 10025.73s(cpu)
        *  Thank you very much for using Q-Chem.  Have a nice day.  *
