 Q-Chem 5.4, Q-Chem, Inc., Pleasanton, CA (2021)
 Q-Chem 5.4.0 for Intel X86 EM64T Linux

User input:
--------------------------------------------------------------
$molecule
0 1
C	0.000687	-8.519741	-0.272104
C	0.194476	-7.635967	0.779533
S	-0.287581	-7.651740	-1.799596
C	0.125787	-6.261894	0.399427
H	0.383826	-7.954738	1.812314
C	-0.121989	-6.079985	-1.006762
C	-0.247488	-4.798382	-1.564994
C	0.258303	-5.153542	1.284087
C	0.128493	-3.869626	0.726260
C	-0.116725	-3.688927	-0.681918
O	0.517104	-5.481075	2.580622
O	-0.508622	-4.479871	-2.867144
C	-0.075811	-5.356026	-3.900814
H	-0.173640	-4.790496	-4.847002
H	-0.707354	-6.268513	-3.971794
H	0.984963	-5.658187	-3.763397
C	0.257016	-4.546999	3.621225
H	0.357864	-5.107564	4.569828
H	-0.771211	-4.131473	3.551910
H	0.990913	-3.712085	3.626592
C	-0.187034	-2.314326	-1.058088
S	0.281899	-2.295487	1.523035
C	-0.000000	-1.435180	-0.000000
H	-0.373653	-1.993211	-2.090565
H	-0.000773	-9.615985	-0.266226
C	0.000000	0.000000	0.000000
S	0.451648	0.777811	1.510732
C	1.238377	2.142617	0.727629
C	0.454085	0.786559	-1.064665
C	1.147169	1.990043	-0.678287
C	0.422325	0.728240	-2.486150
C	1.054629	1.823683	-3.106916
S	1.675491	2.905718	-1.965735
C	1.185914	2.041729	-4.559972
O	0.721749	1.231802	-5.350277
O	1.830313	3.151386	-5.004375
F	-0.131347	-0.238577	-3.246290
C	2.018453	3.456956	-6.334976
H	2.571455	4.413580	-6.370268
H	1.052178	3.565244	-6.875609
H	2.601950	2.669768	-6.861878
H	1.698444	2.939346	1.321510
$end

$rem
JOBTYPE		SP
EXCHANGE	HF
CORRELATION	pRIMP2
BASIS		cc-pvtz
METHOD		rimp2
AUX_BASIS	rimp2-cc-pvtz
SOLVENT_METHOD	PCM
PURECART	11111
SYMMETRY	false
MEM_TOTAL	110000
SCF_CONVERGENCE = 6
THRESH=10
GUI = 2
$end

$solvent
dielectric 4.90
$end
--------------------------------------------------------------

             Standard Nuclear Orientation (Angstroms)
    I     Atom           X                Y                Z
 ----------------------------------------------------------------
    1      C       0.0006870000    -8.5197410000    -0.2721040000
    2      C       0.1944760000    -7.6359670000     0.7795330000
    3      S      -0.2875810000    -7.6517400000    -1.7995960000
    4      C       0.1257870000    -6.2618940000     0.3994270000
    5      H       0.3838260000    -7.9547380000     1.8123140000
    6      C      -0.1219890000    -6.0799850000    -1.0067620000
    7      C      -0.2474880000    -4.7983820000    -1.5649940000
    8      C       0.2583030000    -5.1535420000     1.2840870000
    9      C       0.1284930000    -3.8696260000     0.7262600000
   10      C      -0.1167250000    -3.6889270000    -0.6819180000
   11      O       0.5171040000    -5.4810750000     2.5806220000
   12      O      -0.5086220000    -4.4798710000    -2.8671440000
   13      C      -0.0758110000    -5.3560260000    -3.9008140000
   14      H      -0.1736400000    -4.7904960000    -4.8470020000
   15      H      -0.7073540000    -6.2685130000    -3.9717940000
   16      H       0.9849630000    -5.6581870000    -3.7633970000
   17      C       0.2570160000    -4.5469990000     3.6212250000
   18      H       0.3578640000    -5.1075640000     4.5698280000
   19      H      -0.7712110000    -4.1314730000     3.5519100000
   20      H       0.9909130000    -3.7120850000     3.6265920000
   21      C      -0.1870340000    -2.3143260000    -1.0580880000
   22      S       0.2818990000    -2.2954870000     1.5230350000
   23      C       0.0000000000    -1.4351800000     0.0000000000
   24      H      -0.3736530000    -1.9932110000    -2.0905650000
   25      H      -0.0007730000    -9.6159850000    -0.2662260000
   26      C       0.0000000000     0.0000000000     0.0000000000
   27      S       0.4516480000     0.7778110000     1.5107320000
   28      C       1.2383770000     2.1426170000     0.7276290000
   29      C       0.4540850000     0.7865590000    -1.0646650000
   30      C       1.1471690000     1.9900430000    -0.6782870000
   31      C       0.4223250000     0.7282400000    -2.4861500000
   32      C       1.0546290000     1.8236830000    -3.1069160000
   33      S       1.6754910000     2.9057180000    -1.9657350000
   34      C       1.1859140000     2.0417290000    -4.5599720000
   35      O       0.7217490000     1.2318020000    -5.3502770000
   36      O       1.8303130000     3.1513860000    -5.0043750000
   37      F      -0.1313470000    -0.2385770000    -3.2462900000
   38      C       2.0184530000     3.4569560000    -6.3349760000
   39      H       2.5714550000     4.4135800000    -6.3702680000
   40      H       1.0521780000     3.5652440000    -6.8756090000
   41      H       2.6019500000     2.6697680000    -6.8618780000
   42      H       1.6984440000     2.9393460000     1.3215100000
 ----------------------------------------------------------------

   10   -2754.2792488669      8.37e-07  Convergence criterion met
 Total energy in the final basis set =    -2754.2792488669
        RIMP2         total energy =     -2759.3409323901 a.u.

                    Orbital Energies (a.u.)
 --------------------------------------------------------------

 Alpha MOs
 -- Occupied --
-92.0165 -91.9984 -91.9893 -91.9856 -26.3383 -20.6131 -20.5923 -20.5898
-20.5518 -11.4119 -11.3786 -11.3190 -11.3161 -11.3066 -11.3011 -11.3007
-11.2990 -11.2961 -11.2891 -11.2873 -11.2852 -11.2847 -11.2845 -11.2834
-11.2787 -11.2603 -11.2577 -11.2502 -11.2494  -9.0153  -9.0022  -8.9900
 -8.9856  -6.6960  -6.6954  -6.6949  -6.6835  -6.6828  -6.6815  -6.6710
 -6.6703  -6.6693  -6.6665  -6.6659  -6.6651  -1.6527  -1.4730  -1.4163
 -1.4125  -1.3685  -1.2366  -1.1955  -1.1695  -1.1434  -1.0841  -1.0515
 -1.0495  -1.0299  -1.0021  -0.9933  -0.9738  -0.9600  -0.9499  -0.9382
 -0.8960  -0.8716  -0.8500  -0.8062  -0.7973  -0.7882  -0.7720  -0.7701
 -0.7567  -0.7318  -0.7226  -0.7197  -0.7006  -0.6907  -0.6840  -0.6795
 -0.6735  -0.6621  -0.6587  -0.6515  -0.6281  -0.6191  -0.6149  -0.6079
 -0.6017  -0.5975  -0.5878  -0.5753  -0.5680  -0.5601  -0.5548  -0.5450
 -0.5366  -0.5285  -0.5220  -0.5197  -0.5171  -0.5094  -0.5055  -0.4959
 -0.4861  -0.4845  -0.4773  -0.4670  -0.4623  -0.4615  -0.4585  -0.4247
 -0.3976  -0.3843  -0.3588  -0.3504  -0.3250  -0.2853  -0.2456

          Ground-State Mulliken Net Atomic Charges

     Atom                 Charge (a.u.)
  ----------------------------------------
      1 C                    -0.190467
      2 C                    -0.254733
      3 S                    -0.022455
      4 C                    -0.016379
      5 H                     0.195978
      6 C                    -0.027977
      7 C                     0.246178
      8 C                     0.242851
      9 C                    -0.045105
     10 C                    -0.021220
     11 O                    -0.333253
     12 O                    -0.340319
     13 C                    -0.086211
     14 H                     0.123920
     15 H                     0.091010
     16 H                     0.093374
     17 C                    -0.088600
     18 H                     0.125840
     19 H                     0.094845
     20 H                     0.089474
     21 C                    -0.248200
     22 S                    -0.037511
     23 C                    -0.035492
     24 H                     0.211779
     25 H                     0.206137
     26 C                     0.006997
     27 S                     0.096428
     28 C                    -0.216111
     29 C                    -0.068175
     30 C                    -0.023783
     31 C                     0.360185
     32 C                    -0.128155
     33 S                     0.051794
     34 C                     0.456206
     35 O                    -0.448095
     36 O                    -0.297723
     37 F                    -0.213446
     38 C                    -0.054803
     39 H                     0.116953
     40 H                     0.084786
     41 H                     0.084742
     42 H                     0.218736
  ----------------------------------------
  Sum of atomic charges =     0.000000

                    Cartesian Multipole Moments
 -----------------------------------------------------------------
    Charge (ESU x 10^10)
                -0.0000
    Dipole Moment (Debye)
         X       2.3298      Y       2.0011      Z       3.1082
       Tot       4.3696
    Quadrupole Moments (Debye-Ang)
        XX    -197.4641     XY       6.0340     YY    -164.1472
        XZ      -7.1964     YZ      -9.1479     ZZ    -180.4380

 Total job time:  343.91s(wall), 11915.92s(cpu)
        *  Thank you very much for using Q-Chem.  Have a nice day.  *
