 Q-Chem 5.4, Q-Chem, Inc., Pleasanton, CA (2021)
 Q-Chem 5.4.0 for Intel X86 EM64T Linux

User input:
--------------------------------------------------------------
$molecule
0 1
C	-0.000687	-8.519741	0.272104
C	-0.194476	-7.635967	-0.779533
S	0.287581	-7.651740	1.799596
C	-0.125787	-6.261894	-0.399427
H	-0.383826	-7.954738	-1.812314
C	0.121989	-6.079985	1.006762
C	0.247488	-4.798382	1.564994
C	-0.258303	-5.153542	-1.284087
C	-0.128493	-3.869626	-0.726260
C	0.116725	-3.688927	0.681918
O	-0.517104	-5.481075	-2.580622
O	0.508622	-4.479871	2.867144
C	0.075811	-5.356026	3.900814
H	0.173640	-4.790496	4.847002
H	0.707354	-6.268513	3.971794
H	-0.984963	-5.658187	3.763397
C	-0.257016	-4.546999	-3.621225
H	-0.357864	-5.107564	-4.569828
H	0.771211	-4.131473	-3.551910
H	-0.990913	-3.712085	-3.626592
C	0.187034	-2.314326	1.058088
S	-0.281899	-2.295487	-1.523035
C	0.000000	-1.435180	0.000000
H	0.373653	-1.993211	2.090565
H	0.000773	-9.615985	0.266226
C	0.000000	0.000000	0.000000
S	0.002233	0.899428	1.510732
C	0.001157	2.474749	0.727629
C	-0.000030	0.908223	-1.064665
C	-0.001545	2.297013	-0.678287
C	0.001624	0.841837	-2.486150
C	0.001494	2.106670	-3.106916
S	-0.001841	3.354171	-1.965735
C	0.006168	2.361146	-4.559972
O	0.009152	1.427646	-5.350277
O	0.009405	3.644337	-5.004375
F	0.005539	-0.272288	-3.246290
C	0.019554	4.003038	-6.334976
H	0.020155	5.108000	-6.370268
H	-0.871409	3.613681	-6.875609
H	0.918470	3.613062	-6.861878
H	0.001222	3.394771	1.321510
$end

$rem
JOBTYPE		SP
EXCHANGE	HF
CORRELATION	pRIMP2
BASIS		cc-pvtz
METHOD		rimp2
AUX_BASIS	rimp2-cc-pvtz
SOLVENT_METHOD	PCM
PURECART	11111
SYMMETRY	false
MEM_TOTAL	110000
SCF_CONVERGENCE = 6
THRESH=10
GUI = 2
$end

$solvent
dielectric 4.90
$end
--------------------------------------------------------------

             Standard Nuclear Orientation (Angstroms)
    I     Atom           X                Y                Z
 ----------------------------------------------------------------
    1      C      -0.0006870000    -8.5197410000     0.2721040000
    2      C      -0.1944760000    -7.6359670000    -0.7795330000
    3      S       0.2875810000    -7.6517400000     1.7995960000
    4      C      -0.1257870000    -6.2618940000    -0.3994270000
    5      H      -0.3838260000    -7.9547380000    -1.8123140000
    6      C       0.1219890000    -6.0799850000     1.0067620000
    7      C       0.2474880000    -4.7983820000     1.5649940000
    8      C      -0.2583030000    -5.1535420000    -1.2840870000
    9      C      -0.1284930000    -3.8696260000    -0.7262600000
   10      C       0.1167250000    -3.6889270000     0.6819180000
   11      O      -0.5171040000    -5.4810750000    -2.5806220000
   12      O       0.5086220000    -4.4798710000     2.8671440000
   13      C       0.0758110000    -5.3560260000     3.9008140000
   14      H       0.1736400000    -4.7904960000     4.8470020000
   15      H       0.7073540000    -6.2685130000     3.9717940000
   16      H      -0.9849630000    -5.6581870000     3.7633970000
   17      C      -0.2570160000    -4.5469990000    -3.6212250000
   18      H      -0.3578640000    -5.1075640000    -4.5698280000
   19      H       0.7712110000    -4.1314730000    -3.5519100000
   20      H      -0.9909130000    -3.7120850000    -3.6265920000
   21      C       0.1870340000    -2.3143260000     1.0580880000
   22      S      -0.2818990000    -2.2954870000    -1.5230350000
   23      C       0.0000000000    -1.4351800000     0.0000000000
   24      H       0.3736530000    -1.9932110000     2.0905650000
   25      H       0.0007730000    -9.6159850000     0.2662260000
   26      C       0.0000000000     0.0000000000     0.0000000000
   27      S       0.0022330000     0.8994280000     1.5107320000
   28      C       0.0011570000     2.4747490000     0.7276290000
   29      C      -0.0000300000     0.9082230000    -1.0646650000
   30      C      -0.0015450000     2.2970130000    -0.6782870000
   31      C       0.0016240000     0.8418370000    -2.4861500000
   32      C       0.0014940000     2.1066700000    -3.1069160000
   33      S      -0.0018410000     3.3541710000    -1.9657350000
   34      C       0.0061680000     2.3611460000    -4.5599720000
   35      O       0.0091520000     1.4276460000    -5.3502770000
   36      O       0.0094050000     3.6443370000    -5.0043750000
   37      F       0.0055390000    -0.2722880000    -3.2462900000
   38      C       0.0195540000     4.0030380000    -6.3349760000
   39      H       0.0201550000     5.1080000000    -6.3702680000
   40      H      -0.8714090000     3.6136810000    -6.8756090000
   41      H       0.9184700000     3.6130620000    -6.8618780000
   42      H       0.0012220000     3.3947710000     1.3215100000
 ----------------------------------------------------------------

   10   -2754.2930114698      8.50e-07  Convergence criterion met
 Total energy in the final basis set =    -2754.2930114698
        RIMP2         total energy =     -2759.3491995755 a.u.

                    Orbital Energies (a.u.)
 --------------------------------------------------------------

 Alpha MOs
 -- Occupied --
-92.0146 -91.9948 -91.9865 -91.9856 -26.3361 -20.6120 -20.5922 -20.5913
-20.5498 -11.4102 -11.3790 -11.3186 -11.3185 -11.3147 -11.2973 -11.2973
-11.2968 -11.2925 -11.2885 -11.2866 -11.2854 -11.2848 -11.2840 -11.2822
-11.2801 -11.2618 -11.2597 -11.2594 -11.2500  -9.0131  -8.9988  -8.9866
 -8.9864  -6.6939  -6.6933  -6.6928  -6.6801  -6.6794  -6.6781  -6.6674
 -6.6674  -6.6668  -6.6667  -6.6659  -6.6656  -1.6519  -1.4718  -1.4157
 -1.4146  -1.3671  -1.2341  -1.1964  -1.1691  -1.1420  -1.0848  -1.0523
 -1.0482  -1.0286  -1.0024  -0.9940  -0.9725  -0.9607  -0.9500  -0.9381
 -0.8960  -0.8696  -0.8525  -0.8101  -0.7960  -0.7872  -0.7751  -0.7633
 -0.7584  -0.7327  -0.7208  -0.7189  -0.7007  -0.6887  -0.6844  -0.6786
 -0.6738  -0.6621  -0.6586  -0.6525  -0.6289  -0.6197  -0.6163  -0.6065
 -0.6015  -0.5952  -0.5887  -0.5719  -0.5684  -0.5661  -0.5592  -0.5525
 -0.5302  -0.5272  -0.5224  -0.5198  -0.5147  -0.5093  -0.5016  -0.4951
 -0.4860  -0.4824  -0.4808  -0.4647  -0.4616  -0.4607  -0.4586  -0.4242
 -0.3957  -0.3868  -0.3605  -0.3500  -0.3252  -0.2836  -0.2470

          Ground-State Mulliken Net Atomic Charges

     Atom                 Charge (a.u.)
  ----------------------------------------
      1 C                    -0.187225
      2 C                    -0.254435
      3 S                    -0.022869
      4 C                    -0.012552
      5 H                     0.196732
      6 C                    -0.029758
      7 C                     0.245381
      8 C                     0.241184
      9 C                    -0.040482
     10 C                    -0.024152
     11 O                    -0.333760
     12 O                    -0.340398
     13 C                    -0.085743
     14 H                     0.122412
     15 H                     0.091454
     16 H                     0.094283
     17 C                    -0.088641
     18 H                     0.125501
     19 H                     0.095169
     20 H                     0.090720
     21 C                    -0.250114
     22 S                    -0.022621
     23 C                     0.024333
     24 H                     0.186757
     25 H                     0.206648
     26 C                     0.008694
     27 S                     0.090635
     28 C                    -0.238782
     29 C                    -0.095170
     30 C                    -0.021861
     31 C                     0.382638
     32 C                    -0.137223
     33 S                     0.034657
     34 C                     0.461733
     35 O                    -0.451999
     36 O                    -0.297844
     37 F                    -0.210342
     38 C                    -0.055090
     39 H                     0.116754
     40 H                     0.084446
     41 H                     0.084386
     42 H                     0.216545
  ----------------------------------------
  Sum of atomic charges =     0.000000

                    Cartesian Multipole Moments
 -----------------------------------------------------------------
    Charge (ESU x 10^10)
                -0.0000
    Dipole Moment (Debye)
         X      -0.2447      Y       1.4950      Z       3.0133
       Tot       3.3727
    Quadrupole Moments (Debye-Ang)
        XX    -201.9323     XY       1.4605     YY    -159.0623
        XZ      -1.4960     YZ     -10.9258     ZZ    -180.9883

 Total job time:  868.98s(wall), 9701.91s(cpu)
        *  Thank you very much for using Q-Chem.  Have a nice day.  *
