 Q-Chem 5.4, Q-Chem, Inc., Pleasanton, CA (2021)
 Q-Chem 5.4.0 for Intel X86 EM64T Linux

User input:
--------------------------------------------------------------
$molecule
0 1
C	0.255459	-8.519741	0.093711
C	-0.799036	-7.635967	-0.083869
S	1.789425	-7.651740	0.345260
C	-0.418360	-6.261894	-0.018411
H	-1.834294	-7.954738	-0.259169
C	0.987769	-6.079985	0.229701
C	1.555260	-4.798382	0.302697
C	-1.294992	-5.153542	-0.196459
C	-0.726408	-3.869626	-0.127651
C	0.680716	-3.688927	0.123544
O	-2.601852	-5.481075	-0.396706
O	2.868193	-4.479871	0.502673
C	3.691495	-5.356026	1.262918
H	4.614080	-4.790496	1.494604
H	3.974195	-6.268513	0.693738
H	3.199559	-5.658187	2.212720
C	-3.490743	-4.546999	-0.997016
H	-4.416630	-5.107564	-1.226691
H	-3.073934	-4.131473	-1.939526
H	-3.746794	-3.712085	-0.309214
C	1.058247	-2.314326	0.186133
S	-1.527599	-2.295487	-0.256010
C	-0.000000	-1.435180	-0.000000
H	2.092285	-1.993211	0.363896
H	0.250435	-9.615985	0.090328
C	0.000000	0.000000	0.000000
S	0.690437	0.576430	1.510732
C	1.896512	1.589852	0.727629
C	0.695720	0.583817	-1.064665
C	1.758621	1.477674	-0.678287
C	0.645928	0.539878	-2.486150
C	1.614763	1.352997	-3.106916
S	2.568261	2.157430	-1.965735
C	1.812707	1.512991	-4.559972
O	1.099523	0.910662	-5.350277
O	2.797769	2.335330	-5.004375
F	-0.205024	-0.179266	-3.246290
C	3.079074	2.558124	-6.334976
H	3.925910	3.267919	-6.370268
H	2.208109	2.990367	-6.875609
H	3.358147	1.618843	-6.861878
H	2.601331	2.181180	1.321510
$end

$rem
JOBTYPE		SP
EXCHANGE	HF
CORRELATION	pRIMP2
BASIS		cc-pvtz
METHOD		rimp2
AUX_BASIS	rimp2-cc-pvtz
SOLVENT_METHOD	PCM
PURECART	11111
SYMMETRY	false
MEM_TOTAL	110000
SCF_CONVERGENCE = 6
THRESH=10
GUI = 2
$end

$solvent
dielectric 4.90
$end
--------------------------------------------------------------

             Standard Nuclear Orientation (Angstroms)
    I     Atom           X                Y                Z
 ----------------------------------------------------------------
    1      C       0.2554590000    -8.5197410000     0.0937110000
    2      C      -0.7990360000    -7.6359670000    -0.0838690000
    3      S       1.7894250000    -7.6517400000     0.3452600000
    4      C      -0.4183600000    -6.2618940000    -0.0184110000
    5      H      -1.8342940000    -7.9547380000    -0.2591690000
    6      C       0.9877690000    -6.0799850000     0.2297010000
    7      C       1.5552600000    -4.7983820000     0.3026970000
    8      C      -1.2949920000    -5.1535420000    -0.1964590000
    9      C      -0.7264080000    -3.8696260000    -0.1276510000
   10      C       0.6807160000    -3.6889270000     0.1235440000
   11      O      -2.6018520000    -5.4810750000    -0.3967060000
   12      O       2.8681930000    -4.4798710000     0.5026730000
   13      C       3.6914950000    -5.3560260000     1.2629180000
   14      H       4.6140800000    -4.7904960000     1.4946040000
   15      H       3.9741950000    -6.2685130000     0.6937380000
   16      H       3.1995590000    -5.6581870000     2.2127200000
   17      C      -3.4907430000    -4.5469990000    -0.9970160000
   18      H      -4.4166300000    -5.1075640000    -1.2266910000
   19      H      -3.0739340000    -4.1314730000    -1.9395260000
   20      H      -3.7467940000    -3.7120850000    -0.3092140000
   21      C       1.0582470000    -2.3143260000     0.1861330000
   22      S      -1.5275990000    -2.2954870000    -0.2560100000
   23      C       0.0000000000    -1.4351800000     0.0000000000
   24      H       2.0922850000    -1.9932110000     0.3638960000
   25      H       0.2504350000    -9.6159850000     0.0903280000
   26      C       0.0000000000     0.0000000000     0.0000000000
   27      S       0.6904370000     0.5764300000     1.5107320000
   28      C       1.8965120000     1.5898520000     0.7276290000
   29      C       0.6957200000     0.5838170000    -1.0646650000
   30      C       1.7586210000     1.4776740000    -0.6782870000
   31      C       0.6459280000     0.5398780000    -2.4861500000
   32      C       1.6147630000     1.3529970000    -3.1069160000
   33      S       2.5682610000     2.1574300000    -1.9657350000
   34      C       1.8127070000     1.5129910000    -4.5599720000
   35      O       1.0995230000     0.9106620000    -5.3502770000
   36      O       2.7977690000     2.3353300000    -5.0043750000
   37      F      -0.2050240000    -0.1792660000    -3.2462900000
   38      C       3.0790740000     2.5581240000    -6.3349760000
   39      H       3.9259100000     3.2679190000    -6.3702680000
   40      H       2.2081090000     2.9903670000    -6.8756090000
   41      H       3.3581470000     1.6188430000    -6.8618780000
   42      H       2.6013310000     2.1811800000     1.3215100000
 ----------------------------------------------------------------

   11   -2754.2502909686      6.24e-07  Convergence criterion met
 Total energy in the final basis set =    -2754.2502909686
        RIMP2         total energy =     -2759.3173600689 a.u.

                    Orbital Energies (a.u.)
 --------------------------------------------------------------

 Alpha MOs
 -- Occupied --
-92.0161 -92.0023 -91.9840 -91.9816 -26.3338 -20.6148 -20.5903 -20.5892
-20.5552 -11.4146 -11.3757 -11.3163 -11.3163 -11.3135 -11.3079 -11.2984
-11.2923 -11.2916 -11.2898 -11.2852 -11.2849 -11.2815 -11.2812 -11.2803
-11.2768 -11.2577 -11.2548 -11.2482 -11.2480  -9.0147  -9.0060  -8.9840
 -8.9823  -6.6952  -6.6945  -6.6942  -6.6872  -6.6866  -6.6853  -6.6650
 -6.6644  -6.6635  -6.6632  -6.6625  -6.6616  -1.6468  -1.4749  -1.4142
 -1.4120  -1.3709  -1.2396  -1.1924  -1.1683  -1.1433  -1.0826  -1.0500
 -1.0486  -1.0311  -0.9984  -0.9914  -0.9740  -0.9583  -0.9484  -0.9386
 -0.8924  -0.8736  -0.8438  -0.8053  -0.7925  -0.7854  -0.7765  -0.7673
 -0.7542  -0.7303  -0.7178  -0.7155  -0.6995  -0.6913  -0.6808  -0.6801
 -0.6751  -0.6603  -0.6568  -0.6509  -0.6283  -0.6181  -0.6146  -0.6100
 -0.6051  -0.6002  -0.5855  -0.5726  -0.5682  -0.5641  -0.5532  -0.5506
 -0.5303  -0.5245  -0.5218  -0.5142  -0.5124  -0.5082  -0.5005  -0.4911
 -0.4905  -0.4876  -0.4700  -0.4653  -0.4636  -0.4614  -0.4560  -0.4055
 -0.3962  -0.3843  -0.3610  -0.3411  -0.3092  -0.2981  -0.2537

          Ground-State Mulliken Net Atomic Charges

     Atom                 Charge (a.u.)
  ----------------------------------------
      1 C                    -0.193673
      2 C                    -0.254114
      3 S                    -0.027240
      4 C                    -0.018660
      5 H                     0.195759
      6 C                    -0.027302
      7 C                     0.234020
      8 C                     0.242797
      9 C                    -0.046336
     10 C                    -0.017062
     11 O                    -0.333804
     12 O                    -0.341746
     13 C                    -0.085609
     14 H                     0.121248
     15 H                     0.090907
     16 H                     0.093129
     17 C                    -0.086300
     18 H                     0.124085
     19 H                     0.095073
     20 H                     0.089319
     21 C                    -0.249912
     22 S                    -0.015847
     23 C                    -0.017349
     24 H                     0.196075
     25 H                     0.205340
     26 C                    -0.112376
     27 S                     0.135178
     28 C                    -0.178009
     29 C                    -0.057724
     30 C                    -0.014400
     31 C                     0.363678
     32 C                    -0.136358
     33 S                     0.063105
     34 C                     0.458218
     35 O                    -0.441045
     36 O                    -0.296917
     37 F                    -0.208668
     38 C                    -0.054623
     39 H                     0.117177
     40 H                     0.085359
     41 H                     0.085514
     42 H                     0.219091
  ----------------------------------------
  Sum of atomic charges =     0.000000

                    Cartesian Multipole Moments
 -----------------------------------------------------------------
    Charge (ESU x 10^10)
                 0.0000
    Dipole Moment (Debye)
         X       3.8131      Y       2.5187      Z       3.0098
       Tot       5.4720
    Quadrupole Moments (Debye-Ang)
        XX    -170.0487     XY      10.0608     YY    -174.1786
        XZ      -0.3382     YZ      -8.9474     ZZ    -199.4119

 Total job time:  304.99s(wall), 9887.49s(cpu)
        *  Thank you very much for using Q-Chem.  Have a nice day.  *
