 Q-Chem 5.4, Q-Chem, Inc., Pleasanton, CA (2021)
 Q-Chem 5.4.0 for Intel X86 EM64T Linux

User input:
--------------------------------------------------------------
$molecule
0 1
C	0.174379	-8.519741	0.208886
C	-0.650052	-7.635967	-0.472151
S	1.377058	-7.651740	1.193717
C	-0.353105	-6.261894	-0.225125
H	-1.458961	-7.954738	-1.141594
C	0.740583	-6.079985	0.692811
C	1.195546	-4.798382	1.039773
C	-1.023267	-5.153542	-0.817634
C	-0.565262	-3.869626	-0.473754
C	0.527745	-3.688927	0.447350
O	-2.054917	-5.481075	-1.644483
O	2.232592	-4.479871	1.869424
C	2.565470	-5.356026	2.939466
H	3.248608	-4.790496	3.601405
H	3.094885	-6.268513	2.587892
H	1.664539	-5.658187	3.516052
C	-2.524564	-4.546999	-2.608813
H	-3.211568	-5.107564	-3.270661
H	-1.692342	-4.131473	-3.216646
H	-3.090211	-3.712085	-2.141184
C	0.823402	-2.314326	0.690319
S	-1.194935	-2.295487	-0.985511
C	0.000000	-1.435180	0.000000
H	1.630024	-1.993211	1.361286
H	0.171719	-9.615985	0.203444
C	0.000000	0.000000	0.000000
S	0.234946	0.868203	1.510732
C	0.641630	2.390125	0.727629
C	0.235036	0.877284	-1.064665
C	0.593019	2.219143	-0.678287
C	0.219452	0.812732	-2.486150
C	0.546689	2.034501	-3.106916
S	0.866345	3.240357	-1.965735
C	0.617067	2.279095	-4.559972
O	0.378342	1.376631	-5.350277
O	0.952308	3.517725	-5.004375
F	-0.065123	-0.264443	-3.246290
C	1.054950	3.861577	-6.334976
H	1.341516	4.928732	-6.370268
H	0.093573	3.716085	-6.875609
H	1.822303	3.252232	-6.861878
H	0.879812	3.278780	1.321510
$end

$rem
JOBTYPE		SP
EXCHANGE	HF
CORRELATION	pRIMP2
BASIS		cc-pvtz
METHOD		rimp2
AUX_BASIS	rimp2-cc-pvtz
SOLVENT_METHOD	PCM
PURECART	11111
SYMMETRY	false
MEM_TOTAL	110000
SCF_CONVERGENCE = 6
THRESH=10
GUI = 2
$end

$solvent
dielectric 4.90
$end
--------------------------------------------------------------

             Standard Nuclear Orientation (Angstroms)
    I     Atom           X                Y                Z
 ----------------------------------------------------------------
    1      C       0.1743790000    -8.5197410000     0.2088860000
    2      C      -0.6500520000    -7.6359670000    -0.4721510000
    3      S       1.3770580000    -7.6517400000     1.1937170000
    4      C      -0.3531050000    -6.2618940000    -0.2251250000
    5      H      -1.4589610000    -7.9547380000    -1.1415940000
    6      C       0.7405830000    -6.0799850000     0.6928110000
    7      C       1.1955460000    -4.7983820000     1.0397730000
    8      C      -1.0232670000    -5.1535420000    -0.8176340000
    9      C      -0.5652620000    -3.8696260000    -0.4737540000
   10      C       0.5277450000    -3.6889270000     0.4473500000
   11      O      -2.0549170000    -5.4810750000    -1.6444830000
   12      O       2.2325920000    -4.4798710000     1.8694240000
   13      C       2.5654700000    -5.3560260000     2.9394660000
   14      H       3.2486080000    -4.7904960000     3.6014050000
   15      H       3.0948850000    -6.2685130000     2.5878920000
   16      H       1.6645390000    -5.6581870000     3.5160520000
   17      C      -2.5245640000    -4.5469990000    -2.6088130000
   18      H      -3.2115680000    -5.1075640000    -3.2706610000
   19      H      -1.6923420000    -4.1314730000    -3.2166460000
   20      H      -3.0902110000    -3.7120850000    -2.1411840000
   21      C       0.8234020000    -2.3143260000     0.6903190000
   22      S      -1.1949350000    -2.2954870000    -0.9855110000
   23      C       0.0000000000    -1.4351800000     0.0000000000
   24      H       1.6300240000    -1.9932110000     1.3612860000
   25      H       0.1717190000    -9.6159850000     0.2034440000
   26      C       0.0000000000     0.0000000000     0.0000000000
   27      S       0.2349460000     0.8682030000     1.5107320000
   28      C       0.6416300000     2.3901250000     0.7276290000
   29      C       0.2350360000     0.8772840000    -1.0646650000
   30      C       0.5930190000     2.2191430000    -0.6782870000
   31      C       0.2194520000     0.8127320000    -2.4861500000
   32      C       0.5466890000     2.0345010000    -3.1069160000
   33      S       0.8663450000     3.2403570000    -1.9657350000
   34      C       0.6170670000     2.2790950000    -4.5599720000
   35      O       0.3783420000     1.3766310000    -5.3502770000
   36      O       0.9523080000     3.5177250000    -5.0043750000
   37      F      -0.0651230000    -0.2644430000    -3.2462900000
   38      C       1.0549500000     3.8615770000    -6.3349760000
   39      H       1.3415160000     4.9287320000    -6.3702680000
   40      H       0.0935730000     3.7160850000    -6.8756090000
   41      H       1.8223030000     3.2522320000    -6.8618780000
   42      H       0.8798120000     3.2787800000     1.3215100000
 ----------------------------------------------------------------

   10   -2754.2932004583      8.33e-07  Convergence criterion met
 Total energy in the final basis set =    -2754.2932004583
        RIMP2         total energy =     -2759.3480964733 a.u.

                    Orbital Energies (a.u.)
 --------------------------------------------------------------

 Alpha MOs
 -- Occupied --
-92.0167 -91.9950 -91.9881 -91.9864 -26.3337 -20.6119 -20.5919 -20.5918
-20.5499 -11.4102 -11.3773 -11.3188 -11.3184 -11.3101 -11.2972 -11.2969
-11.2960 -11.2943 -11.2884 -11.2865 -11.2861 -11.2861 -11.2839 -11.2830
-11.2799 -11.2612 -11.2592 -11.2586 -11.2499  -9.0148  -8.9990  -8.9886
 -8.9863  -6.6955  -6.6950  -6.6945  -6.6803  -6.6796  -6.6782  -6.6695
 -6.6688  -6.6679  -6.6673  -6.6667  -6.6658  -1.6471  -1.4717  -1.4160
 -1.4145  -1.3670  -1.2337  -1.1961  -1.1686  -1.1420  -1.0843  -1.0520
 -1.0476  -1.0281  -1.0021  -0.9933  -0.9716  -0.9609  -0.9501  -0.9385
 -0.8955  -0.8694  -0.8506  -0.8074  -0.7911  -0.7876  -0.7749  -0.7657
 -0.7581  -0.7325  -0.7183  -0.7152  -0.7008  -0.6885  -0.6833  -0.6784
 -0.6715  -0.6610  -0.6586  -0.6526  -0.6300  -0.6200  -0.6165  -0.6064
 -0.6015  -0.5951  -0.5867  -0.5740  -0.5701  -0.5674  -0.5558  -0.5523
 -0.5304  -0.5270  -0.5228  -0.5170  -0.5146  -0.5082  -0.5018  -0.4939
 -0.4889  -0.4843  -0.4780  -0.4668  -0.4616  -0.4610  -0.4601  -0.4152
 -0.3972  -0.3865  -0.3579  -0.3496  -0.3201  -0.2865  -0.2538

          Ground-State Mulliken Net Atomic Charges

     Atom                 Charge (a.u.)
  ----------------------------------------
      1 C                    -0.187904
      2 C                    -0.253986
      3 S                    -0.022635
      4 C                    -0.014345
      5 H                     0.196629
      6 C                    -0.029606
      7 C                     0.243005
      8 C                     0.243077
      9 C                    -0.047252
     10 C                    -0.030085
     11 O                    -0.333733
     12 O                    -0.340121
     13 C                    -0.085649
     14 H                     0.122500
     15 H                     0.091212
     16 H                     0.094014
     17 C                    -0.087155
     18 H                     0.124591
     19 H                     0.096326
     20 H                     0.089417
     21 C                    -0.228805
     22 S                     0.000168
     23 C                    -0.019695
     24 H                     0.200180
     25 H                     0.206538
     26 C                    -0.025409
     27 S                     0.108894
     28 C                    -0.232185
     29 C                    -0.083694
     30 C                    -0.011587
     31 C                     0.377430
     32 C                    -0.147067
     33 S                     0.040024
     34 C                     0.458607
     35 O                    -0.450291
     36 O                    -0.297914
     37 F                    -0.209310
     38 C                    -0.054923
     39 H                     0.116540
     40 H                     0.084445
     41 H                     0.084496
     42 H                     0.215256
  ----------------------------------------
  Sum of atomic charges =     0.000000

                    Cartesian Multipole Moments
 -----------------------------------------------------------------
    Charge (ESU x 10^10)
                -0.0000
    Dipole Moment (Debye)
         X       0.6849      Y       1.5842      Z       3.3031
       Tot       3.7269
    Quadrupole Moments (Debye-Ang)
        XX    -191.8018     XY       4.7642     YY    -160.1679
        XZ       9.3614     YZ     -11.4100     ZZ    -190.1890

 Total job time:  306.04s(wall), 10588.19s(cpu)
        *  Thank you very much for using Q-Chem.  Have a nice day.  *
