 Q-Chem 5.4, Q-Chem, Inc., Pleasanton, CA (2021)
 Q-Chem 5.4.0 for Intel X86 EM64T Linux

User input:
--------------------------------------------------------------
$molecule
0 1
C	-0.175432	-8.519741	0.208002
C	0.352097	-7.635967	-0.722164
S	-0.936458	-7.651740	1.563424
C	0.160388	-6.261894	-0.386833
H	0.870905	-7.954738	-1.635031
C	-0.553685	-6.079985	0.849637
C	-0.816372	-4.798382	1.357938
C	0.627524	-5.153542	-1.149702
C	0.368399	-3.869626	-0.638941
C	-0.348912	-3.688927	0.597409
O	1.262667	-5.481075	-2.309260
O	-1.453338	-4.479871	2.523296
C	-2.449320	-5.356026	3.036927
H	-2.982577	-4.790496	3.824632
H	-2.011155	-6.268513	3.497250
H	-3.173591	-5.658187	2.249807
C	2.130793	-4.546999	-2.939226
H	2.663289	-5.107564	-3.730721
H	2.873906	-4.131473	-2.225196
H	1.572045	-3.712085	-3.415077
C	-0.536849	-2.314326	0.930765
S	0.763041	-2.295487	-1.347913
C	0.000000	-1.435180	0.000000
H	-1.057554	-1.993211	1.841645
H	-0.170535	-9.615985	0.204438
C	0.000000	0.000000	0.000000
S	0.002233	0.899428	1.510732
C	0.001157	2.474749	0.727629
C	-0.000030	0.908223	-1.064665
C	-0.001545	2.297013	-0.678287
C	0.001624	0.841837	-2.486150
C	0.001494	2.106670	-3.106916
S	-0.001841	3.354171	-1.965735
C	0.006168	2.361146	-4.559972
O	0.009152	1.427646	-5.350277
O	0.009405	3.644337	-5.004375
F	0.005539	-0.272288	-3.246290
C	0.019554	4.003038	-6.334976
H	0.020155	5.108000	-6.370268
H	-0.871409	3.613681	-6.875609
H	0.918470	3.613062	-6.861878
H	0.001222	3.394771	1.321510
$end

$rem
JOBTYPE		SP
EXCHANGE	HF
CORRELATION	pRIMP2
BASIS		cc-pvtz
METHOD		rimp2
AUX_BASIS	rimp2-cc-pvtz
SOLVENT_METHOD	PCM
PURECART	11111
SYMMETRY	false
MEM_TOTAL	110000
SCF_CONVERGENCE = 6
THRESH=10
GUI = 2
$end

$solvent
dielectric 4.90
$end
--------------------------------------------------------------

             Standard Nuclear Orientation (Angstroms)
    I     Atom           X                Y                Z
 ----------------------------------------------------------------
    1      C      -0.1754320000    -8.5197410000     0.2080020000
    2      C       0.3520970000    -7.6359670000    -0.7221640000
    3      S      -0.9364580000    -7.6517400000     1.5634240000
    4      C       0.1603880000    -6.2618940000    -0.3868330000
    5      H       0.8709050000    -7.9547380000    -1.6350310000
    6      C      -0.5536850000    -6.0799850000     0.8496370000
    7      C      -0.8163720000    -4.7983820000     1.3579380000
    8      C       0.6275240000    -5.1535420000    -1.1497020000
    9      C       0.3683990000    -3.8696260000    -0.6389410000
   10      C      -0.3489120000    -3.6889270000     0.5974090000
   11      O       1.2626670000    -5.4810750000    -2.3092600000
   12      O      -1.4533380000    -4.4798710000     2.5232960000
   13      C      -2.4493200000    -5.3560260000     3.0369270000
   14      H      -2.9825770000    -4.7904960000     3.8246320000
   15      H      -2.0111550000    -6.2685130000     3.4972500000
   16      H      -3.1735910000    -5.6581870000     2.2498070000
   17      C       2.1307930000    -4.5469990000    -2.9392260000
   18      H       2.6632890000    -5.1075640000    -3.7307210000
   19      H       2.8739060000    -4.1314730000    -2.2251960000
   20      H       1.5720450000    -3.7120850000    -3.4150770000
   21      C      -0.5368490000    -2.3143260000     0.9307650000
   22      S       0.7630410000    -2.2954870000    -1.3479130000
   23      C       0.0000000000    -1.4351800000     0.0000000000
   24      H      -1.0575540000    -1.9932110000     1.8416450000
   25      H      -0.1705350000    -9.6159850000     0.2044380000
   26      C       0.0000000000     0.0000000000     0.0000000000
   27      S       0.0022330000     0.8994280000     1.5107320000
   28      C       0.0011570000     2.4747490000     0.7276290000
   29      C      -0.0000300000     0.9082230000    -1.0646650000
   30      C      -0.0015450000     2.2970130000    -0.6782870000
   31      C       0.0016240000     0.8418370000    -2.4861500000
   32      C       0.0014940000     2.1066700000    -3.1069160000
   33      S      -0.0018410000     3.3541710000    -1.9657350000
   34      C       0.0061680000     2.3611460000    -4.5599720000
   35      O       0.0091520000     1.4276460000    -5.3502770000
   36      O       0.0094050000     3.6443370000    -5.0043750000
   37      F       0.0055390000    -0.2722880000    -3.2462900000
   38      C       0.0195540000     4.0030380000    -6.3349760000
   39      H       0.0201550000     5.1080000000    -6.3702680000
   40      H      -0.8714090000     3.6136810000    -6.8756090000
   41      H       0.9184700000     3.6130620000    -6.8618780000
   42      H       0.0012220000     3.3947710000     1.3215100000
 ----------------------------------------------------------------

   10   -2754.2958769680      8.15e-07  Convergence criterion met
 Total energy in the final basis set =    -2754.2958769680
        RIMP2         total energy =     -2759.3508745151 a.u.

                    Orbital Energies (a.u.)
 --------------------------------------------------------------

 Alpha MOs
 -- Occupied --
-92.0156 -91.9945 -91.9875 -91.9866 -26.3344 -20.6118 -20.5922 -20.5917
-20.5495 -11.4099 -11.3781 -11.3189 -11.3188 -11.3138 -11.2970 -11.2969
-11.2963 -11.2923 -11.2884 -11.2865 -11.2863 -11.2861 -11.2841 -11.2818
-11.2802 -11.2618 -11.2596 -11.2595 -11.2501  -9.0138  -8.9986  -8.9882
 -8.9865  -6.6946  -6.6940  -6.6935  -6.6799  -6.6792  -6.6778  -6.6691
 -6.6684  -6.6675  -6.6674  -6.6668  -6.6660  -1.6489  -1.4715  -1.4160
 -1.4147  -1.3668  -1.2337  -1.1965  -1.1690  -1.1419  -1.0848  -1.0524
 -1.0477  -1.0282  -1.0026  -0.9938  -0.9719  -0.9610  -0.9502  -0.9383
 -0.8961  -0.8692  -0.8519  -0.8088  -0.7934  -0.7871  -0.7751  -0.7642
 -0.7584  -0.7328  -0.7194  -0.7165  -0.7007  -0.6884  -0.6839  -0.6783
 -0.6722  -0.6617  -0.6589  -0.6526  -0.6293  -0.6200  -0.6166  -0.6062
 -0.6016  -0.5945  -0.5878  -0.5730  -0.5704  -0.5648  -0.5583  -0.5526
 -0.5307  -0.5264  -0.5254  -0.5165  -0.5152  -0.5083  -0.5016  -0.4961
 -0.4879  -0.4835  -0.4782  -0.4666  -0.4612  -0.4612  -0.4593  -0.4215
 -0.3957  -0.3869  -0.3594  -0.3501  -0.3235  -0.2842  -0.2496

          Ground-State Mulliken Net Atomic Charges

     Atom                 Charge (a.u.)
  ----------------------------------------
      1 C                    -0.187120
      2 C                    -0.254198
      3 S                    -0.022494
      4 C                    -0.014437
      5 H                     0.196731
      6 C                    -0.029969
      7 C                     0.247061
      8 C                     0.240842
      9 C                    -0.043298
     10 C                    -0.024999
     11 O                    -0.333446
     12 O                    -0.339987
     13 C                    -0.085718
     14 H                     0.122466
     15 H                     0.091271
     16 H                     0.094511
     17 C                    -0.088362
     18 H                     0.125335
     19 H                     0.094134
     20 H                     0.091765
     21 C                    -0.249685
     22 S                    -0.008719
     23 C                     0.011380
     24 H                     0.192785
     25 H                     0.206666
     26 C                     0.001874
     27 S                     0.102315
     28 C                    -0.240968
     29 C                    -0.104326
     30 C                    -0.014442
     31 C                     0.383086
     32 C                    -0.143663
     33 S                     0.035697
     34 C                     0.460605
     35 O                    -0.451643
     36 O                    -0.298011
     37 F                    -0.208910
     38 C                    -0.055043
     39 H                     0.116602
     40 H                     0.084559
     41 H                     0.084242
     42 H                     0.215509
  ----------------------------------------
  Sum of atomic charges =     0.000000

                    Cartesian Multipole Moments
 -----------------------------------------------------------------
    Charge (ESU x 10^10)
                -0.0000
    Dipole Moment (Debye)
         X      -0.1655      Y       1.4231      Z       2.9327
       Tot       3.2639
    Quadrupole Moments (Debye-Ang)
        XX    -190.0429     XY       1.5284     YY    -158.7233
        XZ     -12.7839     YZ      -9.8144     ZZ    -193.0594

 Total job time:  282.49s(wall), 9138.86s(cpu)
        *  Thank you very much for using Q-Chem.  Have a nice day.  *
