 Q-Chem 5.4, Q-Chem, Inc., Pleasanton, CA (2021)
 Q-Chem 5.4.0 for Intel X86 EM64T Linux

User input:
--------------------------------------------------------------
$molecule
0 1
C	0.047927	-8.519741	-0.267851
C	0.056157	-7.635967	0.801461
S	0.029285	-7.651740	-1.822194
C	0.054516	-6.261894	0.415201
H	0.063290	-7.954738	1.851431
C	0.054687	-6.079985	-1.012650
C	0.028030	-4.798382	-1.584194
C	0.031399	-5.153542	1.309433
C	0.000427	-3.869626	0.737539
C	0.003462	-3.688927	-0.691828
O	0.061128	-5.481075	2.631211
O	-0.003021	-4.479871	-2.911907
C	0.602710	-5.356026	-3.854716
H	0.670671	-4.790496	-4.803517
H	-0.006913	-6.268513	-4.034285
H	1.623507	-5.658187	-3.535185
C	-0.375708	-4.546999	3.610841
H	-0.441115	-5.107564	4.562544
H	-1.376277	-4.131473	3.364029
H	0.346107	-3.712085	3.743566
C	-0.000458	-2.314326	-1.074491
S	0.013144	-2.295487	1.548848
C	-0.000000	-1.435180	-0.000000
H	-0.004953	-1.993211	-2.123688
H	0.045468	-9.615985	-0.262315
C	0.000000	0.000000	0.000000
S	0.382139	0.814215	1.510732
C	1.046923	2.242395	0.727629
C	0.383804	0.823142	-1.064665
C	0.969360	2.082453	-0.678287
C	0.357247	0.762277	-2.486150
C	0.891671	1.908660	-3.106916
S	1.415865	3.040689	-1.965735
C	1.003453	2.137318	-4.559972
O	0.611644	1.290019	-5.350277
O	1.548687	3.298916	-5.004375
F	-0.110054	-0.249117	-3.246290
C	1.709479	3.619721	-6.334976
H	2.177001	4.620902	-6.370268
H	0.737443	3.643380	-6.875609
H	2.359363	2.886384	-6.861878
H	1.435800	3.076190	1.321510
$end

$rem
JOBTYPE		SP
EXCHANGE	HF
CORRELATION	pRIMP2
BASIS		cc-pvtz
METHOD		rimp2
AUX_BASIS	rimp2-cc-pvtz
SOLVENT_METHOD	PCM
PURECART	11111
SYMMETRY	false
MEM_TOTAL	110000
SCF_CONVERGENCE = 6
THRESH=10
GUI = 2
$end

$solvent
dielectric 4.90
$end
--------------------------------------------------------------

             Standard Nuclear Orientation (Angstroms)
    I     Atom           X                Y                Z
 ----------------------------------------------------------------
    1      C       0.0479270000    -8.5197410000    -0.2678510000
    2      C       0.0561570000    -7.6359670000     0.8014610000
    3      S       0.0292850000    -7.6517400000    -1.8221940000
    4      C       0.0545160000    -6.2618940000     0.4152010000
    5      H       0.0632900000    -7.9547380000     1.8514310000
    6      C       0.0546870000    -6.0799850000    -1.0126500000
    7      C       0.0280300000    -4.7983820000    -1.5841940000
    8      C       0.0313990000    -5.1535420000     1.3094330000
    9      C       0.0004270000    -3.8696260000     0.7375390000
   10      C       0.0034620000    -3.6889270000    -0.6918280000
   11      O       0.0611280000    -5.4810750000     2.6312110000
   12      O      -0.0030210000    -4.4798710000    -2.9119070000
   13      C       0.6027100000    -5.3560260000    -3.8547160000
   14      H       0.6706710000    -4.7904960000    -4.8035170000
   15      H      -0.0069130000    -6.2685130000    -4.0342850000
   16      H       1.6235070000    -5.6581870000    -3.5351850000
   17      C      -0.3757080000    -4.5469990000     3.6108410000
   18      H      -0.4411150000    -5.1075640000     4.5625440000
   19      H      -1.3762770000    -4.1314730000     3.3640290000
   20      H       0.3461070000    -3.7120850000     3.7435660000
   21      C      -0.0004580000    -2.3143260000    -1.0744910000
   22      S       0.0131440000    -2.2954870000     1.5488480000
   23      C       0.0000000000    -1.4351800000     0.0000000000
   24      H      -0.0049530000    -1.9932110000    -2.1236880000
   25      H       0.0454680000    -9.6159850000    -0.2623150000
   26      C       0.0000000000     0.0000000000     0.0000000000
   27      S       0.3821390000     0.8142150000     1.5107320000
   28      C       1.0469230000     2.2423950000     0.7276290000
   29      C       0.3838040000     0.8231420000    -1.0646650000
   30      C       0.9693600000     2.0824530000    -0.6782870000
   31      C       0.3572470000     0.7622770000    -2.4861500000
   32      C       0.8916710000     1.9086600000    -3.1069160000
   33      S       1.4158650000     3.0406890000    -1.9657350000
   34      C       1.0034530000     2.1373180000    -4.5599720000
   35      O       0.6116440000     1.2900190000    -5.3502770000
   36      O       1.5486870000     3.2989160000    -5.0043750000
   37      F      -0.1100540000    -0.2491170000    -3.2462900000
   38      C       1.7094790000     3.6197210000    -6.3349760000
   39      H       2.1770010000     4.6209020000    -6.3702680000
   40      H       0.7374430000     3.6433800000    -6.8756090000
   41      H       2.3593630000     2.8863840000    -6.8618780000
   42      H       1.4358000000     3.0761900000     1.3215100000
 ----------------------------------------------------------------

   10   -2754.2847057768      8.27e-07  Convergence criterion met
 Total energy in the final basis set =    -2754.2847057768
        RIMP2         total energy =     -2759.3445103150 a.u.

                    Orbital Energies (a.u.)
 --------------------------------------------------------------

 Alpha MOs
 -- Occupied --
-92.0164 -91.9974 -91.9894 -91.9863 -26.3387 -20.6127 -20.5925 -20.5905
-20.5510 -11.4113 -11.3787 -11.3194 -11.3175 -11.3091 -11.2996 -11.2989
-11.2974 -11.2962 -11.2888 -11.2875 -11.2863 -11.2849 -11.2839 -11.2834
-11.2795 -11.2610 -11.2589 -11.2529 -11.2499  -9.0150  -9.0013  -8.9901
 -8.9862  -6.6958  -6.6952  -6.6947  -6.6826  -6.6819  -6.6806  -6.6711
 -6.6705  -6.6695  -6.6671  -6.6665  -6.6656  -1.6532  -1.4725  -1.4166
 -1.4133  -1.3680  -1.2357  -1.1962  -1.1696  -1.1432  -1.0844  -1.0521
 -1.0492  -1.0293  -1.0028  -0.9936  -0.9734  -0.9605  -0.9503  -0.9384
 -0.8965  -0.8710  -0.8508  -0.8068  -0.7973  -0.7885  -0.7721  -0.7702
 -0.7572  -0.7329  -0.7228  -0.7199  -0.7011  -0.6903  -0.6843  -0.6791
 -0.6733  -0.6623  -0.6590  -0.6520  -0.6284  -0.6195  -0.6152  -0.6073
 -0.6013  -0.5964  -0.5876  -0.5755  -0.5687  -0.5602  -0.5546  -0.5464
 -0.5363  -0.5280  -0.5237  -0.5194  -0.5172  -0.5094  -0.5059  -0.4964
 -0.4855  -0.4851  -0.4785  -0.4670  -0.4621  -0.4616  -0.4584  -0.4251
 -0.3981  -0.3849  -0.3593  -0.3507  -0.3255  -0.2849  -0.2460

          Ground-State Mulliken Net Atomic Charges

     Atom                 Charge (a.u.)
  ----------------------------------------
      1 C                    -0.188739
      2 C                    -0.255126
      3 S                    -0.021577
      4 C                    -0.015278
      5 H                     0.196290
      6 C                    -0.028629
      7 C                     0.250143
      8 C                     0.243409
      9 C                    -0.041388
     10 C                    -0.025419
     11 O                    -0.333200
     12 O                    -0.340056
     13 C                    -0.086400
     14 H                     0.124171
     15 H                     0.091248
     16 H                     0.093550
     17 C                    -0.088589
     18 H                     0.126073
     19 H                     0.094954
     20 H                     0.089501
     21 C                    -0.236634
     22 S                    -0.042268
     23 C                    -0.036688
     24 H                     0.215300
     25 H                     0.206446
     26 C                     0.020882
     27 S                     0.098014
     28 C                    -0.229632
     29 C                    -0.082421
     30 C                    -0.021555
     31 C                     0.358332
     32 C                    -0.129518
     33 S                     0.049242
     34 C                     0.457257
     35 O                    -0.449313
     36 O                    -0.297855
     37 F                    -0.214229
     38 C                    -0.054740
     39 H                     0.116866
     40 H                     0.084704
     41 H                     0.084528
     42 H                     0.218344
  ----------------------------------------
  Sum of atomic charges =     0.000000

                    Cartesian Multipole Moments
 -----------------------------------------------------------------
    Charge (ESU x 10^10)
                 0.0000
    Dipole Moment (Debye)
         X       1.9021      Y       1.7011      Z       3.1410
       Tot       4.0469
    Quadrupole Moments (Debye-Ang)
        XX    -197.5251     XY       4.9613     YY    -161.4731
        XZ     -10.4399     YZ      -9.4257     ZZ    -181.9894

 Total job time:  320.86s(wall), 9653.85s(cpu)
        *  Thank you very much for using Q-Chem.  Have a nice day.  *
