 Q-Chem 5.4, Q-Chem, Inc., Pleasanton, CA (2021)
 Q-Chem 5.4.0 for Intel X86 EM64T Linux

User input:
--------------------------------------------------------------
$molecule
0 1
C	-0.174379	-8.519741	-0.208886
C	0.650052	-7.635967	0.472151
S	-1.377058	-7.651740	-1.193717
C	0.353105	-6.261894	0.225125
H	1.458961	-7.954738	1.141594
C	-0.740583	-6.079985	-0.692811
C	-1.195546	-4.798382	-1.039773
C	1.023267	-5.153542	0.817634
C	0.565262	-3.869626	0.473754
C	-0.527745	-3.688927	-0.447350
O	2.054917	-5.481075	1.644483
O	-2.232592	-4.479871	-1.869424
C	-2.565470	-5.356026	-2.939466
H	-3.248608	-4.790496	-3.601405
H	-3.094885	-6.268513	-2.587892
H	-1.664539	-5.658187	-3.516052
C	2.524564	-4.546999	2.608813
H	3.211568	-5.107564	3.270661
H	1.692342	-4.131473	3.216646
H	3.090211	-3.712085	2.141184
C	-0.823402	-2.314326	-0.690319
S	1.194935	-2.295487	0.985511
C	0.000000	-1.435180	0.000000
H	-1.630024	-1.993211	-1.361286
H	-0.171719	-9.615985	-0.203444
C	0.000000	0.000000	0.000000
S	0.309721	0.844422	1.510732
C	0.847502	2.325108	0.727629
C	0.310602	0.853460	-1.064665
C	0.784173	2.159014	-0.678287
C	0.289451	0.790512	-2.486150
C	0.721927	1.979112	-3.106916
S	1.145464	3.152519	-1.965735
C	0.813355	2.216642	-4.559972
O	0.496884	1.338418	-5.350277
O	1.255274	3.421340	-5.004375
F	-0.087923	-0.257761	-3.246290
C	1.387494	3.754937	-6.334976
H	1.765978	4.793056	-6.370268
H	0.417095	3.693789	-6.875609
H	2.098820	3.081033	-6.861878
H	1.162229	3.189623	1.321510
$end

$rem
JOBTYPE		SP
EXCHANGE	HF
CORRELATION	pRIMP2
BASIS		cc-pvtz
METHOD		rimp2
AUX_BASIS	rimp2-cc-pvtz
SOLVENT_METHOD	PCM
PURECART	11111
SYMMETRY	false
MEM_TOTAL	110000
SCF_CONVERGENCE = 6
THRESH=10
GUI = 2
$end

$solvent
dielectric 4.90
$end
--------------------------------------------------------------

             Standard Nuclear Orientation (Angstroms)
    I     Atom           X                Y                Z
 ----------------------------------------------------------------
    1      C      -0.1743790000    -8.5197410000    -0.2088860000
    2      C       0.6500520000    -7.6359670000     0.4721510000
    3      S      -1.3770580000    -7.6517400000    -1.1937170000
    4      C       0.3531050000    -6.2618940000     0.2251250000
    5      H       1.4589610000    -7.9547380000     1.1415940000
    6      C      -0.7405830000    -6.0799850000    -0.6928110000
    7      C      -1.1955460000    -4.7983820000    -1.0397730000
    8      C       1.0232670000    -5.1535420000     0.8176340000
    9      C       0.5652620000    -3.8696260000     0.4737540000
   10      C      -0.5277450000    -3.6889270000    -0.4473500000
   11      O       2.0549170000    -5.4810750000     1.6444830000
   12      O      -2.2325920000    -4.4798710000    -1.8694240000
   13      C      -2.5654700000    -5.3560260000    -2.9394660000
   14      H      -3.2486080000    -4.7904960000    -3.6014050000
   15      H      -3.0948850000    -6.2685130000    -2.5878920000
   16      H      -1.6645390000    -5.6581870000    -3.5160520000
   17      C       2.5245640000    -4.5469990000     2.6088130000
   18      H       3.2115680000    -5.1075640000     3.2706610000
   19      H       1.6923420000    -4.1314730000     3.2166460000
   20      H       3.0902110000    -3.7120850000     2.1411840000
   21      C      -0.8234020000    -2.3143260000    -0.6903190000
   22      S       1.1949350000    -2.2954870000     0.9855110000
   23      C       0.0000000000    -1.4351800000     0.0000000000
   24      H      -1.6300240000    -1.9932110000    -1.3612860000
   25      H      -0.1717190000    -9.6159850000    -0.2034440000
   26      C       0.0000000000     0.0000000000     0.0000000000
   27      S       0.3097210000     0.8444220000     1.5107320000
   28      C       0.8475020000     2.3251080000     0.7276290000
   29      C       0.3106020000     0.8534600000    -1.0646650000
   30      C       0.7841730000     2.1590140000    -0.6782870000
   31      C       0.2894510000     0.7905120000    -2.4861500000
   32      C       0.7219270000     1.9791120000    -3.1069160000
   33      S       1.1454640000     3.1525190000    -1.9657350000
   34      C       0.8133550000     2.2166420000    -4.5599720000
   35      O       0.4968840000     1.3384180000    -5.3502770000
   36      O       1.2552740000     3.4213400000    -5.0043750000
   37      F      -0.0879230000    -0.2577610000    -3.2462900000
   38      C       1.3874940000     3.7549370000    -6.3349760000
   39      H       1.7659780000     4.7930560000    -6.3702680000
   40      H       0.4170950000     3.6937890000    -6.8756090000
   41      H       2.0988200000     3.0810330000    -6.8618780000
   42      H       1.1622290000     3.1896230000     1.3215100000
 ----------------------------------------------------------------

   10   -2754.2901519957      7.96e-07  Convergence criterion met
 Total energy in the final basis set =    -2754.2901519957
        RIMP2         total energy =     -2759.3457936227 a.u.

                    Orbital Energies (a.u.)
 --------------------------------------------------------------

 Alpha MOs
 -- Occupied --
-92.0160 -91.9954 -91.9913 -91.9862 -26.3342 -20.6122 -20.5927 -20.5909
-20.5503 -11.4106 -11.3773 -11.3194 -11.3177 -11.3086 -11.2980 -11.2972
-11.2957 -11.2943 -11.2885 -11.2876 -11.2860 -11.2853 -11.2839 -11.2837
-11.2797 -11.2608 -11.2590 -11.2558 -11.2499  -9.0144  -8.9994  -8.9916
 -8.9861  -6.6952  -6.6946  -6.6941  -6.6807  -6.6800  -6.6787  -6.6725
 -6.6718  -6.6709  -6.6671  -6.6665  -6.6656  -1.6472  -1.4720  -1.4167
 -1.4137  -1.3673  -1.2342  -1.1960  -1.1688  -1.1424  -1.0839  -1.0520
 -1.0480  -1.0281  -1.0024  -0.9931  -0.9720  -0.9611  -0.9504  -0.9381
 -0.8962  -0.8698  -0.8503  -0.8036  -0.7932  -0.7879  -0.7717  -0.7705
 -0.7576  -0.7322  -0.7186  -0.7154  -0.7013  -0.6892  -0.6828  -0.6786
 -0.6717  -0.6608  -0.6592  -0.6523  -0.6299  -0.6198  -0.6167  -0.6066
 -0.6018  -0.5954  -0.5866  -0.5774  -0.5678  -0.5614  -0.5556  -0.5474
 -0.5376  -0.5265  -0.5227  -0.5164  -0.5161  -0.5082  -0.5034  -0.4943
 -0.4883  -0.4846  -0.4756  -0.4702  -0.4619  -0.4614  -0.4608  -0.4155
 -0.3971  -0.3863  -0.3576  -0.3501  -0.3200  -0.2874  -0.2531

          Ground-State Mulliken Net Atomic Charges

     Atom                 Charge (a.u.)
  ----------------------------------------
      1 C                    -0.188146
      2 C                    -0.254934
      3 S                    -0.021875
      4 C                    -0.013895
      5 H                     0.196278
      6 C                    -0.026793
      7 C                     0.241974
      8 C                     0.240637
      9 C                    -0.045865
     10 C                    -0.026073
     11 O                    -0.333049
     12 O                    -0.339688
     13 C                    -0.085561
     14 H                     0.123128
     15 H                     0.090565
     16 H                     0.094398
     17 C                    -0.087207
     18 H                     0.125245
     19 H                     0.094501
     20 H                     0.089676
     21 C                    -0.226759
     22 S                    -0.007028
     23 C                    -0.048476
     24 H                     0.194950
     25 H                     0.206462
     26 C                    -0.002366
     27 S                     0.102330
     28 C                    -0.225101
     29 C                    -0.066518
     30 C                    -0.010678
     31 C                     0.367356
     32 C                    -0.145704
     33 S                     0.041427
     34 C                     0.457839
     35 O                    -0.449440
     36 O                    -0.297887
     37 F                    -0.210408
     38 C                    -0.054824
     39 H                     0.116609
     40 H                     0.084549
     41 H                     0.084543
     42 H                     0.215809
  ----------------------------------------
  Sum of atomic charges =     0.000000

                    Cartesian Multipole Moments
 -----------------------------------------------------------------
    Charge (ESU x 10^10)
                 0.0000
    Dipole Moment (Debye)
         X       1.5123      Y       1.5922      Z       3.0613
       Tot       3.7674
    Quadrupole Moments (Debye-Ang)
        XX    -190.9148     XY       4.4411     YY    -160.7383
        XZ       8.3892     YZ      -8.7219     ZZ    -190.0372

 Total job time:  309.80s(wall), 10408.51s(cpu)
        *  Thank you very much for using Q-Chem.  Have a nice day.  *
