 Q-Chem 5.4, Q-Chem, Inc., Pleasanton, CA (2021)
 Q-Chem 5.4.0 for Intel X86 EM64T Linux

User input:
--------------------------------------------------------------
$molecule
0 1
C	0.272104	-8.519741	0.000687
C	-0.779533	-7.635967	0.194476
S	1.799596	-7.651740	-0.287581
C	-0.399427	-6.261894	0.125787
H	-1.812314	-7.954738	0.383826
C	1.006762	-6.079985	-0.121989
C	1.564994	-4.798382	-0.247488
C	-1.284087	-5.153542	0.258303
C	-0.726260	-3.869626	0.128493
C	0.681918	-3.688927	-0.116725
O	-2.580622	-5.481075	0.517104
O	2.867144	-4.479871	-0.508622
C	3.900814	-5.356026	-0.075811
H	4.847002	-4.790496	-0.173640
H	3.971794	-6.268513	-0.707354
H	3.763397	-5.658187	0.984963
C	-3.621225	-4.546999	0.257016
H	-4.569828	-5.107564	0.357864
H	-3.551910	-4.131473	-0.771211
H	-3.626592	-3.712085	0.990913
C	1.058088	-2.314326	-0.187034
S	-1.523035	-2.295487	0.281899
C	0.000000	-1.435180	0.000000
H	2.090565	-1.993211	-0.373653
H	0.266226	-9.615985	-0.000773
C	0.000000	0.000000	0.000000
S	0.780044	0.447780	1.510732
C	2.143774	1.236372	0.727629
C	0.786529	0.454137	-1.064665
C	1.988499	1.149844	-0.678287
C	0.729864	0.419512	-2.486150
C	1.825177	1.052041	-3.106916
S	2.903877	1.678680	-1.965735
C	2.047896	1.175232	-4.559972
O	1.240953	0.705897	-5.350277
O	3.160791	1.814024	-5.004375
F	-0.233039	-0.140940	-3.246290
C	3.476510	1.984585	-6.334976
H	4.433735	2.536545	-6.370268
H	2.693835	2.561503	-6.875609
H	3.588239	1.011113	-6.861878
H	2.940569	1.696327	1.321510
$end

$rem
JOBTYPE		SP
EXCHANGE	HF
CORRELATION	pRIMP2
BASIS		cc-pvtz
METHOD		rimp2
AUX_BASIS	rimp2-cc-pvtz
SOLVENT_METHOD	PCM
PURECART	11111
SYMMETRY	false
MEM_TOTAL	110000
SCF_CONVERGENCE = 6
THRESH=10
GUI = 2
$end

$solvent
dielectric 4.90
$end
--------------------------------------------------------------

             Standard Nuclear Orientation (Angstroms)
    I     Atom           X                Y                Z
 ----------------------------------------------------------------
    1      C       0.2721040000    -8.5197410000     0.0006870000
    2      C      -0.7795330000    -7.6359670000     0.1944760000
    3      S       1.7995960000    -7.6517400000    -0.2875810000
    4      C      -0.3994270000    -6.2618940000     0.1257870000
    5      H      -1.8123140000    -7.9547380000     0.3838260000
    6      C       1.0067620000    -6.0799850000    -0.1219890000
    7      C       1.5649940000    -4.7983820000    -0.2474880000
    8      C      -1.2840870000    -5.1535420000     0.2583030000
    9      C      -0.7262600000    -3.8696260000     0.1284930000
   10      C       0.6819180000    -3.6889270000    -0.1167250000
   11      O      -2.5806220000    -5.4810750000     0.5171040000
   12      O       2.8671440000    -4.4798710000    -0.5086220000
   13      C       3.9008140000    -5.3560260000    -0.0758110000
   14      H       4.8470020000    -4.7904960000    -0.1736400000
   15      H       3.9717940000    -6.2685130000    -0.7073540000
   16      H       3.7633970000    -5.6581870000     0.9849630000
   17      C      -3.6212250000    -4.5469990000     0.2570160000
   18      H      -4.5698280000    -5.1075640000     0.3578640000
   19      H      -3.5519100000    -4.1314730000    -0.7712110000
   20      H      -3.6265920000    -3.7120850000     0.9909130000
   21      C       1.0580880000    -2.3143260000    -0.1870340000
   22      S      -1.5230350000    -2.2954870000     0.2818990000
   23      C       0.0000000000    -1.4351800000     0.0000000000
   24      H       2.0905650000    -1.9932110000    -0.3736530000
   25      H       0.2662260000    -9.6159850000    -0.0007730000
   26      C       0.0000000000     0.0000000000     0.0000000000
   27      S       0.7800440000     0.4477800000     1.5107320000
   28      C       2.1437740000     1.2363720000     0.7276290000
   29      C       0.7865290000     0.4541370000    -1.0646650000
   30      C       1.9884990000     1.1498440000    -0.6782870000
   31      C       0.7298640000     0.4195120000    -2.4861500000
   32      C       1.8251770000     1.0520410000    -3.1069160000
   33      S       2.9038770000     1.6786800000    -1.9657350000
   34      C       2.0478960000     1.1752320000    -4.5599720000
   35      O       1.2409530000     0.7058970000    -5.3502770000
   36      O       3.1607910000     1.8140240000    -5.0043750000
   37      F      -0.2330390000    -0.1409400000    -3.2462900000
   38      C       3.4765100000     1.9845850000    -6.3349760000
   39      H       4.4337350000     2.5365450000    -6.3702680000
   40      H       2.6938350000     2.5615030000    -6.8756090000
   41      H       3.5882390000     1.0111130000    -6.8618780000
   42      H       2.9405690000     1.6963270000     1.3215100000
 ----------------------------------------------------------------

   11   -2754.2316695906      6.64e-07  Convergence criterion met
 Total energy in the final basis set =    -2754.2316695906
        RIMP2         total energy =     -2759.3024680883 a.u.

                    Orbital Energies (a.u.)
 --------------------------------------------------------------

 Alpha MOs
 -- Occupied --
-92.0154 -92.0061 -91.9832 -91.9795 -26.3340 -20.6162 -20.5898 -20.5883
-20.5575 -11.4167 -11.3760 -11.3268 -11.3155 -11.3128 -11.3117 -11.2999
-11.2964 -11.2916 -11.2905 -11.2847 -11.2846 -11.2807 -11.2783 -11.2757
-11.2693 -11.2567 -11.2533 -11.2476 -11.2434  -9.0144  -9.0095  -8.9832
 -8.9802  -6.6949  -6.6940  -6.6939  -6.6907  -6.6901  -6.6888  -6.6642
 -6.6636  -6.6627  -6.6612  -6.6604  -6.6596  -1.6470  -1.4764  -1.4137
 -1.4111  -1.3726  -1.2436  -1.1917  -1.1697  -1.1439  -1.0833  -1.0513
 -1.0475  -1.0329  -0.9973  -0.9914  -0.9755  -0.9576  -0.9479  -0.9387
 -0.8919  -0.8756  -0.8416  -0.8044  -0.7946  -0.7845  -0.7781  -0.7678
 -0.7528  -0.7301  -0.7179  -0.7155  -0.6994  -0.6928  -0.6819  -0.6792
 -0.6772  -0.6610  -0.6564  -0.6503  -0.6278  -0.6176  -0.6145  -0.6119
 -0.6083  -0.6008  -0.5836  -0.5724  -0.5673  -0.5624  -0.5533  -0.5480
 -0.5324  -0.5242  -0.5220  -0.5149  -0.5121  -0.5078  -0.5004  -0.4929
 -0.4906  -0.4865  -0.4678  -0.4665  -0.4645  -0.4598  -0.4557  -0.4003
 -0.3961  -0.3841  -0.3624  -0.3402  -0.3108  -0.2990  -0.2516

          Ground-State Mulliken Net Atomic Charges

     Atom                 Charge (a.u.)
  ----------------------------------------
      1 C                    -0.195729
      2 C                    -0.254296
      3 S                    -0.028907
      4 C                    -0.020172
      5 H                     0.195442
      6 C                    -0.025428
      7 C                     0.229820
      8 C                     0.243801
      9 C                    -0.048540
     10 C                    -0.015649
     11 O                    -0.333908
     12 O                    -0.342491
     13 C                    -0.085718
     14 H                     0.120817
     15 H                     0.090853
     16 H                     0.092766
     17 C                    -0.086681
     18 H                     0.124148
     19 H                     0.094652
     20 H                     0.089529
     21 C                    -0.279866
     22 S                    -0.025452
     23 C                     0.022743
     24 H                     0.195342
     25 H                     0.204909
     26 C                    -0.175658
     27 S                     0.142097
     28 C                    -0.140093
     29 C                    -0.059035
     30 C                    -0.032615
     31 C                     0.385532
     32 C                    -0.128265
     33 S                     0.073398
     34 C                     0.458610
     35 O                    -0.436965
     36 O                    -0.296417
     37 F                    -0.208981
     38 C                    -0.054729
     39 H                     0.117475
     40 H                     0.085896
     41 H                     0.085976
     42 H                     0.221790
  ----------------------------------------
  Sum of atomic charges =     0.000000

                    Cartesian Multipole Moments
 -----------------------------------------------------------------
    Charge (ESU x 10^10)
                 0.0000
    Dipole Moment (Debye)
         X       5.0193      Y       2.5283      Z       2.8534
       Tot       6.3030
    Quadrupole Moments (Debye-Ang)
        XX    -162.1343     XY       9.4599     YY    -179.4025
        XZ      -9.3651     YZ      -7.7591     ZZ    -201.7950

 Total job time:  317.51s(wall), 10545.12s(cpu)
        *  Thank you very much for using Q-Chem.  Have a nice day.  *
