 Q-Chem 5.4, Q-Chem, Inc., Pleasanton, CA (2021)
 Q-Chem 5.4.0 for Intel X86 EM64T Linux

User input:
--------------------------------------------------------------
$molecule
0 1
C	0.268090	-8.519741	-0.046574
C	-0.733920	-7.635967	0.326886
S	1.722318	-7.651740	-0.595708
C	-0.371516	-6.261894	0.193236
H	-1.718130	-7.954738	0.692700
C	0.970283	-6.079985	-0.294958
C	1.498243	-4.798382	-0.515487
C	-1.219725	-5.153542	0.477358
C	-0.692914	-3.869626	0.252655
C	0.651289	-3.688927	-0.233366
O	-2.451623	-5.481075	0.957369
O	2.735264	-4.479871	-0.998769
C	3.828387	-5.356026	-0.752029
H	4.743213	-4.790496	-1.012675
H	3.788623	-6.268513	-1.386303
H	3.877260	-5.658187	0.316492
C	-3.521580	-4.546999	0.881930
H	-4.438260	-5.107564	1.145969
H	-3.631868	-4.131473	-0.142712
H	-3.399425	-3.712085	1.605610
C	1.009535	-2.314326	-0.367928
S	-1.450945	-2.295487	0.542088
C	0.000000	-1.435180	0.000000
H	1.993920	-1.993211	-0.730999
H	0.262047	-9.615985	-0.046991
C	0.000000	0.000000	0.000000
S	0.080615	0.895811	1.510732
C	0.216842	2.465231	0.727629
C	0.079127	0.904769	-1.064665
C	0.198659	2.288406	-0.678287
C	0.074988	0.838492	-2.486150
C	0.185097	2.098524	-3.106916
S	0.290501	3.341568	-1.965735
C	0.211932	2.351623	-4.559972
O	0.133545	1.421416	-5.350277
O	0.326994	3.629649	-5.004375
F	-0.018214	-0.271734	-3.246290
C	0.368367	3.986101	-6.334976
H	0.465270	5.086806	-6.370268
H	-0.553140	3.675878	-6.875609
H	1.229874	3.519263	-6.861878
H	0.297091	3.381746	1.321510
$end

$rem
JOBTYPE		SP
EXCHANGE	HF
CORRELATION	pRIMP2
BASIS		cc-pvtz
METHOD		rimp2
AUX_BASIS	rimp2-cc-pvtz
SOLVENT_METHOD	PCM
PURECART	11111
SYMMETRY	false
MEM_TOTAL	110000
SCF_CONVERGENCE = 6
THRESH=10
GUI = 2
$end

$solvent
dielectric 4.90
$end
--------------------------------------------------------------

             Standard Nuclear Orientation (Angstroms)
    I     Atom           X                Y                Z
 ----------------------------------------------------------------
    1      C       0.2680900000    -8.5197410000    -0.0465740000
    2      C      -0.7339200000    -7.6359670000     0.3268860000
    3      S       1.7223180000    -7.6517400000    -0.5957080000
    4      C      -0.3715160000    -6.2618940000     0.1932360000
    5      H      -1.7181300000    -7.9547380000     0.6927000000
    6      C       0.9702830000    -6.0799850000    -0.2949580000
    7      C       1.4982430000    -4.7983820000    -0.5154870000
    8      C      -1.2197250000    -5.1535420000     0.4773580000
    9      C      -0.6929140000    -3.8696260000     0.2526550000
   10      C       0.6512890000    -3.6889270000    -0.2333660000
   11      O      -2.4516230000    -5.4810750000     0.9573690000
   12      O       2.7352640000    -4.4798710000    -0.9987690000
   13      C       3.8283870000    -5.3560260000    -0.7520290000
   14      H       4.7432130000    -4.7904960000    -1.0126750000
   15      H       3.7886230000    -6.2685130000    -1.3863030000
   16      H       3.8772600000    -5.6581870000     0.3164920000
   17      C      -3.5215800000    -4.5469990000     0.8819300000
   18      H      -4.4382600000    -5.1075640000     1.1459690000
   19      H      -3.6318680000    -4.1314730000    -0.1427120000
   20      H      -3.3994250000    -3.7120850000     1.6056100000
   21      C       1.0095350000    -2.3143260000    -0.3679280000
   22      S      -1.4509450000    -2.2954870000     0.5420880000
   23      C       0.0000000000    -1.4351800000     0.0000000000
   24      H       1.9939200000    -1.9932110000    -0.7309990000
   25      H       0.2620470000    -9.6159850000    -0.0469910000
   26      C       0.0000000000     0.0000000000     0.0000000000
   27      S       0.0806150000     0.8958110000     1.5107320000
   28      C       0.2168420000     2.4652310000     0.7276290000
   29      C       0.0791270000     0.9047690000    -1.0646650000
   30      C       0.1986590000     2.2884060000    -0.6782870000
   31      C       0.0749880000     0.8384920000    -2.4861500000
   32      C       0.1850970000     2.0985240000    -3.1069160000
   33      S       0.2905010000     3.3415680000    -1.9657350000
   34      C       0.2119320000     2.3516230000    -4.5599720000
   35      O       0.1335450000     1.4214160000    -5.3502770000
   36      O       0.3269940000     3.6296490000    -5.0043750000
   37      F      -0.0182140000    -0.2717340000    -3.2462900000
   38      C       0.3683670000     3.9861010000    -6.3349760000
   39      H       0.4652700000     5.0868060000    -6.3702680000
   40      H      -0.5531400000     3.6758780000    -6.8756090000
   41      H       1.2298740000     3.5192630000    -6.8618780000
   42      H       0.2970910000     3.3817460000     1.3215100000
 ----------------------------------------------------------------

   10   -2754.2954057062      8.56e-07  Convergence criterion met
 Total energy in the final basis set =    -2754.2954057062
        RIMP2         total energy =     -2759.3476961324 a.u.

                    Orbital Energies (a.u.)
 --------------------------------------------------------------

 Alpha MOs
 -- Occupied --
-92.0159 -91.9942 -91.9904 -91.9867 -26.3336 -20.6118 -20.5926 -20.5919
-20.5498 -11.4100 -11.3771 -11.3196 -11.3190 -11.3100 -11.2969 -11.2959
-11.2937 -11.2935 -11.2883 -11.2872 -11.2870 -11.2862 -11.2844 -11.2826
-11.2805 -11.2614 -11.2599 -11.2597 -11.2502  -9.0141  -8.9982  -8.9907
 -8.9866  -6.6948  -6.6942  -6.6938  -6.6795  -6.6788  -6.6775  -6.6716
 -6.6709  -6.6700  -6.6676  -6.6670  -6.6661  -1.6464  -1.4716  -1.4168
 -1.4146  -1.3668  -1.2329  -1.1964  -1.1685  -1.1417  -1.0842  -1.0525
 -1.0472  -1.0273  -1.0027  -0.9934  -0.9711  -0.9616  -0.9507  -0.9384
 -0.8962  -0.8689  -0.8509  -0.8040  -0.7915  -0.7882  -0.7732  -0.7696
 -0.7584  -0.7330  -0.7180  -0.7147  -0.7017  -0.6886  -0.6834  -0.6783
 -0.6707  -0.6607  -0.6591  -0.6529  -0.6307  -0.6203  -0.6171  -0.6062
 -0.6018  -0.5941  -0.5834  -0.5772  -0.5711  -0.5654  -0.5537  -0.5509
 -0.5357  -0.5262  -0.5248  -0.5165  -0.5143  -0.5076  -0.5016  -0.4955
 -0.4904  -0.4838  -0.4761  -0.4689  -0.4616  -0.4611  -0.4604  -0.4095
 -0.3987  -0.3878  -0.3585  -0.3484  -0.3169  -0.2881  -0.2582

          Ground-State Mulliken Net Atomic Charges

     Atom                 Charge (a.u.)
  ----------------------------------------
      1 C                    -0.186853
      2 C                    -0.254389
      3 S                    -0.020899
      4 C                    -0.013187
      5 H                     0.196504
      6 C                    -0.028002
      7 C                     0.245462
      8 C                     0.239664
      9 C                    -0.049985
     10 C                    -0.030274
     11 O                    -0.333278
     12 O                    -0.339340
     13 C                    -0.085781
     14 H                     0.122894
     15 H                     0.091388
     16 H                     0.093850
     17 C                    -0.086573
     18 H                     0.124879
     19 H                     0.095454
     20 H                     0.089359
     21 C                    -0.208421
     22 S                     0.000125
     23 C                    -0.034353
     24 H                     0.197643
     25 H                     0.206696
     26 C                    -0.038814
     27 S                     0.117199
     28 C                    -0.239283
     29 C                    -0.091049
     30 C                    -0.007619
     31 C                     0.400273
     32 C                    -0.156860
     33 S                     0.036341
     34 C                     0.460942
     35 O                    -0.450339
     36 O                    -0.297834
     37 F                    -0.211259
     38 C                    -0.055086
     39 H                     0.116506
     40 H                     0.084625
     41 H                     0.084464
     42 H                     0.215210
  ----------------------------------------
  Sum of atomic charges =     0.000000

                    Cartesian Multipole Moments
 -----------------------------------------------------------------
    Charge (ESU x 10^10)
                -0.0000
    Dipole Moment (Debye)
         X       0.3907      Y       1.4134      Z       3.5080
       Tot       3.8021
    Quadrupole Moments (Debye-Ang)
        XX    -176.5713     XY       0.3831     YY    -158.0396
        XZ      -3.9290     YZ     -11.7745     ZZ    -206.4176

 Total job time:  281.63s(wall), 9225.36s(cpu)
        *  Thank you very much for using Q-Chem.  Have a nice day.  *
