 Q-Chem 5.4, Q-Chem, Inc., Pleasanton, CA (2021)
 Q-Chem 5.4.0 for Intel X86 EM64T Linux

User input:
--------------------------------------------------------------
$molecule
0 1
C	0.235993	-8.519741	-0.135457
C	-0.577858	-7.635967	0.558188
S	1.414705	-7.651740	-1.148850
C	-0.283020	-6.261894	0.308648
H	-1.377597	-7.954738	1.238560
C	0.810887	-6.079985	-0.609026
C	1.231581	-4.798382	-0.996828
C	-0.982901	-5.153542	0.865740
C	-0.564713	-3.869626	0.474408
C	0.532196	-3.688927	-0.442046
O	-1.976332	-5.481075	1.738137
O	2.228709	-4.479871	-1.874052
C	3.340298	-5.356026	-2.016062
H	4.110807	-4.790496	-2.573877
H	3.085998	-6.268513	-2.598484
H	3.751679	-5.658187	-1.028695
C	-3.007565	-4.546999	2.033195
H	-3.778655	-5.107564	2.594833
H	-3.461650	-4.131473	1.108067
H	-2.645264	-3.712085	2.671451
C	0.822814	-2.314326	-0.691020
S	-1.178037	-2.295487	1.005649
C	0.000000	-1.435180	0.000000
H	1.623656	-1.993211	-1.368875
H	0.230172	-9.615985	-0.133782
C	0.000000	0.000000	0.000000
S	0.309721	0.844422	1.510732
C	0.847502	2.325108	0.727629
C	0.310602	0.853460	-1.064665
C	0.784173	2.159014	-0.678287
C	0.289451	0.790512	-2.486150
C	0.721927	1.979112	-3.106916
S	1.145464	3.152519	-1.965735
C	0.813355	2.216642	-4.559972
O	0.496884	1.338418	-5.350277
O	1.255274	3.421340	-5.004375
F	-0.087923	-0.257761	-3.246290
C	1.387494	3.754937	-6.334976
H	1.765978	4.793056	-6.370268
H	0.417095	3.693789	-6.875609
H	2.098820	3.081033	-6.861878
H	1.162229	3.189623	1.321510
$end

$rem
JOBTYPE		SP
EXCHANGE	HF
CORRELATION	pRIMP2
BASIS		cc-pvtz
METHOD		rimp2
AUX_BASIS	rimp2-cc-pvtz
SOLVENT_METHOD	PCM
PURECART	11111
SYMMETRY	false
MEM_TOTAL	110000
SCF_CONVERGENCE = 6
THRESH=10
GUI = 2
$end

$solvent
dielectric 4.90
$end
--------------------------------------------------------------

             Standard Nuclear Orientation (Angstroms)
    I     Atom           X                Y                Z
 ----------------------------------------------------------------
    1      C       0.2359930000    -8.5197410000    -0.1354570000
    2      C      -0.5778580000    -7.6359670000     0.5581880000
    3      S       1.4147050000    -7.6517400000    -1.1488500000
    4      C      -0.2830200000    -6.2618940000     0.3086480000
    5      H      -1.3775970000    -7.9547380000     1.2385600000
    6      C       0.8108870000    -6.0799850000    -0.6090260000
    7      C       1.2315810000    -4.7983820000    -0.9968280000
    8      C      -0.9829010000    -5.1535420000     0.8657400000
    9      C      -0.5647130000    -3.8696260000     0.4744080000
   10      C       0.5321960000    -3.6889270000    -0.4420460000
   11      O      -1.9763320000    -5.4810750000     1.7381370000
   12      O       2.2287090000    -4.4798710000    -1.8740520000
   13      C       3.3402980000    -5.3560260000    -2.0160620000
   14      H       4.1108070000    -4.7904960000    -2.5738770000
   15      H       3.0859980000    -6.2685130000    -2.5984840000
   16      H       3.7516790000    -5.6581870000    -1.0286950000
   17      C      -3.0075650000    -4.5469990000     2.0331950000
   18      H      -3.7786550000    -5.1075640000     2.5948330000
   19      H      -3.4616500000    -4.1314730000     1.1080670000
   20      H      -2.6452640000    -3.7120850000     2.6714510000
   21      C       0.8228140000    -2.3143260000    -0.6910200000
   22      S      -1.1780370000    -2.2954870000     1.0056490000
   23      C       0.0000000000    -1.4351800000     0.0000000000
   24      H       1.6236560000    -1.9932110000    -1.3688750000
   25      H       0.2301720000    -9.6159850000    -0.1337820000
   26      C       0.0000000000     0.0000000000     0.0000000000
   27      S       0.3097210000     0.8444220000     1.5107320000
   28      C       0.8475020000     2.3251080000     0.7276290000
   29      C       0.3106020000     0.8534600000    -1.0646650000
   30      C       0.7841730000     2.1590140000    -0.6782870000
   31      C       0.2894510000     0.7905120000    -2.4861500000
   32      C       0.7219270000     1.9791120000    -3.1069160000
   33      S       1.1454640000     3.1525190000    -1.9657350000
   34      C       0.8133550000     2.2166420000    -4.5599720000
   35      O       0.4968840000     1.3384180000    -5.3502770000
   36      O       1.2552740000     3.4213400000    -5.0043750000
   37      F      -0.0879230000    -0.2577610000    -3.2462900000
   38      C       1.3874940000     3.7549370000    -6.3349760000
   39      H       1.7659780000     4.7930560000    -6.3702680000
   40      H       0.4170950000     3.6937890000    -6.8756090000
   41      H       2.0988200000     3.0810330000    -6.8618780000
   42      H       1.1622290000     3.1896230000     1.3215100000
 ----------------------------------------------------------------

   10   -2754.2915039488      8.13e-07  Convergence criterion met
 Total energy in the final basis set =    -2754.2915039488
        RIMP2         total energy =     -2759.3465933386 a.u.

                    Orbital Energies (a.u.)
 --------------------------------------------------------------

 Alpha MOs
 -- Occupied --
-92.0159 -91.9955 -91.9896 -91.9865 -26.3339 -20.6121 -20.5926 -20.5914
-20.5502 -11.4105 -11.3774 -11.3194 -11.3184 -11.3079 -11.2979 -11.2974
-11.2963 -11.2950 -11.2885 -11.2872 -11.2866 -11.2858 -11.2842 -11.2832
-11.2800 -11.2614 -11.2594 -11.2581 -11.2500  -9.0143  -8.9995  -8.9901
 -8.9864  -6.6950  -6.6944  -6.6940  -6.6807  -6.6801  -6.6787  -6.6710
 -6.6703  -6.6694  -6.6674  -6.6667  -6.6659  -1.6468  -1.4719  -1.4167
 -1.4141  -1.3672  -1.2341  -1.1962  -1.1688  -1.1424  -1.0843  -1.0523
 -1.0480  -1.0280  -1.0024  -0.9934  -0.9718  -0.9612  -0.9505  -0.9387
 -0.8961  -0.8696  -0.8501  -0.8035  -0.7933  -0.7880  -0.7727  -0.7705
 -0.7577  -0.7327  -0.7185  -0.7152  -0.7016  -0.6891  -0.6830  -0.6785
 -0.6715  -0.6610  -0.6591  -0.6525  -0.6295  -0.6200  -0.6167  -0.6066
 -0.6028  -0.5951  -0.5834  -0.5764  -0.5709  -0.5640  -0.5531  -0.5511
 -0.5350  -0.5262  -0.5253  -0.5163  -0.5148  -0.5081  -0.5030  -0.4967
 -0.4889  -0.4847  -0.4756  -0.4685  -0.4617  -0.4614  -0.4601  -0.4144
 -0.3976  -0.3869  -0.3589  -0.3493  -0.3211  -0.2866  -0.2537

          Ground-State Mulliken Net Atomic Charges

     Atom                 Charge (a.u.)
  ----------------------------------------
      1 C                    -0.187904
      2 C                    -0.254188
      3 S                    -0.021023
      4 C                    -0.015311
      5 H                     0.196402
      6 C                    -0.029377
      7 C                     0.243627
      8 C                     0.244140
      9 C                    -0.046785
     10 C                    -0.025730
     11 O                    -0.333385
     12 O                    -0.339065
     13 C                    -0.085807
     14 H                     0.122900
     15 H                     0.091369
     16 H                     0.093668
     17 C                    -0.086965
     18 H                     0.125301
     19 H                     0.095297
     20 H                     0.089147
     21 C                    -0.205426
     22 S                    -0.014954
     23 C                    -0.007315
     24 H                     0.199289
     25 H                     0.206555
     26 C                    -0.046576
     27 S                     0.119494
     28 C                    -0.234656
     29 C                    -0.118127
     30 C                    -0.006204
     31 C                     0.391878
     32 C                    -0.151204
     33 S                     0.041333
     34 C                     0.461287
     35 O                    -0.449438
     36 O                    -0.297982
     37 F                    -0.210892
     38 C                    -0.054886
     39 H                     0.116595
     40 H                     0.084760
     41 H                     0.084470
     42 H                     0.215689
  ----------------------------------------
  Sum of atomic charges =     0.000000

                    Cartesian Multipole Moments
 -----------------------------------------------------------------
    Charge (ESU x 10^10)
                 0.0000
    Dipole Moment (Debye)
         X       1.4346      Y       1.5226      Z       3.4225
       Tot       4.0112
    Quadrupole Moments (Debye-Ang)
        XX    -179.6527     XY       3.9122     YY    -160.0027
        XZ     -13.9826     YZ     -10.8562     ZZ    -201.3878

 Total job time:  320.36s(wall), 10795.51s(cpu)
        *  Thank you very much for using Q-Chem.  Have a nice day.  *
