 Q-Chem 5.4, Q-Chem, Inc., Pleasanton, CA (2021)
 Q-Chem 5.4.0 for Intel X86 EM64T Linux

User input:
--------------------------------------------------------------
$molecule
0 1
C	1.432238	-8.398629	0.267851
C	1.270668	-7.529711	-0.801461
S	1.299871	-7.540578	1.822194
C	1.033679	-6.176229	-0.415201
H	1.318997	-7.844878	-1.851431
C	1.001923	-5.997113	1.012650
C	0.805626	-4.730351	1.584194
C	0.863981	-5.080701	-1.309433
C	0.671533	-3.810912	-0.737539
C	0.637166	-3.633485	0.691828
O	0.891580	-5.408420	-2.631211
O	0.780896	-4.411287	2.911907
C	0.336511	-5.379315	3.854716
H	0.171379	-4.834178	4.803517
H	1.095324	-6.172080	4.034285
H	-0.616308	-5.854145	3.535185
C	1.159578	-4.412679	-3.610841
H	1.321333	-4.953370	-4.562544
H	2.072791	-3.829719	-3.364029
H	0.303747	-3.715791	-3.743566
C	0.402329	-2.279087	1.074491
S	0.385663	-2.262896	-1.548848
C	0.249216	-1.413377	0.000000
H	0.350996	-1.962069	2.123688
H	1.625021	-9.477792	0.262315
C	0.000000	0.000000	0.000000
S	0.451648	0.777811	1.510732
C	1.238377	2.142617	0.727629
C	0.454085	0.786559	-1.064665
C	1.147169	1.990043	-0.678287
C	0.422325	0.728240	-2.486150
C	1.054629	1.823683	-3.106916
S	1.675491	2.905718	-1.965735
C	1.185914	2.041729	-4.559972
O	0.721749	1.231802	-5.350277
O	1.830313	3.151386	-5.004375
F	-0.131347	-0.238577	-3.246290
C	2.018453	3.456956	-6.334976
H	2.571455	4.413580	-6.370268
H	1.052178	3.565244	-6.875609
H	2.601950	2.669768	-6.861878
H	1.698444	2.939346	1.321510
$end

$rem
JOBTYPE		SP
EXCHANGE	HF
CORRELATION	pRIMP2
BASIS		cc-pvtz
METHOD		rimp2
AUX_BASIS	rimp2-cc-pvtz
SOLVENT_METHOD	PCM
PURECART	11111
SYMMETRY	false
MEM_TOTAL	110000
SCF_CONVERGENCE = 6
THRESH=10
GUI = 2
$end

$solvent
dielectric 4.90
$end
--------------------------------------------------------------

             Standard Nuclear Orientation (Angstroms)
    I     Atom           X                Y                Z
 ----------------------------------------------------------------
    1      C       1.4322380000    -8.3986290000     0.2678510000
    2      C       1.2706680000    -7.5297110000    -0.8014610000
    3      S       1.2998710000    -7.5405780000     1.8221940000
    4      C       1.0336790000    -6.1762290000    -0.4152010000
    5      H       1.3189970000    -7.8448780000    -1.8514310000
    6      C       1.0019230000    -5.9971130000     1.0126500000
    7      C       0.8056260000    -4.7303510000     1.5841940000
    8      C       0.8639810000    -5.0807010000    -1.3094330000
    9      C       0.6715330000    -3.8109120000    -0.7375390000
   10      C       0.6371660000    -3.6334850000     0.6918280000
   11      O       0.8915800000    -5.4084200000    -2.6312110000
   12      O       0.7808960000    -4.4112870000     2.9119070000
   13      C       0.3365110000    -5.3793150000     3.8547160000
   14      H       0.1713790000    -4.8341780000     4.8035170000
   15      H       1.0953240000    -6.1720800000     4.0342850000
   16      H      -0.6163080000    -5.8541450000     3.5351850000
   17      C       1.1595780000    -4.4126790000    -3.6108410000
   18      H       1.3213330000    -4.9533700000    -4.5625440000
   19      H       2.0727910000    -3.8297190000    -3.3640290000
   20      H       0.3037470000    -3.7157910000    -3.7435660000
   21      C       0.4023290000    -2.2790870000     1.0744910000
   22      S       0.3856630000    -2.2628960000    -1.5488480000
   23      C       0.2492160000    -1.4133770000     0.0000000000
   24      H       0.3509960000    -1.9620690000     2.1236880000
   25      H       1.6250210000    -9.4777920000     0.2623150000
   26      C       0.0000000000     0.0000000000     0.0000000000
   27      S       0.4516480000     0.7778110000     1.5107320000
   28      C       1.2383770000     2.1426170000     0.7276290000
   29      C       0.4540850000     0.7865590000    -1.0646650000
   30      C       1.1471690000     1.9900430000    -0.6782870000
   31      C       0.4223250000     0.7282400000    -2.4861500000
   32      C       1.0546290000     1.8236830000    -3.1069160000
   33      S       1.6754910000     2.9057180000    -1.9657350000
   34      C       1.1859140000     2.0417290000    -4.5599720000
   35      O       0.7217490000     1.2318020000    -5.3502770000
   36      O       1.8303130000     3.1513860000    -5.0043750000
   37      F      -0.1313470000    -0.2385770000    -3.2462900000
   38      C       2.0184530000     3.4569560000    -6.3349760000
   39      H       2.5714550000     4.4135800000    -6.3702680000
   40      H       1.0521780000     3.5652440000    -6.8756090000
   41      H       2.6019500000     2.6697680000    -6.8618780000
   42      H       1.6984440000     2.9393460000     1.3215100000
 ----------------------------------------------------------------

   10   -2754.2627605802      9.51e-07  Convergence criterion met
 Total energy in the final basis set =    -2754.2627605802
        RIMP2         total energy =     -2759.3293548115 a.u.

                    Orbital Energies (a.u.)
 --------------------------------------------------------------

 Alpha MOs
 -- Occupied --
-92.0150 -92.0015 -91.9840 -91.9823 -26.3364 -20.6147 -20.5901 -20.5887
-20.5545 -11.4143 -11.3787 -11.3168 -11.3125 -11.3102 -11.3064 -11.3002
-11.2988 -11.2967 -11.2905 -11.2900 -11.2848 -11.2847 -11.2816 -11.2796
-11.2762 -11.2586 -11.2543 -11.2481 -11.2464  -9.0139  -9.0052  -8.9840
 -8.9835  -6.6946  -6.6939  -6.6935  -6.6864  -6.6858  -6.6845  -6.6649
 -6.6643  -6.6643  -6.6637  -6.6635  -6.6626  -1.6521  -1.4748  -1.4141
 -1.4115  -1.3706  -1.2399  -1.1932  -1.1687  -1.1436  -1.0840  -1.0514
 -1.0481  -1.0321  -0.9996  -0.9925  -0.9749  -0.9582  -0.9482  -0.9388
 -0.8933  -0.8739  -0.8478  -0.8102  -0.7965  -0.7867  -0.7756  -0.7625
 -0.7558  -0.7303  -0.7231  -0.7187  -0.6987  -0.6908  -0.6818  -0.6805
 -0.6766  -0.6624  -0.6567  -0.6506  -0.6261  -0.6174  -0.6146  -0.6097
 -0.6050  -0.6014  -0.5865  -0.5689  -0.5673  -0.5632  -0.5570  -0.5521
 -0.5324  -0.5249  -0.5221  -0.5187  -0.5130  -0.5075  -0.5030  -0.4940
 -0.4867  -0.4831  -0.4775  -0.4646  -0.4635  -0.4622  -0.4539  -0.4251
 -0.3913  -0.3849  -0.3603  -0.3498  -0.3236  -0.2855  -0.2435

          Ground-State Mulliken Net Atomic Charges

     Atom                 Charge (a.u.)
  ----------------------------------------
      1 C                    -0.195445
      2 C                    -0.253354
      3 S                    -0.027139
      4 C                    -0.020313
      5 H                     0.195745
      6 C                    -0.025573
      7 C                     0.232315
      8 C                     0.243701
      9 C                    -0.044917
     10 C                    -0.014241
     11 O                    -0.333764
     12 O                    -0.341844
     13 C                    -0.085469
     14 H                     0.121276
     15 H                     0.090444
     16 H                     0.093320
     17 C                    -0.088418
     18 H                     0.124980
     19 H                     0.093668
     20 H                     0.091597
     21 C                    -0.263403
     22 S                    -0.031536
     23 C                    -0.007337
     24 H                     0.184529
     25 H                     0.205200
     26 C                    -0.020283
     27 S                     0.108588
     28 C                    -0.187314
     29 C                    -0.049333
     30 C                    -0.036641
     31 C                     0.334027
     32 C                    -0.114499
     33 S                     0.060332
     34 C                     0.456455
     35 O                    -0.443789
     36 O                    -0.297086
     37 F                    -0.207467
     38 C                    -0.054669
     39 H                     0.117361
     40 H                     0.085264
     41 H                     0.085108
     42 H                     0.219923
  ----------------------------------------
  Sum of atomic charges =     0.000000

                    Cartesian Multipole Moments
 -----------------------------------------------------------------
    Charge (ESU x 10^10)
                -0.0000
    Dipole Moment (Debye)
         X       2.2623      Y       3.4611      Z       2.3374
       Tot       4.7498
    Quadrupole Moments (Debye-Ang)
        XX    -195.7925     XY       6.4951     YY    -169.0561
        XZ     -11.6616     YZ     -10.2230     ZZ    -180.4597

 Total job time:  287.75s(wall), 9379.51s(cpu)
        *  Thank you very much for using Q-Chem.  Have a nice day.  *
