 Q-Chem 5.4, Q-Chem, Inc., Pleasanton, CA (2021)
 Q-Chem 5.4.0 for Intel X86 EM64T Linux

User input:
--------------------------------------------------------------
$molecule
0 1
C	0.175432	-8.519741	-0.208002
C	-0.352097	-7.635967	0.722164
S	0.936458	-7.651740	-1.563424
C	-0.160388	-6.261894	0.386833
H	-0.870905	-7.954738	1.635031
C	0.553685	-6.079985	-0.849637
C	0.816372	-4.798382	-1.357938
C	-0.627524	-5.153542	1.149702
C	-0.368399	-3.869626	0.638941
C	0.348912	-3.688927	-0.597409
O	-1.262667	-5.481075	2.309260
O	1.453338	-4.479871	-2.523296
C	2.449320	-5.356026	-3.036927
H	2.982577	-4.790496	-3.824632
H	2.011155	-6.268513	-3.497250
H	3.173591	-5.658187	-2.249807
C	-2.130793	-4.546999	2.939226
H	-2.663289	-5.107564	3.730721
H	-2.873906	-4.131473	2.225196
H	-1.572045	-3.712085	3.415077
C	0.536849	-2.314326	-0.930765
S	-0.763041	-2.295487	1.347913
C	-0.000000	-1.435180	-0.000000
H	1.057554	-1.993211	-1.841645
H	0.170535	-9.615985	-0.204438
C	0.000000	0.000000	0.000000
S	0.690437	0.576430	1.510732
C	1.896512	1.589852	0.727629
C	0.695720	0.583817	-1.064665
C	1.758621	1.477674	-0.678287
C	0.645928	0.539878	-2.486150
C	1.614763	1.352997	-3.106916
S	2.568261	2.157430	-1.965735
C	1.812707	1.512991	-4.559972
O	1.099523	0.910662	-5.350277
O	2.797769	2.335330	-5.004375
F	-0.205024	-0.179266	-3.246290
C	3.079074	2.558124	-6.334976
H	3.925910	3.267919	-6.370268
H	2.208109	2.990367	-6.875609
H	3.358147	1.618843	-6.861878
H	2.601331	2.181180	1.321510
$end

$rem
JOBTYPE		SP
EXCHANGE	HF
CORRELATION	pRIMP2
BASIS		cc-pvtz
METHOD		rimp2
AUX_BASIS	rimp2-cc-pvtz
SOLVENT_METHOD	PCM
PURECART	11111
SYMMETRY	false
MEM_TOTAL	110000
SCF_CONVERGENCE = 6
THRESH=10
GUI = 2
$end

$solvent
dielectric 4.90
$end
--------------------------------------------------------------

             Standard Nuclear Orientation (Angstroms)
    I     Atom           X                Y                Z
 ----------------------------------------------------------------
    1      C       0.1754320000    -8.5197410000    -0.2080020000
    2      C      -0.3520970000    -7.6359670000     0.7221640000
    3      S       0.9364580000    -7.6517400000    -1.5634240000
    4      C      -0.1603880000    -6.2618940000     0.3868330000
    5      H      -0.8709050000    -7.9547380000     1.6350310000
    6      C       0.5536850000    -6.0799850000    -0.8496370000
    7      C       0.8163720000    -4.7983820000    -1.3579380000
    8      C      -0.6275240000    -5.1535420000     1.1497020000
    9      C      -0.3683990000    -3.8696260000     0.6389410000
   10      C       0.3489120000    -3.6889270000    -0.5974090000
   11      O      -1.2626670000    -5.4810750000     2.3092600000
   12      O       1.4533380000    -4.4798710000    -2.5232960000
   13      C       2.4493200000    -5.3560260000    -3.0369270000
   14      H       2.9825770000    -4.7904960000    -3.8246320000
   15      H       2.0111550000    -6.2685130000    -3.4972500000
   16      H       3.1735910000    -5.6581870000    -2.2498070000
   17      C      -2.1307930000    -4.5469990000     2.9392260000
   18      H      -2.6632890000    -5.1075640000     3.7307210000
   19      H      -2.8739060000    -4.1314730000     2.2251960000
   20      H      -1.5720450000    -3.7120850000     3.4150770000
   21      C       0.5368490000    -2.3143260000    -0.9307650000
   22      S      -0.7630410000    -2.2954870000     1.3479130000
   23      C       0.0000000000    -1.4351800000     0.0000000000
   24      H       1.0575540000    -1.9932110000    -1.8416450000
   25      H       0.1705350000    -9.6159850000    -0.2044380000
   26      C       0.0000000000     0.0000000000     0.0000000000
   27      S       0.6904370000     0.5764300000     1.5107320000
   28      C       1.8965120000     1.5898520000     0.7276290000
   29      C       0.6957200000     0.5838170000    -1.0646650000
   30      C       1.7586210000     1.4776740000    -0.6782870000
   31      C       0.6459280000     0.5398780000    -2.4861500000
   32      C       1.6147630000     1.3529970000    -3.1069160000
   33      S       2.5682610000     2.1574300000    -1.9657350000
   34      C       1.8127070000     1.5129910000    -4.5599720000
   35      O       1.0995230000     0.9106620000    -5.3502770000
   36      O       2.7977690000     2.3353300000    -5.0043750000
   37      F      -0.2050240000    -0.1792660000    -3.2462900000
   38      C       3.0790740000     2.5581240000    -6.3349760000
   39      H       3.9259100000     3.2679190000    -6.3702680000
   40      H       2.2081090000     2.9903670000    -6.8756090000
   41      H       3.3581470000     1.6188430000    -6.8618780000
   42      H       2.6013310000     2.1811800000     1.3215100000
 ----------------------------------------------------------------

   11   -2754.2543861789      5.61e-07  Convergence criterion met
 Total energy in the final basis set =    -2754.2543861789
        RIMP2         total energy =     -2759.3225147760 a.u.

                    Orbital Energies (a.u.)
 --------------------------------------------------------------

 Alpha MOs
 -- Occupied --
-92.0179 -92.0042 -91.9840 -91.9834 -26.3352 -20.6152 -20.5910 -20.5881
-20.5555 -11.4151 -11.3776 -11.3185 -11.3172 -11.3125 -11.3086 -11.3016
-11.2963 -11.2917 -11.2902 -11.2880 -11.2861 -11.2841 -11.2816 -11.2813
-11.2762 -11.2584 -11.2544 -11.2481 -11.2451  -9.0167  -9.0078  -8.9845
 -8.9839  -6.6974  -6.6966  -6.6963  -6.6890  -6.6883  -6.6871  -6.6655
 -6.6649  -6.6648  -6.6643  -6.6639  -6.6634  -1.6485  -1.4753  -1.4150
 -1.4109  -1.3712  -1.2418  -1.1934  -1.1698  -1.1446  -1.0843  -1.0521
 -1.0484  -1.0325  -0.9992  -0.9927  -0.9754  -0.9588  -0.9488  -0.9388
 -0.8941  -0.8746  -0.8453  -0.8026  -0.7975  -0.7867  -0.7742  -0.7701
 -0.7545  -0.7309  -0.7209  -0.7166  -0.6996  -0.6925  -0.6815  -0.6792
 -0.6765  -0.6618  -0.6574  -0.6504  -0.6265  -0.6178  -0.6151  -0.6106
 -0.6069  -0.6012  -0.5815  -0.5743  -0.5681  -0.5607  -0.5568  -0.5461
 -0.5334  -0.5260  -0.5239  -0.5165  -0.5144  -0.5073  -0.5066  -0.4965
 -0.4883  -0.4845  -0.4720  -0.4672  -0.4638  -0.4628  -0.4575  -0.4179
 -0.3948  -0.3828  -0.3561  -0.3524  -0.3234  -0.2869  -0.2476

          Ground-State Mulliken Net Atomic Charges

     Atom                 Charge (a.u.)
  ----------------------------------------
      1 C                    -0.195352
      2 C                    -0.254073
      3 S                    -0.025868
      4 C                    -0.020409
      5 H                     0.195409
      6 C                    -0.025192
      7 C                     0.238181
      8 C                     0.245841
      9 C                    -0.043245
     10 C                    -0.024758
     11 O                    -0.333778
     12 O                    -0.341345
     13 C                    -0.085835
     14 H                     0.122018
     15 H                     0.090904
     16 H                     0.092547
     17 C                    -0.087101
     18 H                     0.125209
     19 H                     0.095043
     20 H                     0.088857
     21 C                    -0.243355
     22 S                    -0.048208
     23 C                     0.016624
     24 H                     0.186765
     25 H                     0.205165
     26 C                    -0.107039
     27 S                     0.135401
     28 C                    -0.175464
     29 C                    -0.048124
     30 C                    -0.024673
     31 C                     0.341288
     32 C                    -0.127702
     33 S                     0.069139
     34 C                     0.459489
     35 O                    -0.441219
     36 O                    -0.297191
     37 F                    -0.212739
     38 C                    -0.054544
     39 H                     0.117300
     40 H                     0.085565
     41 H                     0.085376
     42 H                     0.221092
  ----------------------------------------
  Sum of atomic charges =     0.000000

                    Cartesian Multipole Moments
 -----------------------------------------------------------------
    Charge (ESU x 10^10)
                 0.0000
    Dipole Moment (Debye)
         X       4.1832      Y       2.8077      Z       3.1854
       Tot       5.9606
    Quadrupole Moments (Debye-Ang)
        XX    -178.4795     XY       8.9130     YY    -174.2428
        XZ     -21.5782     YZ      -8.7591     ZZ    -190.6551

 Total job time:  318.57s(wall), 10674.53s(cpu)
        *  Thank you very much for using Q-Chem.  Have a nice day.  *
