 Q-Chem 5.4, Q-Chem, Inc., Pleasanton, CA (2021)
 Q-Chem 5.4.0 for Intel X86 EM64T Linux

User input:
--------------------------------------------------------------
$molecule
0 1
C	-0.267851	-8.519741	-0.047927
C	0.801461	-7.635967	-0.056157
S	-1.822194	-7.651740	-0.029285
C	0.415201	-6.261894	-0.054516
H	1.851431	-7.954738	-0.063290
C	-1.012650	-6.079985	-0.054687
C	-1.584194	-4.798382	-0.028030
C	1.309433	-5.153542	-0.031399
C	0.737539	-3.869626	-0.000427
C	-0.691828	-3.688927	-0.003462
O	2.631211	-5.481075	-0.061128
O	-2.911907	-4.479871	0.003021
C	-3.854716	-5.356026	-0.602710
H	-4.803517	-4.790496	-0.670671
H	-4.034285	-6.268513	0.006913
H	-3.535185	-5.658187	-1.623507
C	3.610841	-4.546999	0.375708
H	4.562544	-5.107564	0.441115
H	3.364029	-4.131473	1.376277
H	3.743566	-3.712085	-0.346107
C	-1.074491	-2.314326	0.000458
S	1.548848	-2.295487	-0.013144
C	0.000000	-1.435180	0.000000
H	-2.123688	-1.993211	0.004953
H	-0.262315	-9.615985	-0.045468
C	0.000000	0.000000	0.000000
S	0.780044	0.447780	1.510732
C	2.143774	1.236372	0.727629
C	0.786529	0.454137	-1.064665
C	1.988499	1.149844	-0.678287
C	0.729864	0.419512	-2.486150
C	1.825177	1.052041	-3.106916
S	2.903877	1.678680	-1.965735
C	2.047896	1.175232	-4.559972
O	1.240953	0.705897	-5.350277
O	3.160791	1.814024	-5.004375
F	-0.233039	-0.140940	-3.246290
C	3.476510	1.984585	-6.334976
H	4.433735	2.536545	-6.370268
H	2.693835	2.561503	-6.875609
H	3.588239	1.011113	-6.861878
H	2.940569	1.696327	1.321510
$end

$rem
JOBTYPE		SP
EXCHANGE	HF
CORRELATION	pRIMP2
BASIS		cc-pvtz
METHOD		rimp2
AUX_BASIS	rimp2-cc-pvtz
SOLVENT_METHOD	PCM
PURECART	11111
SYMMETRY	false
MEM_TOTAL	110000
SCF_CONVERGENCE = 6
THRESH=10
GUI = 2
$end

$solvent
dielectric 4.90
$end
--------------------------------------------------------------

             Standard Nuclear Orientation (Angstroms)
    I     Atom           X                Y                Z
 ----------------------------------------------------------------
    1      C      -0.2678510000    -8.5197410000    -0.0479270000
    2      C       0.8014610000    -7.6359670000    -0.0561570000
    3      S      -1.8221940000    -7.6517400000    -0.0292850000
    4      C       0.4152010000    -6.2618940000    -0.0545160000
    5      H       1.8514310000    -7.9547380000    -0.0632900000
    6      C      -1.0126500000    -6.0799850000    -0.0546870000
    7      C      -1.5841940000    -4.7983820000    -0.0280300000
    8      C       1.3094330000    -5.1535420000    -0.0313990000
    9      C       0.7375390000    -3.8696260000    -0.0004270000
   10      C      -0.6918280000    -3.6889270000    -0.0034620000
   11      O       2.6312110000    -5.4810750000    -0.0611280000
   12      O      -2.9119070000    -4.4798710000     0.0030210000
   13      C      -3.8547160000    -5.3560260000    -0.6027100000
   14      H      -4.8035170000    -4.7904960000    -0.6706710000
   15      H      -4.0342850000    -6.2685130000     0.0069130000
   16      H      -3.5351850000    -5.6581870000    -1.6235070000
   17      C       3.6108410000    -4.5469990000     0.3757080000
   18      H       4.5625440000    -5.1075640000     0.4411150000
   19      H       3.3640290000    -4.1314730000     1.3762770000
   20      H       3.7435660000    -3.7120850000    -0.3461070000
   21      C      -1.0744910000    -2.3143260000     0.0004580000
   22      S       1.5488480000    -2.2954870000    -0.0131440000
   23      C       0.0000000000    -1.4351800000     0.0000000000
   24      H      -2.1236880000    -1.9932110000     0.0049530000
   25      H      -0.2623150000    -9.6159850000    -0.0454680000
   26      C       0.0000000000     0.0000000000     0.0000000000
   27      S       0.7800440000     0.4477800000     1.5107320000
   28      C       2.1437740000     1.2363720000     0.7276290000
   29      C       0.7865290000     0.4541370000    -1.0646650000
   30      C       1.9884990000     1.1498440000    -0.6782870000
   31      C       0.7298640000     0.4195120000    -2.4861500000
   32      C       1.8251770000     1.0520410000    -3.1069160000
   33      S       2.9038770000     1.6786800000    -1.9657350000
   34      C       2.0478960000     1.1752320000    -4.5599720000
   35      O       1.2409530000     0.7058970000    -5.3502770000
   36      O       3.1607910000     1.8140240000    -5.0043750000
   37      F      -0.2330390000    -0.1409400000    -3.2462900000
   38      C       3.4765100000     1.9845850000    -6.3349760000
   39      H       4.4337350000     2.5365450000    -6.3702680000
   40      H       2.6938350000     2.5615030000    -6.8756090000
   41      H       3.5882390000     1.0111130000    -6.8618780000
   42      H       2.9405690000     1.6963270000     1.3215100000
 ----------------------------------------------------------------

   11   -2754.2298028928      6.02e-07  Convergence criterion met
 Total energy in the final basis set =    -2754.2298028928
        RIMP2         total energy =     -2759.3021827086 a.u.

                    Orbital Energies (a.u.)
 --------------------------------------------------------------

 Alpha MOs
 -- Occupied --
-92.0152 -92.0069 -91.9839 -91.9790 -26.3340 -20.6162 -20.5905 -20.5881
-20.5576 -11.4167 -11.3763 -11.3262 -11.3158 -11.3130 -11.3129 -11.3010
-11.2954 -11.2906 -11.2876 -11.2861 -11.2840 -11.2808 -11.2808 -11.2768
-11.2696 -11.2549 -11.2549 -11.2480 -11.2433  -9.0143  -9.0103  -8.9838
 -8.9804  -6.6948  -6.6939  -6.6938  -6.6915  -6.6909  -6.6896  -6.6648
 -6.6642  -6.6633  -6.6614  -6.6606  -6.6597  -1.6470  -1.4765  -1.4144
 -1.4110  -1.3727  -1.2446  -1.1921  -1.1705  -1.1441  -1.0832  -1.0515
 -1.0478  -1.0331  -0.9980  -0.9915  -0.9758  -0.9586  -0.9487  -0.9377
 -0.8927  -0.8762  -0.8427  -0.8043  -0.7945  -0.7851  -0.7782  -0.7660
 -0.7528  -0.7302  -0.7177  -0.7154  -0.6989  -0.6926  -0.6819  -0.6788
 -0.6774  -0.6629  -0.6570  -0.6503  -0.6288  -0.6174  -0.6158  -0.6121
 -0.6081  -0.5992  -0.5852  -0.5752  -0.5643  -0.5636  -0.5533  -0.5395
 -0.5355  -0.5284  -0.5213  -0.5147  -0.5125  -0.5084  -0.5012  -0.4922
 -0.4909  -0.4867  -0.4693  -0.4674  -0.4646  -0.4605  -0.4575  -0.4065
 -0.3927  -0.3831  -0.3529  -0.3520  -0.3036  -0.3006  -0.2556

          Ground-State Mulliken Net Atomic Charges

     Atom                 Charge (a.u.)
  ----------------------------------------
      1 C                    -0.193756
      2 C                    -0.254377
      3 S                    -0.025912
      4 C                    -0.019618
      5 H                     0.195483
      6 C                    -0.028560
      7 C                     0.241895
      8 C                     0.241441
      9 C                    -0.043517
     10 C                    -0.014628
     11 O                    -0.333844
     12 O                    -0.339833
     13 C                    -0.085485
     14 H                     0.121812
     15 H                     0.089904
     16 H                     0.093489
     17 C                    -0.086335
     18 H                     0.124618
     19 H                     0.093157
     20 H                     0.089021
     21 C                    -0.241341
     22 S                    -0.042750
     23 C                    -0.054390
     24 H                     0.193348
     25 H                     0.205293
     26 C                    -0.147014
     27 S                     0.145971
     28 C                    -0.143463
     29 C                    -0.054395
     30 C                    -0.028261
     31 C                     0.379867
     32 C                    -0.126627
     33 S                     0.076508
     34 C                     0.458355
     35 O                    -0.436931
     36 O                    -0.296463
     37 F                    -0.208150
     38 C                    -0.054732
     39 H                     0.117488
     40 H                     0.085939
     41 H                     0.085939
     42 H                     0.220853
  ----------------------------------------
  Sum of atomic charges =     0.000000

                    Cartesian Multipole Moments
 -----------------------------------------------------------------
    Charge (ESU x 10^10)
                 0.0000
    Dipole Moment (Debye)
         X       5.3805      Y       2.2873      Z       2.3403
       Tot       6.2975
    Quadrupole Moments (Debye-Ang)
        XX    -163.0955     XY       9.3928     YY    -177.0179
        XZ      -5.4844     YZ      -4.9085     ZZ    -200.2664

 Total job time:  311.02s(wall), 10127.22s(cpu)
        *  Thank you very much for using Q-Chem.  Have a nice day.  *
