 Q-Chem 5.4, Q-Chem, Inc., Pleasanton, CA (2021)
 Q-Chem 5.4.0 for Intel X86 EM64T Linux

User input:
--------------------------------------------------------------
$molecule
0 1
C	-0.136647	-8.519741	0.235306
C	0.221346	-7.635967	-0.772334
S	-0.650746	-7.651740	1.702286
C	0.090779	-6.261894	-0.408807
H	0.573754	-7.954738	-1.761423
C	-0.397735	-6.079985	0.932876
C	-0.568166	-4.798382	1.479069
C	0.418347	-5.153542	-1.241204
C	0.251852	-3.869626	-0.693206
C	-0.239872	-3.688927	0.648921
O	0.842486	-5.481075	-2.493437
O	-0.993092	-4.479871	2.737331
C	-1.884752	-5.356026	3.416110
H	-2.273124	-4.790496	4.284447
H	-1.373310	-6.268513	3.793352
H	-2.734702	-5.658187	2.766716
C	1.588030	-4.546999	-3.264581
H	1.974995	-5.107564	-4.136519
H	2.443843	-4.131473	-2.690439
H	0.955140	-3.712085	-3.636177
C	-0.367068	-2.314326	1.009848
S	0.517386	-2.295487	-1.459936
C	-0.000000	-1.435180	-0.000000
H	-0.721689	-1.993211	1.997308
H	-0.132444	-9.615985	0.230945
C	0.000000	0.000000	0.000000
S	0.451648	0.777811	1.510732
C	1.238377	2.142617	0.727629
C	0.454085	0.786559	-1.064665
C	1.147169	1.990043	-0.678287
C	0.422325	0.728240	-2.486150
C	1.054629	1.823683	-3.106916
S	1.675491	2.905718	-1.965735
C	1.185914	2.041729	-4.559972
O	0.721749	1.231802	-5.350277
O	1.830313	3.151386	-5.004375
F	-0.131347	-0.238577	-3.246290
C	2.018453	3.456956	-6.334976
H	2.571455	4.413580	-6.370268
H	1.052178	3.565244	-6.875609
H	2.601950	2.669768	-6.861878
H	1.698444	2.939346	1.321510
$end

$rem
JOBTYPE		SP
EXCHANGE	HF
CORRELATION	pRIMP2
BASIS		cc-pvtz
METHOD		rimp2
AUX_BASIS	rimp2-cc-pvtz
SOLVENT_METHOD	PCM
PURECART	11111
SYMMETRY	false
MEM_TOTAL	110000
SCF_CONVERGENCE = 6
THRESH=10
GUI = 2
$end

$solvent
dielectric 4.90
$end
--------------------------------------------------------------

             Standard Nuclear Orientation (Angstroms)
    I     Atom           X                Y                Z
 ----------------------------------------------------------------
    1      C      -0.1366470000    -8.5197410000     0.2353060000
    2      C       0.2213460000    -7.6359670000    -0.7723340000
    3      S      -0.6507460000    -7.6517400000     1.7022860000
    4      C       0.0907790000    -6.2618940000    -0.4088070000
    5      H       0.5737540000    -7.9547380000    -1.7614230000
    6      C      -0.3977350000    -6.0799850000     0.9328760000
    7      C      -0.5681660000    -4.7983820000     1.4790690000
    8      C       0.4183470000    -5.1535420000    -1.2412040000
    9      C       0.2518520000    -3.8696260000    -0.6932060000
   10      C      -0.2398720000    -3.6889270000     0.6489210000
   11      O       0.8424860000    -5.4810750000    -2.4934370000
   12      O      -0.9930920000    -4.4798710000     2.7373310000
   13      C      -1.8847520000    -5.3560260000     3.4161100000
   14      H      -2.2731240000    -4.7904960000     4.2844470000
   15      H      -1.3733100000    -6.2685130000     3.7933520000
   16      H      -2.7347020000    -5.6581870000     2.7667160000
   17      C       1.5880300000    -4.5469990000    -3.2645810000
   18      H       1.9749950000    -5.1075640000    -4.1365190000
   19      H       2.4438430000    -4.1314730000    -2.6904390000
   20      H       0.9551400000    -3.7120850000    -3.6361770000
   21      C      -0.3670680000    -2.3143260000     1.0098480000
   22      S       0.5173860000    -2.2954870000    -1.4599360000
   23      C       0.0000000000    -1.4351800000     0.0000000000
   24      H      -0.7216890000    -1.9932110000     1.9973080000
   25      H      -0.1324440000    -9.6159850000     0.2309450000
   26      C       0.0000000000     0.0000000000     0.0000000000
   27      S       0.4516480000     0.7778110000     1.5107320000
   28      C       1.2383770000     2.1426170000     0.7276290000
   29      C       0.4540850000     0.7865590000    -1.0646650000
   30      C       1.1471690000     1.9900430000    -0.6782870000
   31      C       0.4223250000     0.7282400000    -2.4861500000
   32      C       1.0546290000     1.8236830000    -3.1069160000
   33      S       1.6754910000     2.9057180000    -1.9657350000
   34      C       1.1859140000     2.0417290000    -4.5599720000
   35      O       0.7217490000     1.2318020000    -5.3502770000
   36      O       1.8303130000     3.1513860000    -5.0043750000
   37      F      -0.1313470000    -0.2385770000    -3.2462900000
   38      C       2.0184530000     3.4569560000    -6.3349760000
   39      H       2.5714550000     4.4135800000    -6.3702680000
   40      H       1.0521780000     3.5652440000    -6.8756090000
   41      H       2.6019500000     2.6697680000    -6.8618780000
   42      H       1.6984440000     2.9393460000     1.3215100000
 ----------------------------------------------------------------

   10   -2754.2776992976      8.62e-07  Convergence criterion met
 Total energy in the final basis set =    -2754.2776992976
        RIMP2         total energy =     -2759.3398785646 a.u.

                    Orbital Energies (a.u.)
 --------------------------------------------------------------

 Alpha MOs
 -- Occupied --
-92.0154 -91.9983 -91.9857 -91.9852 -26.3351 -20.6134 -20.5910 -20.5904
-20.5522 -11.4123 -11.3784 -11.3180 -11.3155 -11.3054 -11.3018 -11.3018
-11.2986 -11.2962 -11.2892 -11.2858 -11.2856 -11.2856 -11.2833 -11.2828
-11.2781 -11.2602 -11.2568 -11.2521 -11.2491  -9.0140  -9.0022  -8.9866
 -8.9851  -6.6947  -6.6941  -6.6936  -6.6835  -6.6828  -6.6815  -6.6675
 -6.6668  -6.6661  -6.6658  -6.6655  -6.6646  -1.6501  -1.4733  -1.4151
 -1.4131  -1.3688  -1.2370  -1.1947  -1.1686  -1.1431  -1.0843  -1.0514
 -1.0486  -1.0303  -1.0011  -0.9929  -0.9735  -0.9596  -0.9493  -0.9387
 -0.8948  -0.8717  -0.8494  -0.8092  -0.7947  -0.7866  -0.7754  -0.7635
 -0.7570  -0.7315  -0.7212  -0.7176  -0.6995  -0.6897  -0.6823  -0.6796
 -0.6744  -0.6621  -0.6578  -0.6516  -0.6272  -0.6187  -0.6157  -0.6081
 -0.6043  -0.5979  -0.5855  -0.5719  -0.5680  -0.5627  -0.5584  -0.5523
 -0.5315  -0.5266  -0.5240  -0.5171  -0.5143  -0.5077  -0.5026  -0.4953
 -0.4869  -0.4842  -0.4785  -0.4650  -0.4630  -0.4624  -0.4576  -0.4224
 -0.3932  -0.3863  -0.3608  -0.3494  -0.3235  -0.2853  -0.2456

          Ground-State Mulliken Net Atomic Charges

     Atom                 Charge (a.u.)
  ----------------------------------------
      1 C                    -0.191578
      2 C                    -0.254116
      3 S                    -0.024902
      4 C                    -0.018545
      5 H                     0.196195
      6 C                    -0.027782
      7 C                     0.236234
      8 C                     0.242455
      9 C                    -0.046381
     10 C                    -0.010282
     11 O                    -0.333328
     12 O                    -0.340706
     13 C                    -0.085519
     14 H                     0.121828
     15 H                     0.090723
     16 H                     0.093942
     17 C                    -0.090052
     18 H                     0.125616
     19 H                     0.093839
     20 H                     0.091980
     21 C                    -0.265374
     22 S                    -0.017897
     23 C                     0.007090
     24 H                     0.188882
     25 H                     0.205939
     26 C                     0.019359
     27 S                     0.117334
     28 C                    -0.219493
     29 C                    -0.104378
     30 C                    -0.021480
     31 C                     0.341791
     32 C                    -0.129358
     33 S                     0.052177
     34 C                     0.458073
     35 O                    -0.447110
     36 O                    -0.297634
     37 F                    -0.206715
     38 C                    -0.054772
     39 H                     0.117039
     40 H                     0.084968
     41 H                     0.084696
     42 H                     0.217242
  ----------------------------------------
  Sum of atomic charges =     0.000000

                    Cartesian Multipole Moments
 -----------------------------------------------------------------
    Charge (ESU x 10^10)
                -0.0000
    Dipole Moment (Debye)
         X       1.9222      Y       2.2796      Z       2.6297
       Tot       3.9757
    Quadrupole Moments (Debye-Ang)
        XX    -190.0020     XY       8.7882     YY    -165.8645
        XZ     -17.2016     YZ      -8.6815     ZZ    -187.5910

 Total job time:  352.53s(wall), 11714.91s(cpu)
        *  Thank you very much for using Q-Chem.  Have a nice day.  *
