 Q-Chem 5.4, Q-Chem, Inc., Pleasanton, CA (2021)
 Q-Chem 5.4.0 for Intel X86 EM64T Linux

User input:
--------------------------------------------------------------
$molecule
0 1
C	-0.208886	-8.519741	0.174379
C	0.472151	-7.635967	-0.650052
S	-1.193717	-7.651740	1.377058
C	0.225125	-6.261894	-0.353105
H	1.141594	-7.954738	-1.458961
C	-0.692811	-6.079985	0.740583
C	-1.039773	-4.798382	1.195546
C	0.817634	-5.153542	-1.023267
C	0.473754	-3.869626	-0.565262
C	-0.447350	-3.688927	0.527745
O	1.644483	-5.481075	-2.054917
O	-1.869424	-4.479871	2.232592
C	-2.939466	-5.356026	2.565470
H	-3.601405	-4.790496	3.248608
H	-2.587892	-6.268513	3.094885
H	-3.516052	-5.658187	1.664539
C	2.608813	-4.546999	-2.524564
H	3.270661	-5.107564	-3.211568
H	3.216646	-4.131473	-1.692342
H	2.141184	-3.712085	-3.090211
C	-0.690319	-2.314326	0.823402
S	0.985511	-2.295487	-1.194935
C	0.000000	-1.435180	0.000000
H	-1.361286	-1.993211	1.630024
H	-0.203444	-9.615985	0.171719
C	0.000000	0.000000	0.000000
S	0.002233	0.899428	1.510732
C	0.001157	2.474749	0.727629
C	-0.000030	0.908223	-1.064665
C	-0.001545	2.297013	-0.678287
C	0.001624	0.841837	-2.486150
C	0.001494	2.106670	-3.106916
S	-0.001841	3.354171	-1.965735
C	0.006168	2.361146	-4.559972
O	0.009152	1.427646	-5.350277
O	0.009405	3.644337	-5.004375
F	0.005539	-0.272288	-3.246290
C	0.019554	4.003038	-6.334976
H	0.020155	5.108000	-6.370268
H	-0.871409	3.613681	-6.875609
H	0.918470	3.613062	-6.861878
H	0.001222	3.394771	1.321510
$end

$rem
JOBTYPE		SP
EXCHANGE	HF
CORRELATION	pRIMP2
BASIS		cc-pvtz
METHOD		rimp2
AUX_BASIS	rimp2-cc-pvtz
SOLVENT_METHOD	PCM
PURECART	11111
SYMMETRY	false
MEM_TOTAL	110000
SCF_CONVERGENCE = 6
THRESH=10
GUI = 2
$end

$solvent
dielectric 4.90
$end
--------------------------------------------------------------

             Standard Nuclear Orientation (Angstroms)
    I     Atom           X                Y                Z
 ----------------------------------------------------------------
    1      C      -0.2088860000    -8.5197410000     0.1743790000
    2      C       0.4721510000    -7.6359670000    -0.6500520000
    3      S      -1.1937170000    -7.6517400000     1.3770580000
    4      C       0.2251250000    -6.2618940000    -0.3531050000
    5      H       1.1415940000    -7.9547380000    -1.4589610000
    6      C      -0.6928110000    -6.0799850000     0.7405830000
    7      C      -1.0397730000    -4.7983820000     1.1955460000
    8      C       0.8176340000    -5.1535420000    -1.0232670000
    9      C       0.4737540000    -3.8696260000    -0.5652620000
   10      C      -0.4473500000    -3.6889270000     0.5277450000
   11      O       1.6444830000    -5.4810750000    -2.0549170000
   12      O      -1.8694240000    -4.4798710000     2.2325920000
   13      C      -2.9394660000    -5.3560260000     2.5654700000
   14      H      -3.6014050000    -4.7904960000     3.2486080000
   15      H      -2.5878920000    -6.2685130000     3.0948850000
   16      H      -3.5160520000    -5.6581870000     1.6645390000
   17      C       2.6088130000    -4.5469990000    -2.5245640000
   18      H       3.2706610000    -5.1075640000    -3.2115680000
   19      H       3.2166460000    -4.1314730000    -1.6923420000
   20      H       2.1411840000    -3.7120850000    -3.0902110000
   21      C      -0.6903190000    -2.3143260000     0.8234020000
   22      S       0.9855110000    -2.2954870000    -1.1949350000
   23      C       0.0000000000    -1.4351800000     0.0000000000
   24      H      -1.3612860000    -1.9932110000     1.6300240000
   25      H      -0.2034440000    -9.6159850000     0.1717190000
   26      C       0.0000000000     0.0000000000     0.0000000000
   27      S       0.0022330000     0.8994280000     1.5107320000
   28      C       0.0011570000     2.4747490000     0.7276290000
   29      C      -0.0000300000     0.9082230000    -1.0646650000
   30      C      -0.0015450000     2.2970130000    -0.6782870000
   31      C       0.0016240000     0.8418370000    -2.4861500000
   32      C       0.0014940000     2.1066700000    -3.1069160000
   33      S      -0.0018410000     3.3541710000    -1.9657350000
   34      C       0.0061680000     2.3611460000    -4.5599720000
   35      O       0.0091520000     1.4276460000    -5.3502770000
   36      O       0.0094050000     3.6443370000    -5.0043750000
   37      F       0.0055390000    -0.2722880000    -3.2462900000
   38      C       0.0195540000     4.0030380000    -6.3349760000
   39      H       0.0201550000     5.1080000000    -6.3702680000
   40      H      -0.8714090000     3.6136810000    -6.8756090000
   41      H       0.9184700000     3.6130620000    -6.8618780000
   42      H       0.0012220000     3.3947710000     1.3215100000
 ----------------------------------------------------------------

   10   -2754.2969811231      8.11e-07  Convergence criterion met
 Total energy in the final basis set =    -2754.2969811231
        RIMP2         total energy =     -2759.3510592797 a.u.

                    Orbital Energies (a.u.)
 --------------------------------------------------------------

 Alpha MOs
 -- Occupied --
-92.0161 -91.9944 -91.9886 -91.9867 -26.3338 -20.6117 -20.5923 -20.5919
-20.5494 -11.4098 -11.3777 -11.3191 -11.3190 -11.3131 -11.2968 -11.2964
-11.2962 -11.2922 -11.2883 -11.2868 -11.2866 -11.2864 -11.2842 -11.2817
-11.2803 -11.2618 -11.2597 -11.2596 -11.2501  -9.0143  -8.9984  -8.9891
 -8.9866  -6.6950  -6.6944  -6.6940  -6.6797  -6.6790  -6.6777  -6.6700
 -6.6693  -6.6684  -6.6676  -6.6669  -6.6661  -1.6476  -1.4714  -1.4162
 -1.4148  -1.3667  -1.2334  -1.1966  -1.1689  -1.1418  -1.0847  -1.0525
 -1.0475  -1.0279  -1.0027  -0.9937  -0.9716  -0.9612  -0.9504  -0.9384
 -0.8961  -0.8690  -0.8516  -0.8081  -0.7921  -0.7874  -0.7750  -0.7649
 -0.7585  -0.7329  -0.7186  -0.7156  -0.7009  -0.6883  -0.6838  -0.6782
 -0.6715  -0.6614  -0.6591  -0.6528  -0.6297  -0.6202  -0.6168  -0.6061
 -0.6016  -0.5942  -0.5870  -0.5743  -0.5700  -0.5652  -0.5577  -0.5525
 -0.5313  -0.5264  -0.5254  -0.5163  -0.5149  -0.5082  -0.5015  -0.4964
 -0.4886  -0.4837  -0.4776  -0.4675  -0.4614  -0.4611  -0.4594  -0.4189
 -0.3965  -0.3869  -0.3588  -0.3501  -0.3222  -0.2849  -0.2518

          Ground-State Mulliken Net Atomic Charges

     Atom                 Charge (a.u.)
  ----------------------------------------
      1 C                    -0.187033
      2 C                    -0.254037
      3 S                    -0.022436
      4 C                    -0.014060
      5 H                     0.196782
      6 C                    -0.029346
      7 C                     0.246924
      8 C                     0.240115
      9 C                    -0.043252
     10 C                    -0.026631
     11 O                    -0.333363
     12 O                    -0.339862
     13 C                    -0.085732
     14 H                     0.122599
     15 H                     0.091153
     16 H                     0.094541
     17 C                    -0.087436
     18 H                     0.125215
     19 H                     0.094201
     20 H                     0.091239
     21 C                    -0.246485
     22 S                    -0.004762
     23 C                    -0.000051
     24 H                     0.196213
     25 H                     0.206704
     26 C                    -0.001877
     27 S                     0.108053
     28 C                    -0.242197
     29 C                    -0.106368
     30 C                    -0.011153
     31 C                     0.385950
     32 C                    -0.146805
     33 S                     0.036008
     34 C                     0.460428
     35 O                    -0.451450
     36 O                    -0.298047
     37 F                    -0.209233
     38 C                    -0.055027
     39 H                     0.116540
     40 H                     0.084556
     41 H                     0.084249
     42 H                     0.215172
  ----------------------------------------
  Sum of atomic charges =     0.000000

                    Cartesian Multipole Moments
 -----------------------------------------------------------------
    Charge (ESU x 10^10)
                -0.0000
    Dipole Moment (Debye)
         X      -0.1163      Y       1.3920      Z       2.9638
       Tot       3.2764
    Quadrupole Moments (Debye-Ang)
        XX    -185.6059     XY       1.4138     YY    -158.4767
        XZ     -12.3195     YZ      -9.5929     ZZ    -197.5891

 Total job time:  298.88s(wall), 9960.32s(cpu)
        *  Thank you very much for using Q-Chem.  Have a nice day.  *
