 Q-Chem 5.4, Q-Chem, Inc., Pleasanton, CA (2021)
 Q-Chem 5.4.0 for Intel X86 EM64T Linux

User input:
--------------------------------------------------------------
$molecule
0 1
C	-0.267851	-8.519741	-0.047927
C	0.801461	-7.635967	-0.056157
S	-1.822194	-7.651740	-0.029285
C	0.415201	-6.261894	-0.054516
H	1.851431	-7.954738	-0.063290
C	-1.012650	-6.079985	-0.054687
C	-1.584194	-4.798382	-0.028030
C	1.309433	-5.153542	-0.031399
C	0.737539	-3.869626	-0.000427
C	-0.691828	-3.688927	-0.003462
O	2.631211	-5.481075	-0.061128
O	-2.911907	-4.479871	0.003021
C	-3.854716	-5.356026	-0.602710
H	-4.803517	-4.790496	-0.670671
H	-4.034285	-6.268513	0.006913
H	-3.535185	-5.658187	-1.623507
C	3.610841	-4.546999	0.375708
H	4.562544	-5.107564	0.441115
H	3.364029	-4.131473	1.376277
H	3.743566	-3.712085	-0.346107
C	-1.074491	-2.314326	0.000458
S	1.548848	-2.295487	-0.013144
C	0.000000	-1.435180	0.000000
H	-2.123688	-1.993211	0.004953
H	-0.262315	-9.615985	-0.045468
C	0.000000	0.000000	0.000000
S	0.309721	0.844422	1.510732
C	0.847502	2.325108	0.727629
C	0.310602	0.853460	-1.064665
C	0.784173	2.159014	-0.678287
C	0.289451	0.790512	-2.486150
C	0.721927	1.979112	-3.106916
S	1.145464	3.152519	-1.965735
C	0.813355	2.216642	-4.559972
O	0.496884	1.338418	-5.350277
O	1.255274	3.421340	-5.004375
F	-0.087923	-0.257761	-3.246290
C	1.387494	3.754937	-6.334976
H	1.765978	4.793056	-6.370268
H	0.417095	3.693789	-6.875609
H	2.098820	3.081033	-6.861878
H	1.162229	3.189623	1.321510
$end

$rem
JOBTYPE		SP
EXCHANGE	HF
CORRELATION	pRIMP2
BASIS		cc-pvtz
METHOD		rimp2
AUX_BASIS	rimp2-cc-pvtz
SOLVENT_METHOD	PCM
PURECART	11111
SYMMETRY	false
MEM_TOTAL	110000
SCF_CONVERGENCE = 6
THRESH=10
GUI = 2
$end

$solvent
dielectric 4.90
$end
--------------------------------------------------------------

             Standard Nuclear Orientation (Angstroms)
    I     Atom           X                Y                Z
 ----------------------------------------------------------------
    1      C      -0.2678510000    -8.5197410000    -0.0479270000
    2      C       0.8014610000    -7.6359670000    -0.0561570000
    3      S      -1.8221940000    -7.6517400000    -0.0292850000
    4      C       0.4152010000    -6.2618940000    -0.0545160000
    5      H       1.8514310000    -7.9547380000    -0.0632900000
    6      C      -1.0126500000    -6.0799850000    -0.0546870000
    7      C      -1.5841940000    -4.7983820000    -0.0280300000
    8      C       1.3094330000    -5.1535420000    -0.0313990000
    9      C       0.7375390000    -3.8696260000    -0.0004270000
   10      C      -0.6918280000    -3.6889270000    -0.0034620000
   11      O       2.6312110000    -5.4810750000    -0.0611280000
   12      O      -2.9119070000    -4.4798710000     0.0030210000
   13      C      -3.8547160000    -5.3560260000    -0.6027100000
   14      H      -4.8035170000    -4.7904960000    -0.6706710000
   15      H      -4.0342850000    -6.2685130000     0.0069130000
   16      H      -3.5351850000    -5.6581870000    -1.6235070000
   17      C       3.6108410000    -4.5469990000     0.3757080000
   18      H       4.5625440000    -5.1075640000     0.4411150000
   19      H       3.3640290000    -4.1314730000     1.3762770000
   20      H       3.7435660000    -3.7120850000    -0.3461070000
   21      C      -1.0744910000    -2.3143260000     0.0004580000
   22      S       1.5488480000    -2.2954870000    -0.0131440000
   23      C       0.0000000000    -1.4351800000     0.0000000000
   24      H      -2.1236880000    -1.9932110000     0.0049530000
   25      H      -0.2623150000    -9.6159850000    -0.0454680000
   26      C       0.0000000000     0.0000000000     0.0000000000
   27      S       0.3097210000     0.8444220000     1.5107320000
   28      C       0.8475020000     2.3251080000     0.7276290000
   29      C       0.3106020000     0.8534600000    -1.0646650000
   30      C       0.7841730000     2.1590140000    -0.6782870000
   31      C       0.2894510000     0.7905120000    -2.4861500000
   32      C       0.7219270000     1.9791120000    -3.1069160000
   33      S       1.1454640000     3.1525190000    -1.9657350000
   34      C       0.8133550000     2.2166420000    -4.5599720000
   35      O       0.4968840000     1.3384180000    -5.3502770000
   36      O       1.2552740000     3.4213400000    -5.0043750000
   37      F      -0.0879230000    -0.2577610000    -3.2462900000
   38      C       1.3874940000     3.7549370000    -6.3349760000
   39      H       1.7659780000     4.7930560000    -6.3702680000
   40      H       0.4170950000     3.6937890000    -6.8756090000
   41      H       2.0988200000     3.0810330000    -6.8618780000
   42      H       1.1622290000     3.1896230000     1.3215100000
 ----------------------------------------------------------------

   10   -2754.2885328798      8.66e-07  Convergence criterion met
 Total energy in the final basis set =    -2754.2885328798
        RIMP2         total energy =     -2759.3429562670 a.u.

                    Orbital Energies (a.u.)
 --------------------------------------------------------------

 Alpha MOs
 -- Occupied --
-92.0158 -91.9953 -91.9893 -91.9864 -26.3337 -20.6123 -20.5923 -20.5915
-20.5506 -11.4108 -11.3768 -11.3190 -11.3184 -11.3052 -11.2986 -11.2969
-11.2957 -11.2918 -11.2885 -11.2871 -11.2862 -11.2859 -11.2838 -11.2836
-11.2801 -11.2600 -11.2594 -11.2577 -11.2499  -9.0140  -8.9993  -8.9896
 -8.9863  -6.6947  -6.6941  -6.6936  -6.6805  -6.6799  -6.6785  -6.6706
 -6.6699  -6.6689  -6.6673  -6.6667  -6.6658  -1.6465  -1.4721  -1.4164
 -1.4143  -1.3675  -1.2337  -1.1956  -1.1681  -1.1419  -1.0836  -1.0519
 -1.0475  -1.0278  -1.0021  -0.9928  -0.9714  -0.9612  -0.9504  -0.9381
 -0.8957  -0.8695  -0.8499  -0.8046  -0.7906  -0.7880  -0.7735  -0.7685
 -0.7579  -0.7325  -0.7178  -0.7149  -0.7011  -0.6889  -0.6828  -0.6786
 -0.6713  -0.6603  -0.6591  -0.6526  -0.6306  -0.6200  -0.6171  -0.6067
 -0.6024  -0.5952  -0.5826  -0.5791  -0.5668  -0.5645  -0.5560  -0.5493
 -0.5360  -0.5263  -0.5239  -0.5159  -0.5140  -0.5080  -0.5013  -0.4937
 -0.4909  -0.4843  -0.4742  -0.4688  -0.4619  -0.4614  -0.4609  -0.4054
 -0.4003  -0.3871  -0.3568  -0.3493  -0.3131  -0.2904  -0.2596

          Ground-State Mulliken Net Atomic Charges

     Atom                 Charge (a.u.)
  ----------------------------------------
      1 C                    -0.187131
      2 C                    -0.255024
      3 S                    -0.022047
      4 C                    -0.012268
      5 H                     0.196533
      6 C                    -0.028561
      7 C                     0.246245
      8 C                     0.239912
      9 C                    -0.041608
     10 C                    -0.027705
     11 O                    -0.333118
     12 O                    -0.339653
     13 C                    -0.085566
     14 H                     0.122677
     15 H                     0.090710
     16 H                     0.094649
     17 C                    -0.086550
     18 H                     0.124945
     19 H                     0.094163
     20 H                     0.090189
     21 C                    -0.212627
     22 S                     0.000790
     23 C                    -0.072755
     24 H                     0.196681
     25 H                     0.206579
     26 C                     0.005842
     27 S                     0.121737
     28 C                    -0.232468
     29 C                    -0.112729
     30 C                     0.002597
     31 C                     0.378661
     32 C                    -0.155083
     33 S                     0.042307
     34 C                     0.459625
     35 O                    -0.448554
     36 O                    -0.297739
     37 F                    -0.209796
     38 C                    -0.054854
     39 H                     0.116596
     40 H                     0.084709
     41 H                     0.084599
     42 H                     0.215090
  ----------------------------------------
  Sum of atomic charges =     0.000000

                    Cartesian Multipole Moments
 -----------------------------------------------------------------
    Charge (ESU x 10^10)
                 0.0000
    Dipole Moment (Debye)
         X       1.3587      Y       1.5754      Z       2.9532
       Tot       3.6124
    Quadrupole Moments (Debye-Ang)
        XX    -175.8783     XY       5.7207     YY    -160.2168
        XZ       1.8483     YZ      -8.6933     ZZ    -204.8484

 Total job time:  402.73s(wall), 10757.66s(cpu)
        *  Thank you very much for using Q-Chem.  Have a nice day.  *
