 Q-Chem 5.4, Q-Chem, Inc., Pleasanton, CA (2021)
 Q-Chem 5.4.0 for Intel X86 EM64T Linux

User input:
--------------------------------------------------------------
$molecule
0 1
C	1.432238	-8.398629	0.267851
C	1.270668	-7.529711	-0.801461
S	1.299871	-7.540578	1.822194
C	1.033679	-6.176229	-0.415201
H	1.318997	-7.844878	-1.851431
C	1.001923	-5.997113	1.012650
C	0.805626	-4.730351	1.584194
C	0.863981	-5.080701	-1.309433
C	0.671533	-3.810912	-0.737539
C	0.637166	-3.633485	0.691828
O	0.891580	-5.408420	-2.631211
O	0.780896	-4.411287	2.911907
C	0.336511	-5.379315	3.854716
H	0.171379	-4.834178	4.803517
H	1.095324	-6.172080	4.034285
H	-0.616308	-5.854145	3.535185
C	1.159578	-4.412679	-3.610841
H	1.321333	-4.953370	-4.562544
H	2.072791	-3.829719	-3.364029
H	0.303747	-3.715791	-3.743566
C	0.402329	-2.279087	1.074491
S	0.385663	-2.262896	-1.548848
C	0.249216	-1.413377	0.000000
H	0.350996	-1.962069	2.123688
H	1.625021	-9.477792	0.262315
C	0.000000	0.000000	0.000000
S	0.309721	0.844422	1.510732
C	0.847502	2.325108	0.727629
C	0.310602	0.853460	-1.064665
C	0.784173	2.159014	-0.678287
C	0.289451	0.790512	-2.486150
C	0.721927	1.979112	-3.106916
S	1.145464	3.152519	-1.965735
C	0.813355	2.216642	-4.559972
O	0.496884	1.338418	-5.350277
O	1.255274	3.421340	-5.004375
F	-0.087923	-0.257761	-3.246290
C	1.387494	3.754937	-6.334976
H	1.765978	4.793056	-6.370268
H	0.417095	3.693789	-6.875609
H	2.098820	3.081033	-6.861878
H	1.162229	3.189623	1.321510
$end

$rem
JOBTYPE		SP
EXCHANGE	HF
CORRELATION	pRIMP2
BASIS		cc-pvtz
METHOD		rimp2
AUX_BASIS	rimp2-cc-pvtz
SOLVENT_METHOD	PCM
PURECART	11111
SYMMETRY	false
MEM_TOTAL	110000
SCF_CONVERGENCE = 6
THRESH=10
GUI = 2
$end

$solvent
dielectric 4.90
$end
--------------------------------------------------------------

             Standard Nuclear Orientation (Angstroms)
    I     Atom           X                Y                Z
 ----------------------------------------------------------------
    1      C       1.4322380000    -8.3986290000     0.2678510000
    2      C       1.2706680000    -7.5297110000    -0.8014610000
    3      S       1.2998710000    -7.5405780000     1.8221940000
    4      C       1.0336790000    -6.1762290000    -0.4152010000
    5      H       1.3189970000    -7.8448780000    -1.8514310000
    6      C       1.0019230000    -5.9971130000     1.0126500000
    7      C       0.8056260000    -4.7303510000     1.5841940000
    8      C       0.8639810000    -5.0807010000    -1.3094330000
    9      C       0.6715330000    -3.8109120000    -0.7375390000
   10      C       0.6371660000    -3.6334850000     0.6918280000
   11      O       0.8915800000    -5.4084200000    -2.6312110000
   12      O       0.7808960000    -4.4112870000     2.9119070000
   13      C       0.3365110000    -5.3793150000     3.8547160000
   14      H       0.1713790000    -4.8341780000     4.8035170000
   15      H       1.0953240000    -6.1720800000     4.0342850000
   16      H      -0.6163080000    -5.8541450000     3.5351850000
   17      C       1.1595780000    -4.4126790000    -3.6108410000
   18      H       1.3213330000    -4.9533700000    -4.5625440000
   19      H       2.0727910000    -3.8297190000    -3.3640290000
   20      H       0.3037470000    -3.7157910000    -3.7435660000
   21      C       0.4023290000    -2.2790870000     1.0744910000
   22      S       0.3856630000    -2.2628960000    -1.5488480000
   23      C       0.2492160000    -1.4133770000     0.0000000000
   24      H       0.3509960000    -1.9620690000     2.1236880000
   25      H       1.6250210000    -9.4777920000     0.2623150000
   26      C       0.0000000000     0.0000000000     0.0000000000
   27      S       0.3097210000     0.8444220000     1.5107320000
   28      C       0.8475020000     2.3251080000     0.7276290000
   29      C       0.3106020000     0.8534600000    -1.0646650000
   30      C       0.7841730000     2.1590140000    -0.6782870000
   31      C       0.2894510000     0.7905120000    -2.4861500000
   32      C       0.7219270000     1.9791120000    -3.1069160000
   33      S       1.1454640000     3.1525190000    -1.9657350000
   34      C       0.8133550000     2.2166420000    -4.5599720000
   35      O       0.4968840000     1.3384180000    -5.3502770000
   36      O       1.2552740000     3.4213400000    -5.0043750000
   37      F      -0.0879230000    -0.2577610000    -3.2462900000
   38      C       1.3874940000     3.7549370000    -6.3349760000
   39      H       1.7659780000     4.7930560000    -6.3702680000
   40      H       0.4170950000     3.6937890000    -6.8756090000
   41      H       2.0988200000     3.0810330000    -6.8618780000
   42      H       1.1622290000     3.1896230000     1.3215100000
 ----------------------------------------------------------------

   10   -2754.2758511698      8.49e-07  Convergence criterion met
 Total energy in the final basis set =    -2754.2758511698
        RIMP2         total energy =     -2759.3383520128 a.u.

                    Orbital Energies (a.u.)
 --------------------------------------------------------------

 Alpha MOs
 -- Occupied --
-92.0147 -91.9984 -91.9851 -91.9836 -26.3365 -20.6135 -20.5906 -20.5902
-20.5524 -11.4125 -11.3789 -11.3176 -11.3151 -11.3060 -11.3023 -11.3022
-11.2988 -11.2970 -11.2893 -11.2868 -11.2855 -11.2850 -11.2827 -11.2817
-11.2779 -11.2599 -11.2565 -11.2523 -11.2489  -9.0134  -9.0023  -8.9850
 -8.9847  -6.6942  -6.6935  -6.6931  -6.6835  -6.6829  -6.6815  -6.6660
 -6.6655  -6.6654  -6.6649  -6.6645  -6.6637  -1.6523  -1.4734  -1.4148
 -1.4129  -1.3690  -1.2373  -1.1945  -1.1687  -1.1430  -1.0841  -1.0512
 -1.0488  -1.0306  -1.0007  -0.9931  -0.9738  -0.9593  -0.9490  -0.9385
 -0.8945  -0.8720  -0.8498  -0.8102  -0.7964  -0.7869  -0.7752  -0.7629
 -0.7569  -0.7312  -0.7224  -0.7191  -0.6994  -0.6899  -0.6828  -0.6798
 -0.6754  -0.6622  -0.6575  -0.6514  -0.6271  -0.6184  -0.6153  -0.6082
 -0.6038  -0.5989  -0.5873  -0.5691  -0.5684  -0.5641  -0.5581  -0.5525
 -0.5312  -0.5256  -0.5230  -0.5189  -0.5138  -0.5081  -0.5024  -0.4945
 -0.4860  -0.4835  -0.4789  -0.4634  -0.4628  -0.4625  -0.4554  -0.4251
 -0.3933  -0.3858  -0.3604  -0.3499  -0.3243  -0.2846  -0.2448

          Ground-State Mulliken Net Atomic Charges

     Atom                 Charge (a.u.)
  ----------------------------------------
      1 C                    -0.191952
      2 C                    -0.253928
      3 S                    -0.025256
      4 C                    -0.017219
      5 H                     0.196153
      6 C                    -0.027202
      7 C                     0.236653
      8 C                     0.243127
      9 C                    -0.042597
     10 C                    -0.019297
     11 O                    -0.333786
     12 O                    -0.341267
     13 C                    -0.085522
     14 H                     0.121760
     15 H                     0.090796
     16 H                     0.093760
     17 C                    -0.088633
     18 H                     0.125214
     19 H                     0.094024
     20 H                     0.091619
     21 C                    -0.250974
     22 S                    -0.027636
     23 C                    -0.013005
     24 H                     0.186282
     25 H                     0.205826
     26 C                     0.021463
     27 S                     0.101985
     28 C                    -0.210266
     29 C                    -0.077223
     30 C                    -0.032477
     31 C                     0.345227
     32 C                    -0.121918
     33 S                     0.051604
     34 C                     0.456517
     35 O                    -0.447133
     36 O                    -0.297463
     37 F                    -0.207617
     38 C                    -0.054655
     39 H                     0.117063
     40 H                     0.084936
     41 H                     0.084673
     42 H                     0.218343
  ----------------------------------------
  Sum of atomic charges =     0.000000

                    Cartesian Multipole Moments
 -----------------------------------------------------------------
    Charge (ESU x 10^10)
                 0.0000
    Dipole Moment (Debye)
         X       1.3898      Y       2.6905      Z       2.6123
       Tot       3.9993
    Quadrupole Moments (Debye-Ang)
        XX    -198.3911     XY       3.3803     YY    -164.3096
        XZ      -9.5552     YZ     -11.0618     ZZ    -181.2529

 Total job time:  303.90s(wall), 9849.70s(cpu)
        *  Thank you very much for using Q-Chem.  Have a nice day.  *
