 Q-Chem 5.4, Q-Chem, Inc., Pleasanton, CA (2021)
 Q-Chem 5.4.0 for Intel X86 EM64T Linux

User input:
--------------------------------------------------------------
$molecule
0 1
C	-0.235306	-8.519741	-0.136647
C	0.772334	-7.635967	0.221346
S	-1.702286	-7.651740	-0.650746
C	0.408807	-6.261894	0.090779
H	1.761423	-7.954738	0.573754
C	-0.932876	-6.079985	-0.397735
C	-1.479069	-4.798382	-0.568166
C	1.241204	-5.153542	0.418347
C	0.693206	-3.869626	0.251852
C	-0.648921	-3.688927	-0.239872
O	2.493437	-5.481075	0.842486
O	-2.737331	-4.479871	-0.993092
C	-3.416110	-5.356026	-1.884752
H	-4.284447	-4.790496	-2.273124
H	-3.793352	-6.268513	-1.373310
H	-2.766716	-5.658187	-2.734702
C	3.264581	-4.546999	1.588030
H	4.136519	-5.107564	1.974995
H	2.690439	-4.131473	2.443843
H	3.636177	-3.712085	0.955140
C	-1.009848	-2.314326	-0.367068
S	1.459936	-2.295487	0.517386
C	0.000000	-1.435180	0.000000
H	-1.997308	-1.993211	-0.721689
H	-0.230945	-9.615985	-0.132444
C	0.000000	0.000000	0.000000
S	0.234946	0.868203	1.510732
C	0.641630	2.390125	0.727629
C	0.235036	0.877284	-1.064665
C	0.593019	2.219143	-0.678287
C	0.219452	0.812732	-2.486150
C	0.546689	2.034501	-3.106916
S	0.866345	3.240357	-1.965735
C	0.617067	2.279095	-4.559972
O	0.378342	1.376631	-5.350277
O	0.952308	3.517725	-5.004375
F	-0.065123	-0.264443	-3.246290
C	1.054950	3.861577	-6.334976
H	1.341516	4.928732	-6.370268
H	0.093573	3.716085	-6.875609
H	1.822303	3.252232	-6.861878
H	0.879812	3.278780	1.321510
$end

$rem
JOBTYPE		SP
EXCHANGE	HF
CORRELATION	pRIMP2
BASIS		cc-pvtz
METHOD		rimp2
AUX_BASIS	rimp2-cc-pvtz
SOLVENT_METHOD	PCM
PURECART	11111
SYMMETRY	false
MEM_TOTAL	110000
SCF_CONVERGENCE = 6
THRESH=10
GUI = 2
$end

$solvent
dielectric 4.90
$end
--------------------------------------------------------------

             Standard Nuclear Orientation (Angstroms)
    I     Atom           X                Y                Z
 ----------------------------------------------------------------
    1      C      -0.2353060000    -8.5197410000    -0.1366470000
    2      C       0.7723340000    -7.6359670000     0.2213460000
    3      S      -1.7022860000    -7.6517400000    -0.6507460000
    4      C       0.4088070000    -6.2618940000     0.0907790000
    5      H       1.7614230000    -7.9547380000     0.5737540000
    6      C      -0.9328760000    -6.0799850000    -0.3977350000
    7      C      -1.4790690000    -4.7983820000    -0.5681660000
    8      C       1.2412040000    -5.1535420000     0.4183470000
    9      C       0.6932060000    -3.8696260000     0.2518520000
   10      C      -0.6489210000    -3.6889270000    -0.2398720000
   11      O       2.4934370000    -5.4810750000     0.8424860000
   12      O      -2.7373310000    -4.4798710000    -0.9930920000
   13      C      -3.4161100000    -5.3560260000    -1.8847520000
   14      H      -4.2844470000    -4.7904960000    -2.2731240000
   15      H      -3.7933520000    -6.2685130000    -1.3733100000
   16      H      -2.7667160000    -5.6581870000    -2.7347020000
   17      C       3.2645810000    -4.5469990000     1.5880300000
   18      H       4.1365190000    -5.1075640000     1.9749950000
   19      H       2.6904390000    -4.1314730000     2.4438430000
   20      H       3.6361770000    -3.7120850000     0.9551400000
   21      C      -1.0098480000    -2.3143260000    -0.3670680000
   22      S       1.4599360000    -2.2954870000     0.5173860000
   23      C       0.0000000000    -1.4351800000     0.0000000000
   24      H      -1.9973080000    -1.9932110000    -0.7216890000
   25      H      -0.2309450000    -9.6159850000    -0.1324440000
   26      C       0.0000000000     0.0000000000     0.0000000000
   27      S       0.2349460000     0.8682030000     1.5107320000
   28      C       0.6416300000     2.3901250000     0.7276290000
   29      C       0.2350360000     0.8772840000    -1.0646650000
   30      C       0.5930190000     2.2191430000    -0.6782870000
   31      C       0.2194520000     0.8127320000    -2.4861500000
   32      C       0.5466890000     2.0345010000    -3.1069160000
   33      S       0.8663450000     3.2403570000    -1.9657350000
   34      C       0.6170670000     2.2790950000    -4.5599720000
   35      O       0.3783420000     1.3766310000    -5.3502770000
   36      O       0.9523080000     3.5177250000    -5.0043750000
   37      F      -0.0651230000    -0.2644430000    -3.2462900000
   38      C       1.0549500000     3.8615770000    -6.3349760000
   39      H       1.3415160000     4.9287320000    -6.3702680000
   40      H       0.0935730000     3.7160850000    -6.8756090000
   41      H       1.8223030000     3.2522320000    -6.8618780000
   42      H       0.8798120000     3.2787800000     1.3215100000
 ----------------------------------------------------------------

   10   -2754.2918877398      8.47e-07  Convergence criterion met
 Total energy in the final basis set =    -2754.2918877398
        RIMP2         total energy =     -2759.3454787517 a.u.

                    Orbital Energies (a.u.)
 --------------------------------------------------------------

 Alpha MOs
 -- Occupied --
-92.0158 -91.9947 -91.9904 -91.9865 -26.3337 -20.6121 -20.5926 -20.5915
-20.5502 -11.4104 -11.3770 -11.3194 -11.3185 -11.3080 -11.2977 -11.2963
-11.2948 -11.2929 -11.2884 -11.2874 -11.2866 -11.2858 -11.2840 -11.2833
-11.2802 -11.2606 -11.2596 -11.2580 -11.2501  -9.0140  -8.9987  -8.9908
 -8.9864  -6.6947  -6.6942  -6.6937  -6.6800  -6.6793  -6.6780  -6.6717
 -6.6710  -6.6700  -6.6674  -6.6668  -6.6659  -1.6466  -1.4718  -1.4167
 -1.4142  -1.3672  -1.2334  -1.1960  -1.1684  -1.1419  -1.0839  -1.0521
 -1.0474  -1.0276  -1.0024  -0.9931  -0.9713  -0.9614  -0.9505  -0.9381
 -0.8961  -0.8693  -0.8504  -0.8039  -0.7916  -0.7880  -0.7727  -0.7697
 -0.7581  -0.7326  -0.7180  -0.7149  -0.7014  -0.6889  -0.6830  -0.6785
 -0.6711  -0.6604  -0.6592  -0.6526  -0.6307  -0.6201  -0.6172  -0.6064
 -0.6020  -0.5948  -0.5843  -0.5786  -0.5675  -0.5631  -0.5559  -0.5492
 -0.5370  -0.5261  -0.5236  -0.5161  -0.5149  -0.5079  -0.5020  -0.4934
 -0.4905  -0.4840  -0.4753  -0.4698  -0.4618  -0.4612  -0.4610  -0.4096
 -0.3981  -0.3873  -0.3576  -0.3492  -0.3158  -0.2890  -0.2578

          Ground-State Mulliken Net Atomic Charges

     Atom                 Charge (a.u.)
  ----------------------------------------
      1 C                    -0.187145
      2 C                    -0.255003
      3 S                    -0.021467
      4 C                    -0.012785
      5 H                     0.196382
      6 C                    -0.027450
      7 C                     0.245625
      8 C                     0.239867
      9 C                    -0.043193
     10 C                    -0.029419
     11 O                    -0.333102
     12 O                    -0.339799
     13 C                    -0.085611
     14 H                     0.122859
     15 H                     0.090680
     16 H                     0.094742
     17 C                    -0.086720
     18 H                     0.124982
     19 H                     0.094361
     20 H                     0.090026
     21 C                    -0.214498
     22 S                     0.000229
     23 C                    -0.065636
     24 H                     0.196220
     25 H                     0.206610
     26 C                    -0.002397
     27 S                     0.115669
     28 C                    -0.233734
     29 C                    -0.087132
     30 C                    -0.003262
     31 C                     0.376579
     32 C                    -0.153657
     33 S                     0.039657
     34 C                     0.459314
     35 O                    -0.449519
     36 O                    -0.297786
     37 F                    -0.210340
     38 C                    -0.054906
     39 H                     0.116552
     40 H                     0.084557
     41 H                     0.084559
     42 H                     0.215091
  ----------------------------------------
  Sum of atomic charges =     0.000000

                    Cartesian Multipole Moments
 -----------------------------------------------------------------
    Charge (ESU x 10^10)
                 0.0000
    Dipole Moment (Debye)
         X       1.0824      Y       1.5060      Z       3.0103
       Tot       3.5357
    Quadrupole Moments (Debye-Ang)
        XX    -182.9905     XY       3.9564     YY    -159.3549
        XZ       8.8022     YZ      -8.7684     ZZ    -198.8173

 Total job time:  291.58s(wall), 9594.52s(cpu)
        *  Thank you very much for using Q-Chem.  Have a nice day.  *
