 Q-Chem 5.4, Q-Chem, Inc., Pleasanton, CA (2021)
 Q-Chem 5.4.0 for Intel X86 EM64T Linux

User input:
--------------------------------------------------------------
$molecule
0 1
C	-0.255929	-8.519741	0.092419
C	0.666007	-7.635967	-0.449364
S	-1.592708	-7.651740	0.885736
C	0.332317	-6.261894	-0.254813
H	1.571741	-7.954738	-0.980526
C	-0.904324	-6.079985	0.458965
C	-1.385968	-4.798382	0.767823
C	1.118303	-5.153542	-0.681909
C	0.638514	-3.869626	-0.369139
C	-0.600871	-3.688927	0.342916
O	2.248132	-5.481075	-1.368544
O	-2.520275	-4.479871	1.458570
C	-3.639637	-5.356026	1.405396
H	-4.495304	-4.790496	1.820940
H	-3.490336	-6.268513	2.023129
H	-3.873314	-5.658187	0.361595
C	3.314934	-4.546999	-1.480048
H	4.171837	-5.107564	-1.899255
H	3.601473	-4.131473	-0.490123
H	3.068969	-3.712085	-2.171521
C	-0.930308	-2.314326	0.537642
S	1.334769	-2.295487	-0.785807
C	-0.000000	-1.435180	-0.000000
H	-1.836691	-1.993211	1.066134
H	-0.249906	-9.615985	0.091781
C	0.000000	0.000000	0.000000
S	0.158383	0.885376	1.510732
C	0.430876	2.436951	0.727629
C	0.157682	0.894430	-1.064665
C	0.397351	2.262384	-0.678287
C	0.147783	0.828765	-2.486150
C	0.367291	2.074406	-3.106916
S	0.580633	3.303533	-1.965735
C	0.416083	2.324204	-4.559972
O	0.256921	1.404367	-5.350277
O	0.642094	3.587338	-5.004375
F	-0.041828	-0.269113	-3.246290
C	0.714377	3.938827	-6.334976
H	0.906844	5.026898	-6.370268
H	-0.230661	3.710099	-6.875609
H	1.531918	3.398681	-6.861878
H	0.590699	3.342984	1.321510
$end

$rem
JOBTYPE		SP
EXCHANGE	HF
CORRELATION	pRIMP2
BASIS		cc-pvtz
METHOD		rimp2
AUX_BASIS	rimp2-cc-pvtz
SOLVENT_METHOD	PCM
PURECART	11111
SYMMETRY	false
MEM_TOTAL	110000
SCF_CONVERGENCE = 6
THRESH=10
GUI = 2
$end

$solvent
dielectric 4.90
$end
--------------------------------------------------------------

             Standard Nuclear Orientation (Angstroms)
    I     Atom           X                Y                Z
 ----------------------------------------------------------------
    1      C      -0.2559290000    -8.5197410000     0.0924190000
    2      C       0.6660070000    -7.6359670000    -0.4493640000
    3      S      -1.5927080000    -7.6517400000     0.8857360000
    4      C       0.3323170000    -6.2618940000    -0.2548130000
    5      H       1.5717410000    -7.9547380000    -0.9805260000
    6      C      -0.9043240000    -6.0799850000     0.4589650000
    7      C      -1.3859680000    -4.7983820000     0.7678230000
    8      C       1.1183030000    -5.1535420000    -0.6819090000
    9      C       0.6385140000    -3.8696260000    -0.3691390000
   10      C      -0.6008710000    -3.6889270000     0.3429160000
   11      O       2.2481320000    -5.4810750000    -1.3685440000
   12      O      -2.5202750000    -4.4798710000     1.4585700000
   13      C      -3.6396370000    -5.3560260000     1.4053960000
   14      H      -4.4953040000    -4.7904960000     1.8209400000
   15      H      -3.4903360000    -6.2685130000     2.0231290000
   16      H      -3.8733140000    -5.6581870000     0.3615950000
   17      C       3.3149340000    -4.5469990000    -1.4800480000
   18      H       4.1718370000    -5.1075640000    -1.8992550000
   19      H       3.6014730000    -4.1314730000    -0.4901230000
   20      H       3.0689690000    -3.7120850000    -2.1715210000
   21      C      -0.9303080000    -2.3143260000     0.5376420000
   22      S       1.3347690000    -2.2954870000    -0.7858070000
   23      C       0.0000000000    -1.4351800000     0.0000000000
   24      H      -1.8366910000    -1.9932110000     1.0661340000
   25      H      -0.2499060000    -9.6159850000     0.0917810000
   26      C       0.0000000000     0.0000000000     0.0000000000
   27      S       0.1583830000     0.8853760000     1.5107320000
   28      C       0.4308760000     2.4369510000     0.7276290000
   29      C       0.1576820000     0.8944300000    -1.0646650000
   30      C       0.3973510000     2.2623840000    -0.6782870000
   31      C       0.1477830000     0.8287650000    -2.4861500000
   32      C       0.3672910000     2.0744060000    -3.1069160000
   33      S       0.5806330000     3.3035330000    -1.9657350000
   34      C       0.4160830000     2.3242040000    -4.5599720000
   35      O       0.2569210000     1.4043670000    -5.3502770000
   36      O       0.6420940000     3.5873380000    -5.0043750000
   37      F      -0.0418280000    -0.2691130000    -3.2462900000
   38      C       0.7143770000     3.9388270000    -6.3349760000
   39      H       0.9068440000     5.0268980000    -6.3702680000
   40      H      -0.2306610000     3.7100990000    -6.8756090000
   41      H       1.5319180000     3.3986810000    -6.8618780000
   42      H       0.5906990000     3.3429840000     1.3215100000
 ----------------------------------------------------------------

   10   -2754.2953893375      8.57e-07  Convergence criterion met
 Total energy in the final basis set =    -2754.2953893375
        RIMP2         total energy =     -2759.3486197050 a.u.

                    Orbital Energies (a.u.)
 --------------------------------------------------------------

 Alpha MOs
 -- Occupied --
-92.0165 -91.9946 -91.9901 -91.9867 -26.3338 -20.6118 -20.5923 -20.5921
-20.5497 -11.4100 -11.3773 -11.3194 -11.3189 -11.3103 -11.2969 -11.2965
-11.2945 -11.2933 -11.2883 -11.2869 -11.2868 -11.2864 -11.2843 -11.2822
-11.2804 -11.2613 -11.2598 -11.2592 -11.2502  -9.0146  -8.9986  -8.9904
 -8.9866  -6.6953  -6.6947  -6.6943  -6.6799  -6.6792  -6.6779  -6.6713
 -6.6706  -6.6697  -6.6676  -6.6670  -6.6661  -1.6468  -1.4716  -1.4165
 -1.4148  -1.3668  -1.2333  -1.1964  -1.1686  -1.1418  -1.0844  -1.0525
 -1.0473  -1.0277  -1.0027  -0.9934  -0.9713  -0.9614  -0.9506  -0.9385
 -0.8961  -0.8691  -0.8510  -0.8067  -0.7905  -0.7882  -0.7747  -0.7664
 -0.7585  -0.7330  -0.7180  -0.7150  -0.7011  -0.6884  -0.6835  -0.6783
 -0.6710  -0.6609  -0.6593  -0.6529  -0.6304  -0.6203  -0.6172  -0.6062
 -0.6022  -0.5943  -0.5839  -0.5772  -0.5683  -0.5659  -0.5569  -0.5518
 -0.5335  -0.5264  -0.5250  -0.5163  -0.5142  -0.5083  -0.5013  -0.4961
 -0.4898  -0.4840  -0.4765  -0.4683  -0.4616  -0.4611  -0.4599  -0.4115
 -0.3993  -0.3870  -0.3578  -0.3498  -0.3187  -0.2869  -0.2563

          Ground-State Mulliken Net Atomic Charges

     Atom                 Charge (a.u.)
  ----------------------------------------
      1 C                    -0.186875
      2 C                    -0.254333
      3 S                    -0.021990
      4 C                    -0.012847
      5 H                     0.196653
      6 C                    -0.027094
      7 C                     0.245925
      8 C                     0.239485
      9 C                    -0.041412
     10 C                    -0.022196
     11 O                    -0.333117
     12 O                    -0.339940
     13 C                    -0.085597
     14 H                     0.122633
     15 H                     0.091019
     16 H                     0.094636
     17 C                    -0.086949
     18 H                     0.125118
     19 H                     0.094351
     20 H                     0.090729
     21 C                    -0.240688
     22 S                    -0.002755
     23 C                    -0.031087
     24 H                     0.197316
     25 H                     0.206709
     26 C                     0.003956
     27 S                     0.119523
     28 C                    -0.241779
     29 C                    -0.124612
     30 C                    -0.003276
     31 C                     0.396819
     32 C                    -0.154369
     33 S                     0.038311
     34 C                     0.461252
     35 O                    -0.450386
     36 O                    -0.297952
     37 F                    -0.210477
     38 C                    -0.054955
     39 H                     0.116502
     40 H                     0.084602
     41 H                     0.084401
     42 H                     0.214747
  ----------------------------------------
  Sum of atomic charges =     0.000000

                    Cartesian Multipole Moments
 -----------------------------------------------------------------
    Charge (ESU x 10^10)
                -0.0000
    Dipole Moment (Debye)
         X       0.5792      Y       1.4153      Z       3.0173
       Tot       3.3827
    Quadrupole Moments (Debye-Ang)
        XX    -178.0141     XY       3.8273     YY    -158.5275
        XZ      -9.0101     YZ      -9.3063     ZZ    -204.5576

 Total job time:  279.73s(wall), 9167.33s(cpu)
        *  Thank you very much for using Q-Chem.  Have a nice day.  *
