 Q-Chem 5.4, Q-Chem, Inc., Pleasanton, CA (2021)
 Q-Chem 5.4.0 for Intel X86 EM64T Linux

User input:
--------------------------------------------------------------
$molecule
0 1
C	0.092419	-8.519741	0.255929
C	-0.449364	-7.635967	-0.666007
S	0.885736	-7.651740	1.592708
C	-0.254813	-6.261894	-0.332317
H	-0.980526	-7.954738	-1.571741
C	0.458965	-6.079985	0.904324
C	0.767823	-4.798382	1.385968
C	-0.681909	-5.153542	-1.118303
C	-0.369139	-3.869626	-0.638514
C	0.342916	-3.688927	0.600871
O	-1.368544	-5.481075	-2.248132
O	1.458570	-4.479871	2.520275
C	1.405396	-5.356026	3.639637
H	1.820940	-4.790496	4.495304
H	2.023129	-6.268513	3.490336
H	0.361595	-5.658187	3.873314
C	-1.480048	-4.546999	-3.314934
H	-1.899255	-5.107564	-4.171837
H	-0.490123	-4.131473	-3.601473
H	-2.171521	-3.712085	-3.068969
C	0.537642	-2.314326	0.930308
S	-0.785807	-2.295487	-1.334769
C	0.000000	-1.435180	0.000000
H	1.066134	-1.993211	1.836691
H	0.091781	-9.615985	0.249906
C	0.000000	0.000000	0.000000
S	0.780044	0.447780	1.510732
C	2.143774	1.236372	0.727629
C	0.786529	0.454137	-1.064665
C	1.988499	1.149844	-0.678287
C	0.729864	0.419512	-2.486150
C	1.825177	1.052041	-3.106916
S	2.903877	1.678680	-1.965735
C	2.047896	1.175232	-4.559972
O	1.240953	0.705897	-5.350277
O	3.160791	1.814024	-5.004375
F	-0.233039	-0.140940	-3.246290
C	3.476510	1.984585	-6.334976
H	4.433735	2.536545	-6.370268
H	2.693835	2.561503	-6.875609
H	3.588239	1.011113	-6.861878
H	2.940569	1.696327	1.321510
$end

$rem
JOBTYPE		SP
EXCHANGE	HF
CORRELATION	pRIMP2
BASIS		cc-pvtz
METHOD		rimp2
AUX_BASIS	rimp2-cc-pvtz
SOLVENT_METHOD	PCM
PURECART	11111
SYMMETRY	false
MEM_TOTAL	110000
SCF_CONVERGENCE = 6
THRESH=10
GUI = 2
$end

$solvent
dielectric 4.90
$end
--------------------------------------------------------------

             Standard Nuclear Orientation (Angstroms)
    I     Atom           X                Y                Z
 ----------------------------------------------------------------
    1      C       0.0924190000    -8.5197410000     0.2559290000
    2      C      -0.4493640000    -7.6359670000    -0.6660070000
    3      S       0.8857360000    -7.6517400000     1.5927080000
    4      C      -0.2548130000    -6.2618940000    -0.3323170000
    5      H      -0.9805260000    -7.9547380000    -1.5717410000
    6      C       0.4589650000    -6.0799850000     0.9043240000
    7      C       0.7678230000    -4.7983820000     1.3859680000
    8      C      -0.6819090000    -5.1535420000    -1.1183030000
    9      C      -0.3691390000    -3.8696260000    -0.6385140000
   10      C       0.3429160000    -3.6889270000     0.6008710000
   11      O      -1.3685440000    -5.4810750000    -2.2481320000
   12      O       1.4585700000    -4.4798710000     2.5202750000
   13      C       1.4053960000    -5.3560260000     3.6396370000
   14      H       1.8209400000    -4.7904960000     4.4953040000
   15      H       2.0231290000    -6.2685130000     3.4903360000
   16      H       0.3615950000    -5.6581870000     3.8733140000
   17      C      -1.4800480000    -4.5469990000    -3.3149340000
   18      H      -1.8992550000    -5.1075640000    -4.1718370000
   19      H      -0.4901230000    -4.1314730000    -3.6014730000
   20      H      -2.1715210000    -3.7120850000    -3.0689690000
   21      C       0.5376420000    -2.3143260000     0.9303080000
   22      S      -0.7858070000    -2.2954870000    -1.3347690000
   23      C       0.0000000000    -1.4351800000     0.0000000000
   24      H       1.0661340000    -1.9932110000     1.8366910000
   25      H       0.0917810000    -9.6159850000     0.2499060000
   26      C       0.0000000000     0.0000000000     0.0000000000
   27      S       0.7800440000     0.4477800000     1.5107320000
   28      C       2.1437740000     1.2363720000     0.7276290000
   29      C       0.7865290000     0.4541370000    -1.0646650000
   30      C       1.9884990000     1.1498440000    -0.6782870000
   31      C       0.7298640000     0.4195120000    -2.4861500000
   32      C       1.8251770000     1.0520410000    -3.1069160000
   33      S       2.9038770000     1.6786800000    -1.9657350000
   34      C       2.0478960000     1.1752320000    -4.5599720000
   35      O       1.2409530000     0.7058970000    -5.3502770000
   36      O       3.1607910000     1.8140240000    -5.0043750000
   37      F      -0.2330390000    -0.1409400000    -3.2462900000
   38      C       3.4765100000     1.9845850000    -6.3349760000
   39      H       4.4337350000     2.5365450000    -6.3702680000
   40      H       2.6938350000     2.5615030000    -6.8756090000
   41      H       3.5882390000     1.0111130000    -6.8618780000
   42      H       2.9405690000     1.6963270000     1.3215100000
 ----------------------------------------------------------------

   11   -2754.2293390716      7.28e-07  Convergence criterion met
 Total energy in the final basis set =    -2754.2293390716
        RIMP2         total energy =     -2759.3027331119 a.u.

                    Orbital Energies (a.u.)
 --------------------------------------------------------------

 Alpha MOs
 -- Occupied --
-92.0158 -92.0080 -91.9823 -91.9787 -26.3349 -20.6166 -20.5890 -20.5866
-20.5581 -11.4173 -11.3772 -11.3289 -11.3150 -11.3138 -11.3085 -11.3027
-11.2998 -11.2979 -11.2909 -11.2839 -11.2838 -11.2798 -11.2781 -11.2764
-11.2737 -11.2550 -11.2509 -11.2467 -11.2357  -9.0151  -9.0114  -8.9823
 -8.9800  -6.6957  -6.6948  -6.6947  -6.6926  -6.6920  -6.6907  -6.6633
 -6.6626  -6.6618  -6.6609  -6.6602  -6.6592  -1.6492  -1.4769  -1.4129
 -1.4094  -1.3732  -1.2461  -1.1918  -1.1708  -1.1438  -1.0845  -1.0526
 -1.0462  -1.0350  -0.9975  -0.9917  -0.9770  -0.9561  -0.9469  -0.9389
 -0.8911  -0.8777  -0.8426  -0.8107  -0.7958  -0.7861  -0.7768  -0.7621
 -0.7529  -0.7279  -0.7207  -0.7170  -0.6984  -0.6918  -0.6825  -0.6795
 -0.6784  -0.6629  -0.6554  -0.6493  -0.6267  -0.6163  -0.6141  -0.6127
 -0.6074  -0.6047  -0.5885  -0.5709  -0.5649  -0.5639  -0.5525  -0.5507
 -0.5336  -0.5238  -0.5194  -0.5146  -0.5115  -0.5085  -0.5028  -0.4928
 -0.4872  -0.4832  -0.4696  -0.4674  -0.4648  -0.4604  -0.4487  -0.4239
 -0.3888  -0.3810  -0.3549  -0.3497  -0.3226  -0.2886  -0.2467

          Ground-State Mulliken Net Atomic Charges

     Atom                 Charge (a.u.)
  ----------------------------------------
      1 C                    -0.200394
      2 C                    -0.252899
      3 S                    -0.030826
      4 C                    -0.023912
      5 H                     0.195118
      6 C                    -0.022108
      7 C                     0.224571
      8 C                     0.243977
      9 C                    -0.045711
     10 C                    -0.004512
     11 O                    -0.334099
     12 O                    -0.343301
     13 C                    -0.085543
     14 H                     0.120315
     15 H                     0.090106
     16 H                     0.092586
     17 C                    -0.086974
     18 H                     0.124006
     19 H                     0.094338
     20 H                     0.089870
     21 C                    -0.311940
     22 S                    -0.038084
     23 C                     0.016075
     24 H                     0.188928
     25 H                     0.204220
     26 C                    -0.138884
     27 S                     0.122473
     28 C                    -0.143597
     29 C                     0.004095
     30 C                    -0.035965
     31 C                     0.342400
     32 C                    -0.105634
     33 S                     0.078184
     34 C                     0.456155
     35 O                    -0.437513
     36 O                    -0.296415
     37 F                    -0.207330
     38 C                    -0.054681
     39 H                     0.117737
     40 H                     0.085853
     41 H                     0.085844
     42 H                     0.223469
  ----------------------------------------
  Sum of atomic charges =     0.000000

                    Cartesian Multipole Moments
 -----------------------------------------------------------------
    Charge (ESU x 10^10)
                 0.0000
    Dipole Moment (Debye)
         X       4.8632      Y       3.3512      Z       2.0742
       Tot       6.2596
    Quadrupole Moments (Debye-Ang)
        XX    -183.8187     XY      11.4326     YY    -183.4512
        XZ      -4.7580     YZ      -5.5801     ZZ    -179.3927

 Total job time:  307.04s(wall), 10017.73s(cpu)
        *  Thank you very much for using Q-Chem.  Have a nice day.  *
