 Q-Chem 5.4, Q-Chem, Inc., Pleasanton, CA (2021)
 Q-Chem 5.4.0 for Intel X86 EM64T Linux

User input:
--------------------------------------------------------------
$molecule
0 1
C	-0.255459	-8.519741	-0.093711
C	0.799036	-7.635967	0.083869
S	-1.789425	-7.651740	-0.345260
C	0.418360	-6.261894	0.018411
H	1.834294	-7.954738	0.259169
C	-0.987769	-6.079985	-0.229701
C	-1.555260	-4.798382	-0.302697
C	1.294992	-5.153542	0.196459
C	0.726408	-3.869626	0.127651
C	-0.680716	-3.688927	-0.123544
O	2.601852	-5.481075	0.396706
O	-2.868193	-4.479871	-0.502673
C	-3.691495	-5.356026	-1.262918
H	-4.614080	-4.790496	-1.494604
H	-3.974195	-6.268513	-0.693738
H	-3.199559	-5.658187	-2.212720
C	3.490743	-4.546999	0.997016
H	4.416630	-5.107564	1.226691
H	3.073934	-4.131473	1.939526
H	3.746794	-3.712085	0.309214
C	-1.058247	-2.314326	-0.186133
S	1.527599	-2.295487	0.256010
C	0.000000	-1.435180	0.000000
H	-2.092285	-1.993211	-0.363896
H	-0.250435	-9.615985	-0.090328
C	0.000000	0.000000	0.000000
S	0.002233	0.899428	1.510732
C	0.001157	2.474749	0.727629
C	-0.000030	0.908223	-1.064665
C	-0.001545	2.297013	-0.678287
C	0.001624	0.841837	-2.486150
C	0.001494	2.106670	-3.106916
S	-0.001841	3.354171	-1.965735
C	0.006168	2.361146	-4.559972
O	0.009152	1.427646	-5.350277
O	0.009405	3.644337	-5.004375
F	0.005539	-0.272288	-3.246290
C	0.019554	4.003038	-6.334976
H	0.020155	5.108000	-6.370268
H	-0.871409	3.613681	-6.875609
H	0.918470	3.613062	-6.861878
H	0.001222	3.394771	1.321510
$end

$rem
JOBTYPE		SP
EXCHANGE	HF
CORRELATION	pRIMP2
BASIS		cc-pvtz
METHOD		rimp2
AUX_BASIS	rimp2-cc-pvtz
SOLVENT_METHOD	PCM
PURECART	11111
SYMMETRY	false
MEM_TOTAL	110000
SCF_CONVERGENCE = 6
THRESH=10
GUI = 2
$end

$solvent
dielectric 4.90
$end
--------------------------------------------------------------

             Standard Nuclear Orientation (Angstroms)
    I     Atom           X                Y                Z
 ----------------------------------------------------------------
    1      C      -0.2554590000    -8.5197410000    -0.0937110000
    2      C       0.7990360000    -7.6359670000     0.0838690000
    3      S      -1.7894250000    -7.6517400000    -0.3452600000
    4      C       0.4183600000    -6.2618940000     0.0184110000
    5      H       1.8342940000    -7.9547380000     0.2591690000
    6      C      -0.9877690000    -6.0799850000    -0.2297010000
    7      C      -1.5552600000    -4.7983820000    -0.3026970000
    8      C       1.2949920000    -5.1535420000     0.1964590000
    9      C       0.7264080000    -3.8696260000     0.1276510000
   10      C      -0.6807160000    -3.6889270000    -0.1235440000
   11      O       2.6018520000    -5.4810750000     0.3967060000
   12      O      -2.8681930000    -4.4798710000    -0.5026730000
   13      C      -3.6914950000    -5.3560260000    -1.2629180000
   14      H      -4.6140800000    -4.7904960000    -1.4946040000
   15      H      -3.9741950000    -6.2685130000    -0.6937380000
   16      H      -3.1995590000    -5.6581870000    -2.2127200000
   17      C       3.4907430000    -4.5469990000     0.9970160000
   18      H       4.4166300000    -5.1075640000     1.2266910000
   19      H       3.0739340000    -4.1314730000     1.9395260000
   20      H       3.7467940000    -3.7120850000     0.3092140000
   21      C      -1.0582470000    -2.3143260000    -0.1861330000
   22      S       1.5275990000    -2.2954870000     0.2560100000
   23      C       0.0000000000    -1.4351800000     0.0000000000
   24      H      -2.0922850000    -1.9932110000    -0.3638960000
   25      H      -0.2504350000    -9.6159850000    -0.0903280000
   26      C       0.0000000000     0.0000000000     0.0000000000
   27      S       0.0022330000     0.8994280000     1.5107320000
   28      C       0.0011570000     2.4747490000     0.7276290000
   29      C      -0.0000300000     0.9082230000    -1.0646650000
   30      C      -0.0015450000     2.2970130000    -0.6782870000
   31      C       0.0016240000     0.8418370000    -2.4861500000
   32      C       0.0014940000     2.1066700000    -3.1069160000
   33      S      -0.0018410000     3.3541710000    -1.9657350000
   34      C       0.0061680000     2.3611460000    -4.5599720000
   35      O       0.0091520000     1.4276460000    -5.3502770000
   36      O       0.0094050000     3.6443370000    -5.0043750000
   37      F       0.0055390000    -0.2722880000    -3.2462900000
   38      C       0.0195540000     4.0030380000    -6.3349760000
   39      H       0.0201550000     5.1080000000    -6.3702680000
   40      H      -0.8714090000     3.6136810000    -6.8756090000
   41      H       0.9184700000     3.6130620000    -6.8618780000
   42      H       0.0012220000     3.3947710000     1.3215100000
 ----------------------------------------------------------------

   10   -2754.2951318423      8.71e-07  Convergence criterion met
 Total energy in the final basis set =    -2754.2951318423
        RIMP2         total energy =     -2759.3471547417 a.u.

                    Orbital Energies (a.u.)
 --------------------------------------------------------------

 Alpha MOs
 -- Occupied --
-92.0159 -91.9941 -91.9901 -91.9867 -26.3337 -20.6119 -20.5926 -20.5919
-20.5499 -11.4101 -11.3770 -11.3194 -11.3191 -11.3096 -11.2970 -11.2957
-11.2932 -11.2931 -11.2883 -11.2873 -11.2869 -11.2861 -11.2843 -11.2826
-11.2805 -11.2611 -11.2599 -11.2598 -11.2502  -9.0141  -8.9981  -8.9905
 -8.9866  -6.6947  -6.6942  -6.6937  -6.6794  -6.6788  -6.6774  -6.6714
 -6.6707  -6.6697  -6.6676  -6.6670  -6.6661  -1.6465  -1.4717  -1.4167
 -1.4147  -1.3669  -1.2327  -1.1962  -1.1683  -1.1415  -1.0840  -1.0524
 -1.0471  -1.0273  -1.0026  -0.9933  -0.9710  -0.9615  -0.9506  -0.9383
 -0.8961  -0.8688  -0.8509  -0.8044  -0.7909  -0.7883  -0.7735  -0.7691
 -0.7585  -0.7330  -0.7179  -0.7148  -0.7016  -0.6886  -0.6833  -0.6783
 -0.6707  -0.6603  -0.6593  -0.6528  -0.6310  -0.6203  -0.6172  -0.6062
 -0.6019  -0.5940  -0.5827  -0.5797  -0.5676  -0.5646  -0.5561  -0.5515
 -0.5356  -0.5259  -0.5241  -0.5162  -0.5148  -0.5079  -0.5014  -0.4934
 -0.4913  -0.4837  -0.4766  -0.4686  -0.4617  -0.4610  -0.4607  -0.4064
 -0.4002  -0.3878  -0.3581  -0.3483  -0.3150  -0.2892  -0.2594

          Ground-State Mulliken Net Atomic Charges

     Atom                 Charge (a.u.)
  ----------------------------------------
      1 C                    -0.186763
      2 C                    -0.254410
      3 S                    -0.021259
      4 C                    -0.012778
      5 H                     0.196563
      6 C                    -0.027709
      7 C                     0.246795
      8 C                     0.239443
      9 C                    -0.048666
     10 C                    -0.031762
     11 O                    -0.333089
     12 O                    -0.339877
     13 C                    -0.085658
     14 H                     0.122808
     15 H                     0.090840
     16 H                     0.094806
     17 C                    -0.086397
     18 H                     0.124836
     19 H                     0.094167
     20 H                     0.090203
     21 C                    -0.210750
     22 S                     0.002658
     23 C                    -0.048665
     24 H                     0.196908
     25 H                     0.206711
     26 C                    -0.026175
     27 S                     0.118902
     28 C                    -0.239758
     29 C                    -0.087576
     30 C                    -0.006372
     31 C                     0.397473
     32 C                    -0.158891
     33 S                     0.036400
     34 C                     0.460773
     35 O                    -0.450316
     36 O                    -0.297774
     37 F                    -0.211159
     38 C                    -0.055005
     39 H                     0.116537
     40 H                     0.084513
     41 H                     0.084518
     42 H                     0.214955
  ----------------------------------------
  Sum of atomic charges =     0.000000

                    Cartesian Multipole Moments
 -----------------------------------------------------------------
    Charge (ESU x 10^10)
                -0.0000
    Dipole Moment (Debye)
         X       0.0664      Y       1.4261      Z       3.0360
       Tot       3.3550
    Quadrupole Moments (Debye-Ang)
        XX    -180.3473     XY       0.3812     YY    -157.9616
        XZ       9.2078     YZ      -9.0706     ZZ    -202.7454

 Total job time:  318.63s(wall), 9612.65s(cpu)
        *  Thank you very much for using Q-Chem.  Have a nice day.  *
