 Q-Chem 5.4, Q-Chem, Inc., Pleasanton, CA (2021)
 Q-Chem 5.4.0 for Intel X86 EM64T Linux

User input:
--------------------------------------------------------------
$molecule
0 1
C	0.047927	-8.519741	-0.267851
C	0.056157	-7.635967	0.801461
S	0.029285	-7.651740	-1.822194
C	0.054516	-6.261894	0.415201
H	0.063290	-7.954738	1.851431
C	0.054687	-6.079985	-1.012650
C	0.028030	-4.798382	-1.584194
C	0.031399	-5.153542	1.309433
C	0.000427	-3.869626	0.737539
C	0.003462	-3.688927	-0.691828
O	0.061128	-5.481075	2.631211
O	-0.003021	-4.479871	-2.911907
C	0.602710	-5.356026	-3.854716
H	0.670671	-4.790496	-4.803517
H	-0.006913	-6.268513	-4.034285
H	1.623507	-5.658187	-3.535185
C	-0.375708	-4.546999	3.610841
H	-0.441115	-5.107564	4.562544
H	-1.376277	-4.131473	3.364029
H	0.346107	-3.712085	3.743566
C	-0.000458	-2.314326	-1.074491
S	0.013144	-2.295487	1.548848
C	0.000000	-1.435180	0.000000
H	-0.004953	-1.993211	-2.123688
H	0.045468	-9.615985	-0.262315
C	0.000000	0.000000	0.000000
S	0.002233	0.899428	1.510732
C	0.001157	2.474749	0.727629
C	-0.000030	0.908223	-1.064665
C	-0.001545	2.297013	-0.678287
C	0.001624	0.841837	-2.486150
C	0.001494	2.106670	-3.106916
S	-0.001841	3.354171	-1.965735
C	0.006168	2.361146	-4.559972
O	0.009152	1.427646	-5.350277
O	0.009405	3.644337	-5.004375
F	0.005539	-0.272288	-3.246290
C	0.019554	4.003038	-6.334976
H	0.020155	5.108000	-6.370268
H	-0.871409	3.613681	-6.875609
H	0.918470	3.613062	-6.861878
H	0.001222	3.394771	1.321510
$end

$rem
JOBTYPE		SP
EXCHANGE	HF
CORRELATION	pRIMP2
BASIS		cc-pvtz
METHOD		rimp2
AUX_BASIS	rimp2-cc-pvtz
SOLVENT_METHOD	PCM
PURECART	11111
SYMMETRY	false
MEM_TOTAL	110000
SCF_CONVERGENCE = 6
THRESH=10
GUI = 2
$end

$solvent
dielectric 4.90
$end
--------------------------------------------------------------

             Standard Nuclear Orientation (Angstroms)
    I     Atom           X                Y                Z
 ----------------------------------------------------------------
    1      C       0.0479270000    -8.5197410000    -0.2678510000
    2      C       0.0561570000    -7.6359670000     0.8014610000
    3      S       0.0292850000    -7.6517400000    -1.8221940000
    4      C       0.0545160000    -6.2618940000     0.4152010000
    5      H       0.0632900000    -7.9547380000     1.8514310000
    6      C       0.0546870000    -6.0799850000    -1.0126500000
    7      C       0.0280300000    -4.7983820000    -1.5841940000
    8      C       0.0313990000    -5.1535420000     1.3094330000
    9      C       0.0004270000    -3.8696260000     0.7375390000
   10      C       0.0034620000    -3.6889270000    -0.6918280000
   11      O       0.0611280000    -5.4810750000     2.6312110000
   12      O      -0.0030210000    -4.4798710000    -2.9119070000
   13      C       0.6027100000    -5.3560260000    -3.8547160000
   14      H       0.6706710000    -4.7904960000    -4.8035170000
   15      H      -0.0069130000    -6.2685130000    -4.0342850000
   16      H       1.6235070000    -5.6581870000    -3.5351850000
   17      C      -0.3757080000    -4.5469990000     3.6108410000
   18      H      -0.4411150000    -5.1075640000     4.5625440000
   19      H      -1.3762770000    -4.1314730000     3.3640290000
   20      H       0.3461070000    -3.7120850000     3.7435660000
   21      C      -0.0004580000    -2.3143260000    -1.0744910000
   22      S       0.0131440000    -2.2954870000     1.5488480000
   23      C       0.0000000000    -1.4351800000     0.0000000000
   24      H      -0.0049530000    -1.9932110000    -2.1236880000
   25      H       0.0454680000    -9.6159850000    -0.2623150000
   26      C       0.0000000000     0.0000000000     0.0000000000
   27      S       0.0022330000     0.8994280000     1.5107320000
   28      C       0.0011570000     2.4747490000     0.7276290000
   29      C      -0.0000300000     0.9082230000    -1.0646650000
   30      C      -0.0015450000     2.2970130000    -0.6782870000
   31      C       0.0016240000     0.8418370000    -2.4861500000
   32      C       0.0014940000     2.1066700000    -3.1069160000
   33      S      -0.0018410000     3.3541710000    -1.9657350000
   34      C       0.0061680000     2.3611460000    -4.5599720000
   35      O       0.0091520000     1.4276460000    -5.3502770000
   36      O       0.0094050000     3.6443370000    -5.0043750000
   37      F       0.0055390000    -0.2722880000    -3.2462900000
   38      C       0.0195540000     4.0030380000    -6.3349760000
   39      H       0.0201550000     5.1080000000    -6.3702680000
   40      H      -0.8714090000     3.6136810000    -6.8756090000
   41      H       0.9184700000     3.6130620000    -6.8618780000
   42      H       0.0012220000     3.3947710000     1.3215100000
 ----------------------------------------------------------------

   10   -2754.2967228358      8.50e-07  Convergence criterion met
 Total energy in the final basis set =    -2754.2967228358
        RIMP2         total energy =     -2759.3517646635 a.u.

                    Orbital Energies (a.u.)
 --------------------------------------------------------------

 Alpha MOs
 -- Occupied --
-92.0160 -91.9949 -91.9911 -91.9873 -26.3389 -20.6117 -20.5932 -20.5919
-20.5493 -11.4098 -11.3791 -11.3204 -11.3199 -11.3150 -11.2976 -11.2965
-11.2961 -11.2912 -11.2887 -11.2883 -11.2879 -11.2856 -11.2850 -11.2811
-11.2805 -11.2623 -11.2610 -11.2579 -11.2507  -9.0145  -8.9989  -8.9918
 -8.9872  -6.6953  -6.6948  -6.6943  -6.6802  -6.6795  -6.6782  -6.6728
 -6.6721  -6.6711  -6.6682  -6.6676  -6.6667  -1.6536  -1.4714  -1.4173
 -1.4146  -1.3667  -1.2336  -1.1977  -1.1701  -1.1425  -1.0852  -1.0534
 -1.0483  -1.0281  -1.0043  -0.9943  -0.9725  -0.9614  -0.9511  -0.9385
 -0.8974  -0.8696  -0.8527  -0.8081  -0.7968  -0.7892  -0.7726  -0.7698
 -0.7583  -0.7335  -0.7218  -0.7205  -0.7020  -0.6900  -0.6854  -0.6784
 -0.6725  -0.6626  -0.6598  -0.6529  -0.6298  -0.6205  -0.6160  -0.6061
 -0.5995  -0.5938  -0.5890  -0.5764  -0.5696  -0.5604  -0.5531  -0.5491
 -0.5372  -0.5274  -0.5249  -0.5198  -0.5177  -0.5100  -0.5057  -0.4966
 -0.4866  -0.4843  -0.4803  -0.4677  -0.4620  -0.4612  -0.4585  -0.4252
 -0.3989  -0.3863  -0.3603  -0.3508  -0.3261  -0.2846  -0.2471

          Ground-State Mulliken Net Atomic Charges

     Atom                 Charge (a.u.)
  ----------------------------------------
      1 C                    -0.185514
      2 C                    -0.255476
      3 S                    -0.019643
      4 C                    -0.012712
      5 H                     0.196663
      6 C                    -0.029869
      7 C                     0.257660
      8 C                     0.242675
      9 C                    -0.036127
     10 C                    -0.043401
     11 O                    -0.333194
     12 O                    -0.339201
     13 C                    -0.086626
     14 H                     0.124561
     15 H                     0.091656
     16 H                     0.094112
     17 C                    -0.088703
     18 H                     0.126293
     19 H                     0.095126
     20 H                     0.089635
     21 C                    -0.195669
     22 S                    -0.044994
     23 C                    -0.030507
     24 H                     0.216671
     25 H                     0.207028
     26 C                    -0.045885
     27 S                     0.080880
     28 C                    -0.245839
     29 C                    -0.050615
     30 C                    -0.019475
     31 C                     0.402814
     32 C                    -0.138682
     33 S                     0.034368
     34 C                     0.462813
     35 O                    -0.452749
     36 O                    -0.298030
     37 F                    -0.218145
     38 C                    -0.055140
     39 H                     0.116704
     40 H                     0.084473
     41 H                     0.084276
     42 H                     0.217788
  ----------------------------------------
  Sum of atomic charges =     0.000000

                    Cartesian Multipole Moments
 -----------------------------------------------------------------
    Charge (ESU x 10^10)
                 0.0000
    Dipole Moment (Debye)
         X       0.2515      Y       1.0299      Z       3.1733
       Tot       3.3458
    Quadrupole Moments (Debye-Ang)
        XX    -200.6108     XY      -1.4385     YY    -156.0758
        XZ      -5.7505     YZ      -9.5763     ZZ    -182.6591

 Total job time:  299.59s(wall), 9460.47s(cpu)
        *  Thank you very much for using Q-Chem.  Have a nice day.  *
