 Q-Chem 5.4, Q-Chem, Inc., Pleasanton, CA (2021)
 Q-Chem 5.4.0 for Intel X86 EM64T Linux

User input:
--------------------------------------------------------------
$molecule
0 1
C	-0.136647	-8.519741	0.235306
C	0.221346	-7.635967	-0.772334
S	-0.650746	-7.651740	1.702286
C	0.090779	-6.261894	-0.408807
H	0.573754	-7.954738	-1.761423
C	-0.397735	-6.079985	0.932876
C	-0.568166	-4.798382	1.479069
C	0.418347	-5.153542	-1.241204
C	0.251852	-3.869626	-0.693206
C	-0.239872	-3.688927	0.648921
O	0.842486	-5.481075	-2.493437
O	-0.993092	-4.479871	2.737331
C	-1.884752	-5.356026	3.416110
H	-2.273124	-4.790496	4.284447
H	-1.373310	-6.268513	3.793352
H	-2.734702	-5.658187	2.766716
C	1.588030	-4.546999	-3.264581
H	1.974995	-5.107564	-4.136519
H	2.443843	-4.131473	-2.690439
H	0.955140	-3.712085	-3.636177
C	-0.367068	-2.314326	1.009848
S	0.517386	-2.295487	-1.459936
C	-0.000000	-1.435180	-0.000000
H	-0.721689	-1.993211	1.997308
H	-0.132444	-9.615985	0.230945
C	0.000000	0.000000	0.000000
S	0.690437	0.576430	1.510732
C	1.896512	1.589852	0.727629
C	0.695720	0.583817	-1.064665
C	1.758621	1.477674	-0.678287
C	0.645928	0.539878	-2.486150
C	1.614763	1.352997	-3.106916
S	2.568261	2.157430	-1.965735
C	1.812707	1.512991	-4.559972
O	1.099523	0.910662	-5.350277
O	2.797769	2.335330	-5.004375
F	-0.205024	-0.179266	-3.246290
C	3.079074	2.558124	-6.334976
H	3.925910	3.267919	-6.370268
H	2.208109	2.990367	-6.875609
H	3.358147	1.618843	-6.861878
H	2.601331	2.181180	1.321510
$end

$rem
JOBTYPE		SP
EXCHANGE	HF
CORRELATION	pRIMP2
BASIS		cc-pvtz
METHOD		rimp2
AUX_BASIS	rimp2-cc-pvtz
SOLVENT_METHOD	PCM
PURECART	11111
SYMMETRY	false
MEM_TOTAL	110000
SCF_CONVERGENCE = 6
THRESH=10
GUI = 2
$end

$solvent
dielectric 4.90
$end
--------------------------------------------------------------

             Standard Nuclear Orientation (Angstroms)
    I     Atom           X                Y                Z
 ----------------------------------------------------------------
    1      C      -0.1366470000    -8.5197410000     0.2353060000
    2      C       0.2213460000    -7.6359670000    -0.7723340000
    3      S      -0.6507460000    -7.6517400000     1.7022860000
    4      C       0.0907790000    -6.2618940000    -0.4088070000
    5      H       0.5737540000    -7.9547380000    -1.7614230000
    6      C      -0.3977350000    -6.0799850000     0.9328760000
    7      C      -0.5681660000    -4.7983820000     1.4790690000
    8      C       0.4183470000    -5.1535420000    -1.2412040000
    9      C       0.2518520000    -3.8696260000    -0.6932060000
   10      C      -0.2398720000    -3.6889270000     0.6489210000
   11      O       0.8424860000    -5.4810750000    -2.4934370000
   12      O      -0.9930920000    -4.4798710000     2.7373310000
   13      C      -1.8847520000    -5.3560260000     3.4161100000
   14      H      -2.2731240000    -4.7904960000     4.2844470000
   15      H      -1.3733100000    -6.2685130000     3.7933520000
   16      H      -2.7347020000    -5.6581870000     2.7667160000
   17      C       1.5880300000    -4.5469990000    -3.2645810000
   18      H       1.9749950000    -5.1075640000    -4.1365190000
   19      H       2.4438430000    -4.1314730000    -2.6904390000
   20      H       0.9551400000    -3.7120850000    -3.6361770000
   21      C      -0.3670680000    -2.3143260000     1.0098480000
   22      S       0.5173860000    -2.2954870000    -1.4599360000
   23      C       0.0000000000    -1.4351800000     0.0000000000
   24      H      -0.7216890000    -1.9932110000     1.9973080000
   25      H      -0.1324440000    -9.6159850000     0.2309450000
   26      C       0.0000000000     0.0000000000     0.0000000000
   27      S       0.6904370000     0.5764300000     1.5107320000
   28      C       1.8965120000     1.5898520000     0.7276290000
   29      C       0.6957200000     0.5838170000    -1.0646650000
   30      C       1.7586210000     1.4776740000    -0.6782870000
   31      C       0.6459280000     0.5398780000    -2.4861500000
   32      C       1.6147630000     1.3529970000    -3.1069160000
   33      S       2.5682610000     2.1574300000    -1.9657350000
   34      C       1.8127070000     1.5129910000    -4.5599720000
   35      O       1.0995230000     0.9106620000    -5.3502770000
   36      O       2.7977690000     2.3353300000    -5.0043750000
   37      F      -0.2050240000    -0.1792660000    -3.2462900000
   38      C       3.0790740000     2.5581240000    -6.3349760000
   39      H       3.9259100000     3.2679190000    -6.3702680000
   40      H       2.2081090000     2.9903670000    -6.8756090000
   41      H       3.3581470000     1.6188430000    -6.8618780000
   42      H       2.6013310000     2.1811800000     1.3215100000
 ----------------------------------------------------------------

   11   -2754.2466247299      5.31e-07  Convergence criterion met
 Total energy in the final basis set =    -2754.2466247299
        RIMP2         total energy =     -2759.3180767439 a.u.

                    Orbital Energies (a.u.)
 --------------------------------------------------------------

 Alpha MOs
 -- Occupied --
-92.0167 -92.0053 -91.9834 -91.9828 -26.3353 -20.6161 -20.5901 -20.5872
-20.5569 -11.4163 -11.3785 -11.3195 -11.3164 -11.3110 -11.3098 -11.3017
-11.2958 -11.2938 -11.2907 -11.2884 -11.2852 -11.2839 -11.2806 -11.2785
-11.2745 -11.2575 -11.2520 -11.2473 -11.2391  -9.0156  -9.0089  -8.9846
 -8.9828  -6.6962  -6.6954  -6.6951  -6.6901  -6.6894  -6.6882  -6.6655
 -6.6648  -6.6638  -6.6637  -6.6631  -6.6623  -1.6500  -1.4763  -1.4140
 -1.4100  -1.3724  -1.2434  -1.1921  -1.1692  -1.1442  -1.0847  -1.0520
 -1.0469  -1.0339  -0.9990  -0.9916  -0.9761  -0.9573  -0.9477  -0.9393
 -0.8923  -0.8761  -0.8450  -0.8096  -0.7958  -0.7861  -0.7768  -0.7623
 -0.7544  -0.7296  -0.7221  -0.7170  -0.6982  -0.6916  -0.6822  -0.6789
 -0.6777  -0.6632  -0.6563  -0.6498  -0.6254  -0.6167  -0.6145  -0.6115
 -0.6075  -0.6020  -0.5830  -0.5722  -0.5661  -0.5596  -0.5565  -0.5509
 -0.5334  -0.5266  -0.5217  -0.5175  -0.5127  -0.5064  -0.5038  -0.4946
 -0.4889  -0.4827  -0.4758  -0.4671  -0.4645  -0.4628  -0.4550  -0.4210
 -0.3899  -0.3842  -0.3616  -0.3478  -0.3227  -0.2874  -0.2424

          Ground-State Mulliken Net Atomic Charges

     Atom                 Charge (a.u.)
  ----------------------------------------
      1 C                    -0.199243
      2 C                    -0.252860
      3 S                    -0.028992
      4 C                    -0.026378
      5 H                     0.195278
      6 C                    -0.024820
      7 C                     0.226152
      8 C                     0.244925
      9 C                    -0.048583
     10 C                    -0.001209
     11 O                    -0.333259
     12 O                    -0.341906
     13 C                    -0.085369
     14 H                     0.120806
     15 H                     0.089922
     16 H                     0.092955
     17 C                    -0.089430
     18 H                     0.125340
     19 H                     0.093153
     20 H                     0.091646
     21 C                    -0.297794
     22 S                    -0.030466
     23 C                     0.029303
     24 H                     0.184166
     25 H                     0.204579
     26 C                    -0.086430
     27 S                     0.131300
     28 C                    -0.165178
     29 C                    -0.034508
     30 C                    -0.032060
     31 C                     0.323430
     32 C                    -0.114874
     33 S                     0.071819
     34 C                     0.458494
     35 O                    -0.439822
     36 O                    -0.296756
     37 F                    -0.208666
     38 C                    -0.054493
     39 H                     0.117600
     40 H                     0.085767
     41 H                     0.085394
     42 H                     0.221071
  ----------------------------------------
  Sum of atomic charges =     0.000000

                    Cartesian Multipole Moments
 -----------------------------------------------------------------
    Charge (ESU x 10^10)
                 0.0000
    Dipole Moment (Debye)
         X       4.1778      Y       3.4532      Z       2.0699
       Tot       5.8020
    Quadrupole Moments (Debye-Ang)
        XX    -182.4491     XY      10.9038     YY    -178.1585
        XZ     -20.7429     YZ      -5.9707     ZZ    -185.6332

 Total job time:  306.21s(wall), 9890.03s(cpu)
        *  Thank you very much for using Q-Chem.  Have a nice day.  *
