 Q-Chem 5.4, Q-Chem, Inc., Pleasanton, CA (2021)
 Q-Chem 5.4.0 for Intel X86 EM64T Linux

User input:
--------------------------------------------------------------
$molecule
0 1
C	0.235993	-8.519741	-0.135457
C	-0.577858	-7.635967	0.558188
S	1.414705	-7.651740	-1.148850
C	-0.283020	-6.261894	0.308648
H	-1.377597	-7.954738	1.238560
C	0.810887	-6.079985	-0.609026
C	1.231581	-4.798382	-0.996828
C	-0.982901	-5.153542	0.865740
C	-0.564713	-3.869626	0.474408
C	0.532196	-3.688927	-0.442046
O	-1.976332	-5.481075	1.738137
O	2.228709	-4.479871	-1.874052
C	3.340298	-5.356026	-2.016062
H	4.110807	-4.790496	-2.573877
H	3.085998	-6.268513	-2.598484
H	3.751679	-5.658187	-1.028695
C	-3.007565	-4.546999	2.033195
H	-3.778655	-5.107564	2.594833
H	-3.461650	-4.131473	1.108067
H	-2.645264	-3.712085	2.671451
C	0.822814	-2.314326	-0.691020
S	-1.178037	-2.295487	1.005649
C	0.000000	-1.435180	0.000000
H	1.623656	-1.993211	-1.368875
H	0.230172	-9.615985	-0.133782
C	0.000000	0.000000	0.000000
S	0.080615	0.895811	1.510732
C	0.216842	2.465231	0.727629
C	0.079127	0.904769	-1.064665
C	0.198659	2.288406	-0.678287
C	0.074988	0.838492	-2.486150
C	0.185097	2.098524	-3.106916
S	0.290501	3.341568	-1.965735
C	0.211932	2.351623	-4.559972
O	0.133545	1.421416	-5.350277
O	0.326994	3.629649	-5.004375
F	-0.018214	-0.271734	-3.246290
C	0.368367	3.986101	-6.334976
H	0.465270	5.086806	-6.370268
H	-0.553140	3.675878	-6.875609
H	1.229874	3.519263	-6.861878
H	0.297091	3.381746	1.321510
$end

$rem
JOBTYPE		SP
EXCHANGE	HF
CORRELATION	pRIMP2
BASIS		cc-pvtz
METHOD		rimp2
AUX_BASIS	rimp2-cc-pvtz
SOLVENT_METHOD	PCM
PURECART	11111
SYMMETRY	false
MEM_TOTAL	110000
SCF_CONVERGENCE = 6
THRESH=10
GUI = 2
$end

$solvent
dielectric 4.90
$end
--------------------------------------------------------------

             Standard Nuclear Orientation (Angstroms)
    I     Atom           X                Y                Z
 ----------------------------------------------------------------
    1      C       0.2359930000    -8.5197410000    -0.1354570000
    2      C      -0.5778580000    -7.6359670000     0.5581880000
    3      S       1.4147050000    -7.6517400000    -1.1488500000
    4      C      -0.2830200000    -6.2618940000     0.3086480000
    5      H      -1.3775970000    -7.9547380000     1.2385600000
    6      C       0.8108870000    -6.0799850000    -0.6090260000
    7      C       1.2315810000    -4.7983820000    -0.9968280000
    8      C      -0.9829010000    -5.1535420000     0.8657400000
    9      C      -0.5647130000    -3.8696260000     0.4744080000
   10      C       0.5321960000    -3.6889270000    -0.4420460000
   11      O      -1.9763320000    -5.4810750000     1.7381370000
   12      O       2.2287090000    -4.4798710000    -1.8740520000
   13      C       3.3402980000    -5.3560260000    -2.0160620000
   14      H       4.1108070000    -4.7904960000    -2.5738770000
   15      H       3.0859980000    -6.2685130000    -2.5984840000
   16      H       3.7516790000    -5.6581870000    -1.0286950000
   17      C      -3.0075650000    -4.5469990000     2.0331950000
   18      H      -3.7786550000    -5.1075640000     2.5948330000
   19      H      -3.4616500000    -4.1314730000     1.1080670000
   20      H      -2.6452640000    -3.7120850000     2.6714510000
   21      C       0.8228140000    -2.3143260000    -0.6910200000
   22      S      -1.1780370000    -2.2954870000     1.0056490000
   23      C       0.0000000000    -1.4351800000     0.0000000000
   24      H       1.6236560000    -1.9932110000    -1.3688750000
   25      H       0.2301720000    -9.6159850000    -0.1337820000
   26      C       0.0000000000     0.0000000000     0.0000000000
   27      S       0.0806150000     0.8958110000     1.5107320000
   28      C       0.2168420000     2.4652310000     0.7276290000
   29      C       0.0791270000     0.9047690000    -1.0646650000
   30      C       0.1986590000     2.2884060000    -0.6782870000
   31      C       0.0749880000     0.8384920000    -2.4861500000
   32      C       0.1850970000     2.0985240000    -3.1069160000
   33      S       0.2905010000     3.3415680000    -1.9657350000
   34      C       0.2119320000     2.3516230000    -4.5599720000
   35      O       0.1335450000     1.4214160000    -5.3502770000
   36      O       0.3269940000     3.6296490000    -5.0043750000
   37      F      -0.0182140000    -0.2717340000    -3.2462900000
   38      C       0.3683670000     3.9861010000    -6.3349760000
   39      H       0.4652700000     5.0868060000    -6.3702680000
   40      H      -0.5531400000     3.6758780000    -6.8756090000
   41      H       1.2298740000     3.5192630000    -6.8618780000
   42      H       0.2970910000     3.3817460000     1.3215100000
 ----------------------------------------------------------------

   10   -2754.2976445848      7.96e-07  Convergence criterion met
 Total energy in the final basis set =    -2754.2976445848
        RIMP2         total energy =     -2759.3504141011 a.u.

                    Orbital Energies (a.u.)
 --------------------------------------------------------------

 Alpha MOs
 -- Occupied --
-92.0160 -91.9943 -91.9912 -91.9868 -26.3339 -20.6117 -20.5929 -20.5918
-20.5494 -11.4098 -11.3774 -11.3199 -11.3192 -11.3119 -11.2965 -11.2962
-11.2951 -11.2929 -11.2882 -11.2876 -11.2875 -11.2860 -11.2846 -11.2819
-11.2806 -11.2620 -11.2601 -11.2597 -11.2503  -9.0143  -8.9983  -8.9916
 -8.9868  -6.6950  -6.6944  -6.6939  -6.6796  -6.6789  -6.6776  -6.6726
 -6.6719  -6.6709  -6.6677  -6.6671  -6.6662  -1.6468  -1.4714  -1.4170
 -1.4146  -1.3666  -1.2331  -1.1969  -1.1690  -1.1420  -1.0846  -1.0528
 -1.0474  -1.0274  -1.0032  -0.9937  -0.9714  -0.9616  -0.9508  -0.9385
 -0.8967  -0.8690  -0.8512  -0.8038  -0.7931  -0.7882  -0.7728  -0.7699
 -0.7583  -0.7331  -0.7184  -0.7150  -0.7019  -0.6886  -0.6836  -0.6781
 -0.6709  -0.6612  -0.6594  -0.6529  -0.6302  -0.6204  -0.6170  -0.6060
 -0.6017  -0.5939  -0.5853  -0.5764  -0.5709  -0.5642  -0.5530  -0.5504
 -0.5366  -0.5262  -0.5254  -0.5168  -0.5150  -0.5081  -0.5030  -0.4967
 -0.4894  -0.4838  -0.4767  -0.4694  -0.4616  -0.4610  -0.4600  -0.4157
 -0.3978  -0.3872  -0.3588  -0.3496  -0.3213  -0.2861  -0.2542

          Ground-State Mulliken Net Atomic Charges

     Atom                 Charge (a.u.)
  ----------------------------------------
      1 C                    -0.186753
      2 C                    -0.254273
      3 S                    -0.020264
      4 C                    -0.013367
      5 H                     0.196540
      6 C                    -0.028515
      7 C                     0.245979
      8 C                     0.239854
      9 C                    -0.045760
     10 C                    -0.032089
     11 O                    -0.333194
     12 O                    -0.338746
     13 C                    -0.085907
     14 H                     0.123153
     15 H                     0.091431
     16 H                     0.093800
     17 C                    -0.086988
     18 H                     0.125292
     19 H                     0.095419
     20 H                     0.089362
     21 C                    -0.207482
     22 S                    -0.011439
     23 C                    -0.018469
     24 H                     0.197912
     25 H                     0.206752
     26 C                    -0.036905
     27 S                     0.110747
     28 C                    -0.243247
     29 C                    -0.092034
     30 C                    -0.008291
     31 C                     0.397432
     32 C                    -0.152353
     33 S                     0.036021
     34 C                     0.461274
     35 O                    -0.451123
     36 O                    -0.298022
     37 F                    -0.211621
     38 C                    -0.055103
     39 H                     0.116499
     40 H                     0.084613
     41 H                     0.084348
     42 H                     0.215517
  ----------------------------------------
  Sum of atomic charges =     0.000000

                    Cartesian Multipole Moments
 -----------------------------------------------------------------
    Charge (ESU x 10^10)
                 0.0000
    Dipole Moment (Debye)
         X       0.4731      Y       1.2743      Z       3.4727
       Tot       3.7292
    Quadrupole Moments (Debye-Ang)
        XX    -181.3627     XY       0.0263     YY    -157.5104
        XZ     -11.2669     YZ     -11.2142     ZZ    -201.7940

 Total job time:  317.69s(wall), 9228.49s(cpu)
        *  Thank you very much for using Q-Chem.  Have a nice day.  *
