 Q-Chem 5.4, Q-Chem, Inc., Pleasanton, CA (2021)
 Q-Chem 5.4.0 for Intel X86 EM64T Linux

User input:
--------------------------------------------------------------
$molecule
0 1
C	-0.000687	-8.519741	0.272104
C	-0.194476	-7.635967	-0.779533
S	0.287581	-7.651740	1.799596
C	-0.125787	-6.261894	-0.399427
H	-0.383826	-7.954738	-1.812314
C	0.121989	-6.079985	1.006762
C	0.247488	-4.798382	1.564994
C	-0.258303	-5.153542	-1.284087
C	-0.128493	-3.869626	-0.726260
C	0.116725	-3.688927	0.681918
O	-0.517104	-5.481075	-2.580622
O	0.508622	-4.479871	2.867144
C	0.075811	-5.356026	3.900814
H	0.173640	-4.790496	4.847002
H	0.707354	-6.268513	3.971794
H	-0.984963	-5.658187	3.763397
C	-0.257016	-4.546999	-3.621225
H	-0.357864	-5.107564	-4.569828
H	0.771211	-4.131473	-3.551910
H	-0.990913	-3.712085	-3.626592
C	0.187034	-2.314326	1.058088
S	-0.281899	-2.295487	-1.523035
C	0.000000	-1.435180	0.000000
H	0.373653	-1.993211	2.090565
H	0.000773	-9.615985	0.266226
C	0.000000	0.000000	0.000000
S	0.780044	0.447780	1.510732
C	2.143774	1.236372	0.727629
C	0.786529	0.454137	-1.064665
C	1.988499	1.149844	-0.678287
C	0.729864	0.419512	-2.486150
C	1.825177	1.052041	-3.106916
S	2.903877	1.678680	-1.965735
C	2.047896	1.175232	-4.559972
O	1.240953	0.705897	-5.350277
O	3.160791	1.814024	-5.004375
F	-0.233039	-0.140940	-3.246290
C	3.476510	1.984585	-6.334976
H	4.433735	2.536545	-6.370268
H	2.693835	2.561503	-6.875609
H	3.588239	1.011113	-6.861878
H	2.940569	1.696327	1.321510
$end

$rem
JOBTYPE		SP
EXCHANGE	HF
CORRELATION	pRIMP2
BASIS		cc-pvtz
METHOD		rimp2
AUX_BASIS	rimp2-cc-pvtz
SOLVENT_METHOD	PCM
PURECART	11111
SYMMETRY	false
MEM_TOTAL	110000
SCF_CONVERGENCE = 6
THRESH=10
GUI = 2
$end

$solvent
dielectric 4.90
$end
--------------------------------------------------------------

             Standard Nuclear Orientation (Angstroms)
    I     Atom           X                Y                Z
 ----------------------------------------------------------------
    1      C      -0.0006870000    -8.5197410000     0.2721040000
    2      C      -0.1944760000    -7.6359670000    -0.7795330000
    3      S       0.2875810000    -7.6517400000     1.7995960000
    4      C      -0.1257870000    -6.2618940000    -0.3994270000
    5      H      -0.3838260000    -7.9547380000    -1.8123140000
    6      C       0.1219890000    -6.0799850000     1.0067620000
    7      C       0.2474880000    -4.7983820000     1.5649940000
    8      C      -0.2583030000    -5.1535420000    -1.2840870000
    9      C      -0.1284930000    -3.8696260000    -0.7262600000
   10      C       0.1167250000    -3.6889270000     0.6819180000
   11      O      -0.5171040000    -5.4810750000    -2.5806220000
   12      O       0.5086220000    -4.4798710000     2.8671440000
   13      C       0.0758110000    -5.3560260000     3.9008140000
   14      H       0.1736400000    -4.7904960000     4.8470020000
   15      H       0.7073540000    -6.2685130000     3.9717940000
   16      H      -0.9849630000    -5.6581870000     3.7633970000
   17      C      -0.2570160000    -4.5469990000    -3.6212250000
   18      H      -0.3578640000    -5.1075640000    -4.5698280000
   19      H       0.7712110000    -4.1314730000    -3.5519100000
   20      H      -0.9909130000    -3.7120850000    -3.6265920000
   21      C       0.1870340000    -2.3143260000     1.0580880000
   22      S      -0.2818990000    -2.2954870000    -1.5230350000
   23      C       0.0000000000    -1.4351800000     0.0000000000
   24      H       0.3736530000    -1.9932110000     2.0905650000
   25      H       0.0007730000    -9.6159850000     0.2662260000
   26      C       0.0000000000     0.0000000000     0.0000000000
   27      S       0.7800440000     0.4477800000     1.5107320000
   28      C       2.1437740000     1.2363720000     0.7276290000
   29      C       0.7865290000     0.4541370000    -1.0646650000
   30      C       1.9884990000     1.1498440000    -0.6782870000
   31      C       0.7298640000     0.4195120000    -2.4861500000
   32      C       1.8251770000     1.0520410000    -3.1069160000
   33      S       2.9038770000     1.6786800000    -1.9657350000
   34      C       2.0478960000     1.1752320000    -4.5599720000
   35      O       1.2409530000     0.7058970000    -5.3502770000
   36      O       3.1607910000     1.8140240000    -5.0043750000
   37      F      -0.2330390000    -0.1409400000    -3.2462900000
   38      C       3.4765100000     1.9845850000    -6.3349760000
   39      H       4.4337350000     2.5365450000    -6.3702680000
   40      H       2.6938350000     2.5615030000    -6.8756090000
   41      H       3.5882390000     1.0111130000    -6.8618780000
   42      H       2.9405690000     1.6963270000     1.3215100000
 ----------------------------------------------------------------

   11   -2754.2251356334      6.86e-07  Convergence criterion met
 Total energy in the final basis set =    -2754.2251356334
        RIMP2         total energy =     -2759.2994481215 a.u.

                    Orbital Energies (a.u.)
 --------------------------------------------------------------

 Alpha MOs
 -- Occupied --
-92.0154 -92.0096 -91.9816 -91.9784 -26.3365 -20.6176 -20.5889 -20.5855
-20.5597 -11.4187 -11.3783 -11.3315 -11.3168 -11.3149 -11.3067 -11.3037
-11.3011 -11.2977 -11.2915 -11.2839 -11.2831 -11.2793 -11.2778 -11.2747
-11.2725 -11.2551 -11.2494 -11.2462 -11.2329  -9.0149  -9.0130  -8.9816
 -8.9799  -6.6955  -6.6946  -6.6945  -6.6941  -6.6935  -6.6923  -6.6626
 -6.6619  -6.6611  -6.6608  -6.6601  -6.6591  -1.6517  -1.4780  -1.4127
 -1.4084  -1.3745  -1.2476  -1.1913  -1.1708  -1.1439  -1.0854  -1.0531
 -1.0454  -1.0361  -0.9978  -0.9917  -0.9777  -0.9556  -0.9464  -0.9390
 -0.8908  -0.8790  -0.8430  -0.8116  -0.7976  -0.7870  -0.7766  -0.7609
 -0.7534  -0.7282  -0.7235  -0.7177  -0.6984  -0.6918  -0.6835  -0.6812
 -0.6776  -0.6639  -0.6551  -0.6487  -0.6256  -0.6155  -0.6141  -0.6135
 -0.6085  -0.6052  -0.5861  -0.5700  -0.5654  -0.5616  -0.5536  -0.5505
 -0.5356  -0.5243  -0.5188  -0.5181  -0.5111  -0.5073  -0.5040  -0.4928
 -0.4868  -0.4819  -0.4720  -0.4685  -0.4656  -0.4598  -0.4485  -0.4259
 -0.3867  -0.3813  -0.3583  -0.3501  -0.3232  -0.2878  -0.2427

          Ground-State Mulliken Net Atomic Charges

     Atom                 Charge (a.u.)
  ----------------------------------------
      1 C                    -0.203232
      2 C                    -0.252144
      3 S                    -0.031552
      4 C                    -0.026632
      5 H                     0.194893
      6 C                    -0.020375
      7 C                     0.221274
      8 C                     0.245164
      9 C                    -0.049146
     10 C                    -0.000410
     11 O                    -0.333887
     12 O                    -0.343530
     13 C                    -0.085546
     14 H                     0.120105
     15 H                     0.089811
     16 H                     0.092375
     17 C                    -0.087238
     18 H                     0.124292
     19 H                     0.093038
     20 H                     0.090985
     21 C                    -0.308751
     22 S                    -0.046647
     23 C                     0.015025
     24 H                     0.180941
     25 H                     0.203827
     26 C                    -0.139056
     27 S                     0.121767
     28 C                    -0.127448
     29 C                     0.026008
     30 C                    -0.048403
     31 C                     0.321390
     32 C                    -0.095442
     33 S                     0.082449
     34 C                     0.456583
     35 O                    -0.435494
     36 O                    -0.296066
     37 F                    -0.208715
     38 C                    -0.054595
     39 H                     0.118018
     40 H                     0.086173
     41 H                     0.085968
     42 H                     0.224223
  ----------------------------------------
  Sum of atomic charges =     0.000000

                    Cartesian Multipole Moments
 -----------------------------------------------------------------
    Charge (ESU x 10^10)
                -0.0000
    Dipole Moment (Debye)
         X       5.2158      Y       3.8428      Z       1.7070
       Tot       6.6996
    Quadrupole Moments (Debye-Ang)
        XX    -184.9595     XY      11.4558     YY    -185.5539
        XZ     -13.0879     YZ      -4.8682     ZZ    -177.0142

 Total job time:  319.38s(wall), 10219.56s(cpu)
        *  Thank you very much for using Q-Chem.  Have a nice day.  *
