 Q-Chem 5.4, Q-Chem, Inc., Pleasanton, CA (2021)
 Q-Chem 5.4.0 for Intel X86 EM64T Linux

User input:
--------------------------------------------------------------
$molecule
0 1
C	0.000687	-8.519741	-0.272104
C	0.194476	-7.635967	0.779533
S	-0.287581	-7.651740	-1.799596
C	0.125787	-6.261894	0.399427
H	0.383826	-7.954738	1.812314
C	-0.121989	-6.079985	-1.006762
C	-0.247488	-4.798382	-1.564994
C	0.258303	-5.153542	1.284087
C	0.128493	-3.869626	0.726260
C	-0.116725	-3.688927	-0.681918
O	0.517104	-5.481075	2.580622
O	-0.508622	-4.479871	-2.867144
C	-0.075811	-5.356026	-3.900814
H	-0.173640	-4.790496	-4.847002
H	-0.707354	-6.268513	-3.971794
H	0.984963	-5.658187	-3.763397
C	0.257016	-4.546999	3.621225
H	0.357864	-5.107564	4.569828
H	-0.771211	-4.131473	3.551910
H	0.990913	-3.712085	3.626592
C	-0.187034	-2.314326	-1.058088
S	0.281899	-2.295487	1.523035
C	0.000000	-1.435180	0.000000
H	-0.373653	-1.993211	-2.090565
H	-0.000773	-9.615985	-0.266226
C	0.000000	0.000000	0.000000
S	0.309721	0.844422	1.510732
C	0.847502	2.325108	0.727629
C	0.310602	0.853460	-1.064665
C	0.784173	2.159014	-0.678287
C	0.289451	0.790512	-2.486150
C	0.721927	1.979112	-3.106916
S	1.145464	3.152519	-1.965735
C	0.813355	2.216642	-4.559972
O	0.496884	1.338418	-5.350277
O	1.255274	3.421340	-5.004375
F	-0.087923	-0.257761	-3.246290
C	1.387494	3.754937	-6.334976
H	1.765978	4.793056	-6.370268
H	0.417095	3.693789	-6.875609
H	2.098820	3.081033	-6.861878
H	1.162229	3.189623	1.321510
$end

$rem
JOBTYPE		SP
EXCHANGE	HF
CORRELATION	pRIMP2
BASIS		cc-pvtz
METHOD		rimp2
AUX_BASIS	rimp2-cc-pvtz
SOLVENT_METHOD	PCM
PURECART	11111
SYMMETRY	false
MEM_TOTAL	110000
SCF_CONVERGENCE = 6
THRESH=10
GUI = 2
$end

$solvent
dielectric 4.90
$end
--------------------------------------------------------------

             Standard Nuclear Orientation (Angstroms)
    I     Atom           X                Y                Z
 ----------------------------------------------------------------
    1      C       0.0006870000    -8.5197410000    -0.2721040000
    2      C       0.1944760000    -7.6359670000     0.7795330000
    3      S      -0.2875810000    -7.6517400000    -1.7995960000
    4      C       0.1257870000    -6.2618940000     0.3994270000
    5      H       0.3838260000    -7.9547380000     1.8123140000
    6      C      -0.1219890000    -6.0799850000    -1.0067620000
    7      C      -0.2474880000    -4.7983820000    -1.5649940000
    8      C       0.2583030000    -5.1535420000     1.2840870000
    9      C       0.1284930000    -3.8696260000     0.7262600000
   10      C      -0.1167250000    -3.6889270000    -0.6819180000
   11      O       0.5171040000    -5.4810750000     2.5806220000
   12      O      -0.5086220000    -4.4798710000    -2.8671440000
   13      C      -0.0758110000    -5.3560260000    -3.9008140000
   14      H      -0.1736400000    -4.7904960000    -4.8470020000
   15      H      -0.7073540000    -6.2685130000    -3.9717940000
   16      H       0.9849630000    -5.6581870000    -3.7633970000
   17      C       0.2570160000    -4.5469990000     3.6212250000
   18      H       0.3578640000    -5.1075640000     4.5698280000
   19      H      -0.7712110000    -4.1314730000     3.5519100000
   20      H       0.9909130000    -3.7120850000     3.6265920000
   21      C      -0.1870340000    -2.3143260000    -1.0580880000
   22      S       0.2818990000    -2.2954870000     1.5230350000
   23      C       0.0000000000    -1.4351800000     0.0000000000
   24      H      -0.3736530000    -1.9932110000    -2.0905650000
   25      H      -0.0007730000    -9.6159850000    -0.2662260000
   26      C       0.0000000000     0.0000000000     0.0000000000
   27      S       0.3097210000     0.8444220000     1.5107320000
   28      C       0.8475020000     2.3251080000     0.7276290000
   29      C       0.3106020000     0.8534600000    -1.0646650000
   30      C       0.7841730000     2.1590140000    -0.6782870000
   31      C       0.2894510000     0.7905120000    -2.4861500000
   32      C       0.7219270000     1.9791120000    -3.1069160000
   33      S       1.1454640000     3.1525190000    -1.9657350000
   34      C       0.8133550000     2.2166420000    -4.5599720000
   35      O       0.4968840000     1.3384180000    -5.3502770000
   36      O       1.2552740000     3.4213400000    -5.0043750000
   37      F      -0.0879230000    -0.2577610000    -3.2462900000
   38      C       1.3874940000     3.7549370000    -6.3349760000
   39      H       1.7659780000     4.7930560000    -6.3702680000
   40      H       0.4170950000     3.6937890000    -6.8756090000
   41      H       2.0988200000     3.0810330000    -6.8618780000
   42      H       1.1622290000     3.1896230000     1.3215100000
 ----------------------------------------------------------------

   10   -2754.2891839487      8.14e-07  Convergence criterion met
 Total energy in the final basis set =    -2754.2891839487
        RIMP2         total energy =     -2759.3472119705 a.u.

                    Orbital Energies (a.u.)
 --------------------------------------------------------------

 Alpha MOs
 -- Occupied --
-92.0162 -91.9963 -91.9905 -91.9865 -26.3384 -20.6122 -20.5928 -20.5909
-20.5503 -11.4107 -11.3788 -11.3197 -11.3182 -11.3114 -11.2983 -11.2982
-11.2963 -11.2951 -11.2886 -11.2876 -11.2869 -11.2851 -11.2842 -11.2826
-11.2800 -11.2614 -11.2595 -11.2545 -11.2501  -9.0149  -9.0003  -8.9911
 -8.9864  -6.6956  -6.6950  -6.6945  -6.6815  -6.6809  -6.6795  -6.6721
 -6.6714  -6.6704  -6.6674  -6.6668  -6.6659  -1.6528  -1.4720  -1.4169
 -1.4137  -1.3674  -1.2349  -1.1967  -1.1697  -1.1429  -1.0846  -1.0525
 -1.0489  -1.0288  -1.0033  -0.9938  -0.9730  -0.9608  -0.9505  -0.9384
 -0.8968  -0.8704  -0.8514  -0.8070  -0.7968  -0.7887  -0.7721  -0.7700
 -0.7575  -0.7326  -0.7220  -0.7199  -0.7014  -0.6901  -0.6848  -0.6788
 -0.6729  -0.6623  -0.6593  -0.6522  -0.6290  -0.6198  -0.6155  -0.6068
 -0.6006  -0.5955  -0.5883  -0.5760  -0.5688  -0.5600  -0.5546  -0.5467
 -0.5370  -0.5279  -0.5228  -0.5202  -0.5174  -0.5096  -0.5056  -0.4962
 -0.4854  -0.4850  -0.4790  -0.4674  -0.4620  -0.4615  -0.4588  -0.4246
 -0.3983  -0.3854  -0.3595  -0.3507  -0.3255  -0.2850  -0.2466

          Ground-State Mulliken Net Atomic Charges

     Atom                 Charge (a.u.)
  ----------------------------------------
      1 C                    -0.187830
      2 C                    -0.255089
      3 S                    -0.020902
      4 C                    -0.013799
      5 H                     0.196303
      6 C                    -0.028804
      7 C                     0.250038
      8 C                     0.241866
      9 C                    -0.041070
     10 C                    -0.027277
     11 O                    -0.333194
     12 O                    -0.339731
     13 C                    -0.086288
     14 H                     0.124285
     15 H                     0.091265
     16 H                     0.093810
     17 C                    -0.088636
     18 H                     0.125979
     19 H                     0.094988
     20 H                     0.089617
     21 C                    -0.232230
     22 S                    -0.038572
     23 C                    -0.043071
     24 H                     0.211950
     25 H                     0.206624
     26 C                     0.016963
     27 S                     0.089727
     28 C                    -0.229980
     29 C                    -0.069387
     30 C                    -0.022008
     31 C                     0.371427
     32 C                    -0.134273
     33 S                     0.044539
     34 C                     0.457177
     35 O                    -0.450457
     36 O                    -0.297947
     37 F                    -0.214788
     38 C                    -0.054812
     39 H                     0.116746
     40 H                     0.084583
     41 H                     0.084411
     42 H                     0.217849
  ----------------------------------------
  Sum of atomic charges =     0.000000

                    Cartesian Multipole Moments
 -----------------------------------------------------------------
    Charge (ESU x 10^10)
                 0.0000
    Dipole Moment (Debye)
         X       1.5200      Y       1.4752      Z       3.1279
       Tot       3.7776
    Quadrupole Moments (Debye-Ang)
        XX    -199.9019     XY       3.8833     YY    -159.7712
        XZ      -5.2523     YZ      -9.2577     ZZ    -180.9978

 Total job time:  319.11s(wall), 10537.03s(cpu)
        *  Thank you very much for using Q-Chem.  Have a nice day.  *
