 Q-Chem 5.4, Q-Chem, Inc., Pleasanton, CA (2021)
 Q-Chem 5.4.0 for Intel X86 EM64T Linux

User input:
--------------------------------------------------------------
$molecule
0 1
C	0.135457	-8.519741	0.235993
C	-0.558188	-7.635967	-0.577858
S	1.148850	-7.651740	1.414705
C	-0.308648	-6.261894	-0.283020
H	-1.238560	-7.954738	-1.377597
C	0.609026	-6.079985	0.810887
C	0.996828	-4.798382	1.231581
C	-0.865740	-5.153542	-0.982901
C	-0.474408	-3.869626	-0.564713
C	0.442046	-3.688927	0.532196
O	-1.738137	-5.481075	-1.976332
O	1.874052	-4.479871	2.228709
C	2.016062	-5.356026	3.340298
H	2.573877	-4.790496	4.110807
H	2.598484	-6.268513	3.085998
H	1.028695	-5.658187	3.751679
C	-2.033195	-4.546999	-3.007565
H	-2.594833	-5.107564	-3.778655
H	-1.108067	-4.131473	-3.461650
H	-2.671451	-3.712085	-2.645264
C	0.691020	-2.314326	0.822814
S	-1.005649	-2.295487	-1.178037
C	0.000000	-1.435180	0.000000
H	1.368875	-1.993211	1.623656
H	0.133782	-9.615985	0.230172
C	0.000000	0.000000	0.000000
S	0.234946	0.868203	1.510732
C	0.641630	2.390125	0.727629
C	0.235036	0.877284	-1.064665
C	0.593019	2.219143	-0.678287
C	0.219452	0.812732	-2.486150
C	0.546689	2.034501	-3.106916
S	0.866345	3.240357	-1.965735
C	0.617067	2.279095	-4.559972
O	0.378342	1.376631	-5.350277
O	0.952308	3.517725	-5.004375
F	-0.065123	-0.264443	-3.246290
C	1.054950	3.861577	-6.334976
H	1.341516	4.928732	-6.370268
H	0.093573	3.716085	-6.875609
H	1.822303	3.252232	-6.861878
H	0.879812	3.278780	1.321510
$end

$rem
JOBTYPE		SP
EXCHANGE	HF
CORRELATION	pRIMP2
BASIS		cc-pvtz
METHOD		rimp2
AUX_BASIS	rimp2-cc-pvtz
SOLVENT_METHOD	PCM
PURECART	11111
SYMMETRY	false
MEM_TOTAL	110000
SCF_CONVERGENCE = 6
THRESH=10
GUI = 2
$end

$solvent
dielectric 4.90
$end
--------------------------------------------------------------

             Standard Nuclear Orientation (Angstroms)
    I     Atom           X                Y                Z
 ----------------------------------------------------------------
    1      C       0.1354570000    -8.5197410000     0.2359930000
    2      C      -0.5581880000    -7.6359670000    -0.5778580000
    3      S       1.1488500000    -7.6517400000     1.4147050000
    4      C      -0.3086480000    -6.2618940000    -0.2830200000
    5      H      -1.2385600000    -7.9547380000    -1.3775970000
    6      C       0.6090260000    -6.0799850000     0.8108870000
    7      C       0.9968280000    -4.7983820000     1.2315810000
    8      C      -0.8657400000    -5.1535420000    -0.9829010000
    9      C      -0.4744080000    -3.8696260000    -0.5647130000
   10      C       0.4420460000    -3.6889270000     0.5321960000
   11      O      -1.7381370000    -5.4810750000    -1.9763320000
   12      O       1.8740520000    -4.4798710000     2.2287090000
   13      C       2.0160620000    -5.3560260000     3.3402980000
   14      H       2.5738770000    -4.7904960000     4.1108070000
   15      H       2.5984840000    -6.2685130000     3.0859980000
   16      H       1.0286950000    -5.6581870000     3.7516790000
   17      C      -2.0331950000    -4.5469990000    -3.0075650000
   18      H      -2.5948330000    -5.1075640000    -3.7786550000
   19      H      -1.1080670000    -4.1314730000    -3.4616500000
   20      H      -2.6714510000    -3.7120850000    -2.6452640000
   21      C       0.6910200000    -2.3143260000     0.8228140000
   22      S      -1.0056490000    -2.2954870000    -1.1780370000
   23      C       0.0000000000    -1.4351800000     0.0000000000
   24      H       1.3688750000    -1.9932110000     1.6236560000
   25      H       0.1337820000    -9.6159850000     0.2301720000
   26      C       0.0000000000     0.0000000000     0.0000000000
   27      S       0.2349460000     0.8682030000     1.5107320000
   28      C       0.6416300000     2.3901250000     0.7276290000
   29      C       0.2350360000     0.8772840000    -1.0646650000
   30      C       0.5930190000     2.2191430000    -0.6782870000
   31      C       0.2194520000     0.8127320000    -2.4861500000
   32      C       0.5466890000     2.0345010000    -3.1069160000
   33      S       0.8663450000     3.2403570000    -1.9657350000
   34      C       0.6170670000     2.2790950000    -4.5599720000
   35      O       0.3783420000     1.3766310000    -5.3502770000
   36      O       0.9523080000     3.5177250000    -5.0043750000
   37      F      -0.0651230000    -0.2644430000    -3.2462900000
   38      C       1.0549500000     3.8615770000    -6.3349760000
   39      H       1.3415160000     4.9287320000    -6.3702680000
   40      H       0.0935730000     3.7160850000    -6.8756090000
   41      H       1.8223030000     3.2522320000    -6.8618780000
   42      H       0.8798120000     3.2787800000     1.3215100000
 ----------------------------------------------------------------

   10   -2754.2929868856      8.07e-07  Convergence criterion met
 Total energy in the final basis set =    -2754.2929868856
        RIMP2         total energy =     -2759.3485999781 a.u.

                    Orbital Energies (a.u.)
 --------------------------------------------------------------

 Alpha MOs
 -- Occupied --
-92.0163 -91.9951 -91.9874 -91.9863 -26.3339 -20.6120 -20.5918 -20.5916
-20.5499 -11.4102 -11.3776 -11.3186 -11.3182 -11.3110 -11.2972 -11.2972
-11.2967 -11.2943 -11.2885 -11.2864 -11.2859 -11.2859 -11.2838 -11.2830
-11.2798 -11.2612 -11.2590 -11.2582 -11.2498  -9.0145  -8.9991  -8.9880
 -8.9862  -6.6952  -6.6946  -6.6942  -6.6803  -6.6797  -6.6783  -6.6689
 -6.6682  -6.6673  -6.6672  -6.6666  -6.6657  -1.6477  -1.4717  -1.4158
 -1.4144  -1.3670  -1.2340  -1.1960  -1.1687  -1.1421  -1.0844  -1.0520
 -1.0478  -1.0283  -1.0021  -0.9934  -0.9719  -0.9607  -0.9500  -0.9384
 -0.8955  -0.8695  -0.8508  -0.8081  -0.7920  -0.7873  -0.7749  -0.7649
 -0.7580  -0.7324  -0.7187  -0.7156  -0.7006  -0.6885  -0.6834  -0.6784
 -0.6720  -0.6612  -0.6585  -0.6525  -0.6295  -0.6198  -0.6164  -0.6064
 -0.6014  -0.5953  -0.5876  -0.5731  -0.5695  -0.5675  -0.5563  -0.5524
 -0.5300  -0.5271  -0.5223  -0.5175  -0.5146  -0.5086  -0.5018  -0.4943
 -0.4879  -0.4840  -0.4786  -0.4664  -0.4616  -0.4609  -0.4598  -0.4184
 -0.3963  -0.3863  -0.3581  -0.3502  -0.3218  -0.2854  -0.2515

          Ground-State Mulliken Net Atomic Charges

     Atom                 Charge (a.u.)
  ----------------------------------------
      1 C                    -0.188084
      2 C                    -0.254028
      3 S                    -0.022785
      4 C                    -0.014058
      5 H                     0.196617
      6 C                    -0.029964
      7 C                     0.242742
      8 C                     0.242417
      9 C                    -0.046502
     10 C                    -0.030040
     11 O                    -0.333775
     12 O                    -0.340218
     13 C                    -0.085657
     14 H                     0.122396
     15 H                     0.091318
     16 H                     0.093988
     17 C                    -0.087475
     18 H                     0.124678
     19 H                     0.096185
     20 H                     0.089471
     21 C                    -0.235762
     22 S                    -0.001341
     23 C                    -0.013754
     24 H                     0.197868
     25 H                     0.206486
     26 C                    -0.016611
     27 S                     0.102306
     28 C                    -0.228820
     29 C                    -0.079978
     30 C                    -0.016976
     31 C                     0.375627
     32 C                    -0.143426
     33 S                     0.039773
     34 C                     0.458153
     35 O                    -0.450530
     36 O                    -0.297936
     37 F                    -0.208515
     38 C                    -0.054921
     39 H                     0.116576
     40 H                     0.084421
     41 H                     0.084466
     42 H                     0.215668
  ----------------------------------------
  Sum of atomic charges =     0.000000

                    Cartesian Multipole Moments
 -----------------------------------------------------------------
    Charge (ESU x 10^10)
                -0.0000
    Dipole Moment (Debye)
         X       0.6607      Y       1.6057      Z       3.1971
       Tot       3.6382
    Quadrupole Moments (Debye-Ang)
        XX    -195.7670     XY       4.9903     YY    -160.4510
        XZ       7.3905     YZ     -11.1505     ZZ    -186.1882

 Total job time:  297.49s(wall), 9341.83s(cpu)
        *  Thank you very much for using Q-Chem.  Have a nice day.  *
