 Q-Chem 5.4, Q-Chem, Inc., Pleasanton, CA (2021)
 Q-Chem 5.4.0 for Intel X86 EM64T Linux

User input:
--------------------------------------------------------------
$molecule
0 1
C	-0.255459	-8.519741	-0.093711
C	0.799036	-7.635967	0.083869
S	-1.789425	-7.651740	-0.345260
C	0.418360	-6.261894	0.018411
H	1.834294	-7.954738	0.259169
C	-0.987769	-6.079985	-0.229701
C	-1.555260	-4.798382	-0.302697
C	1.294992	-5.153542	0.196459
C	0.726408	-3.869626	0.127651
C	-0.680716	-3.688927	-0.123544
O	2.601852	-5.481075	0.396706
O	-2.868193	-4.479871	-0.502673
C	-3.691495	-5.356026	-1.262918
H	-4.614080	-4.790496	-1.494604
H	-3.974195	-6.268513	-0.693738
H	-3.199559	-5.658187	-2.212720
C	3.490743	-4.546999	0.997016
H	4.416630	-5.107564	1.226691
H	3.073934	-4.131473	1.939526
H	3.746794	-3.712085	0.309214
C	-1.058247	-2.314326	-0.186133
S	1.527599	-2.295487	0.256010
C	0.000000	-1.435180	0.000000
H	-2.092285	-1.993211	-0.363896
H	-0.250435	-9.615985	-0.090328
C	0.000000	0.000000	0.000000
S	0.309721	0.844422	1.510732
C	0.847502	2.325108	0.727629
C	0.310602	0.853460	-1.064665
C	0.784173	2.159014	-0.678287
C	0.289451	0.790512	-2.486150
C	0.721927	1.979112	-3.106916
S	1.145464	3.152519	-1.965735
C	0.813355	2.216642	-4.559972
O	0.496884	1.338418	-5.350277
O	1.255274	3.421340	-5.004375
F	-0.087923	-0.257761	-3.246290
C	1.387494	3.754937	-6.334976
H	1.765978	4.793056	-6.370268
H	0.417095	3.693789	-6.875609
H	2.098820	3.081033	-6.861878
H	1.162229	3.189623	1.321510
$end

$rem
JOBTYPE		SP
EXCHANGE	HF
CORRELATION	pRIMP2
BASIS		cc-pvtz
METHOD		rimp2
AUX_BASIS	rimp2-cc-pvtz
SOLVENT_METHOD	PCM
PURECART	11111
SYMMETRY	false
MEM_TOTAL	110000
SCF_CONVERGENCE = 6
THRESH=10
GUI = 2
$end

$solvent
dielectric 4.90
$end
--------------------------------------------------------------

             Standard Nuclear Orientation (Angstroms)
    I     Atom           X                Y                Z
 ----------------------------------------------------------------
    1      C      -0.2554590000    -8.5197410000    -0.0937110000
    2      C       0.7990360000    -7.6359670000     0.0838690000
    3      S      -1.7894250000    -7.6517400000    -0.3452600000
    4      C       0.4183600000    -6.2618940000     0.0184110000
    5      H       1.8342940000    -7.9547380000     0.2591690000
    6      C      -0.9877690000    -6.0799850000    -0.2297010000
    7      C      -1.5552600000    -4.7983820000    -0.3026970000
    8      C       1.2949920000    -5.1535420000     0.1964590000
    9      C       0.7264080000    -3.8696260000     0.1276510000
   10      C      -0.6807160000    -3.6889270000    -0.1235440000
   11      O       2.6018520000    -5.4810750000     0.3967060000
   12      O      -2.8681930000    -4.4798710000    -0.5026730000
   13      C      -3.6914950000    -5.3560260000    -1.2629180000
   14      H      -4.6140800000    -4.7904960000    -1.4946040000
   15      H      -3.9741950000    -6.2685130000    -0.6937380000
   16      H      -3.1995590000    -5.6581870000    -2.2127200000
   17      C       3.4907430000    -4.5469990000     0.9970160000
   18      H       4.4166300000    -5.1075640000     1.2266910000
   19      H       3.0739340000    -4.1314730000     1.9395260000
   20      H       3.7467940000    -3.7120850000     0.3092140000
   21      C      -1.0582470000    -2.3143260000    -0.1861330000
   22      S       1.5275990000    -2.2954870000     0.2560100000
   23      C       0.0000000000    -1.4351800000     0.0000000000
   24      H      -2.0922850000    -1.9932110000    -0.3638960000
   25      H      -0.2504350000    -9.6159850000    -0.0903280000
   26      C       0.0000000000     0.0000000000     0.0000000000
   27      S       0.3097210000     0.8444220000     1.5107320000
   28      C       0.8475020000     2.3251080000     0.7276290000
   29      C       0.3106020000     0.8534600000    -1.0646650000
   30      C       0.7841730000     2.1590140000    -0.6782870000
   31      C       0.2894510000     0.7905120000    -2.4861500000
   32      C       0.7219270000     1.9791120000    -3.1069160000
   33      S       1.1454640000     3.1525190000    -1.9657350000
   34      C       0.8133550000     2.2166420000    -4.5599720000
   35      O       0.4968840000     1.3384180000    -5.3502770000
   36      O       1.2552740000     3.4213400000    -5.0043750000
   37      F      -0.0879230000    -0.2577610000    -3.2462900000
   38      C       1.3874940000     3.7549370000    -6.3349760000
   39      H       1.7659780000     4.7930560000    -6.3702680000
   40      H       0.4170950000     3.6937890000    -6.8756090000
   41      H       2.0988200000     3.0810330000    -6.8618780000
   42      H       1.1622290000     3.1896230000     1.3215100000
 ----------------------------------------------------------------

   10   -2754.2884379526      8.57e-07  Convergence criterion met
 Total energy in the final basis set =    -2754.2884379526
        RIMP2         total energy =     -2759.3429622370 a.u.

                    Orbital Energies (a.u.)
 --------------------------------------------------------------

 Alpha MOs
 -- Occupied --
-92.0157 -91.9952 -91.9895 -91.9864 -26.3337 -20.6123 -20.5924 -20.5914
-20.5506 -11.4108 -11.3768 -11.3191 -11.3183 -11.3054 -11.2986 -11.2970
-11.2957 -11.2920 -11.2885 -11.2872 -11.2862 -11.2858 -11.2838 -11.2838
-11.2800 -11.2601 -11.2593 -11.2574 -11.2499  -9.0139  -8.9992  -8.9899
 -8.9863  -6.6946  -6.6940  -6.6936  -6.6805  -6.6798  -6.6785  -6.6708
 -6.6701  -6.6691  -6.6672  -6.6666  -6.6658  -1.6465  -1.4721  -1.4165
 -1.4142  -1.3675  -1.2337  -1.1956  -1.1681  -1.1419  -1.0836  -1.0519
 -1.0475  -1.0278  -1.0021  -0.9928  -0.9714  -0.9612  -0.9504  -0.9380
 -0.8958  -0.8695  -0.8499  -0.8041  -0.7911  -0.7879  -0.7730  -0.7692
 -0.7578  -0.7325  -0.7179  -0.7149  -0.7011  -0.6890  -0.6828  -0.6786
 -0.6713  -0.6602  -0.6591  -0.6525  -0.6306  -0.6199  -0.6171  -0.6067
 -0.6022  -0.5953  -0.5835  -0.5787  -0.5671  -0.5637  -0.5558  -0.5488
 -0.5366  -0.5263  -0.5237  -0.5159  -0.5143  -0.5079  -0.5016  -0.4931
 -0.4910  -0.4843  -0.4742  -0.4693  -0.4618  -0.4614  -0.4611  -0.4074
 -0.3987  -0.3871  -0.3570  -0.3492  -0.3135  -0.2903  -0.2590

          Ground-State Mulliken Net Atomic Charges

     Atom                 Charge (a.u.)
  ----------------------------------------
      1 C                    -0.187345
      2 C                    -0.254879
      3 S                    -0.021910
      4 C                    -0.012539
      5 H                     0.196387
      6 C                    -0.028107
      7 C                     0.245414
      8 C                     0.239669
      9 C                    -0.041706
     10 C                    -0.028625
     11 O                    -0.333198
     12 O                    -0.339752
     13 C                    -0.085558
     14 H                     0.122713
     15 H                     0.090732
     16 H                     0.094658
     17 C                    -0.086524
     18 H                     0.124949
     19 H                     0.094241
     20 H                     0.090038
     21 C                    -0.210624
     22 S                     0.000685
     23 C                    -0.074150
     24 H                     0.196506
     25 H                     0.206564
     26 C                     0.001259
     27 S                     0.119764
     28 C                    -0.230992
     29 C                    -0.098986
     30 C                     0.000416
     31 C                     0.373421
     32 C                    -0.153808
     33 S                     0.042113
     34 C                     0.459206
     35 O                    -0.448611
     36 O                    -0.297734
     37 F                    -0.209867
     38 C                    -0.054847
     39 H                     0.116601
     40 H                     0.084673
     41 H                     0.084608
     42 H                     0.215143
  ----------------------------------------
  Sum of atomic charges =     0.000000

                    Cartesian Multipole Moments
 -----------------------------------------------------------------
    Charge (ESU x 10^10)
                 0.0000
    Dipole Moment (Debye)
         X       1.3992      Y       1.5866      Z       2.9594
       Tot       3.6378
    Quadrupole Moments (Debye-Ang)
        XX    -178.5176     XY       5.4511     YY    -160.3160
        XZ       5.4006     YZ      -8.6168     ZZ    -202.2274

 Total job time:  329.50s(wall), 11049.88s(cpu)
        *  Thank you very much for using Q-Chem.  Have a nice day.  *
