 Q-Chem 5.4, Q-Chem, Inc., Pleasanton, CA (2021)
 Q-Chem 5.4.0 for Intel X86 EM64T Linux

User input:
--------------------------------------------------------------
$molecule
0 1
C	0.000687	-8.519741	-0.272104
C	0.194476	-7.635967	0.779533
S	-0.287581	-7.651740	-1.799596
C	0.125787	-6.261894	0.399427
H	0.383826	-7.954738	1.812314
C	-0.121989	-6.079985	-1.006762
C	-0.247488	-4.798382	-1.564994
C	0.258303	-5.153542	1.284087
C	0.128493	-3.869626	0.726260
C	-0.116725	-3.688927	-0.681918
O	0.517104	-5.481075	2.580622
O	-0.508622	-4.479871	-2.867144
C	-0.075811	-5.356026	-3.900814
H	-0.173640	-4.790496	-4.847002
H	-0.707354	-6.268513	-3.971794
H	0.984963	-5.658187	-3.763397
C	0.257016	-4.546999	3.621225
H	0.357864	-5.107564	4.569828
H	-0.771211	-4.131473	3.551910
H	0.990913	-3.712085	3.626592
C	-0.187034	-2.314326	-1.058088
S	0.281899	-2.295487	1.523035
C	0.000000	-1.435180	0.000000
H	-0.373653	-1.993211	-2.090565
H	-0.000773	-9.615985	-0.266226
C	0.000000	0.000000	0.000000
S	0.780044	0.447780	1.510732
C	2.143774	1.236372	0.727629
C	0.786529	0.454137	-1.064665
C	1.988499	1.149844	-0.678287
C	0.729864	0.419512	-2.486150
C	1.825177	1.052041	-3.106916
S	2.903877	1.678680	-1.965735
C	2.047896	1.175232	-4.559972
O	1.240953	0.705897	-5.350277
O	3.160791	1.814024	-5.004375
F	-0.233039	-0.140940	-3.246290
C	3.476510	1.984585	-6.334976
H	4.433735	2.536545	-6.370268
H	2.693835	2.561503	-6.875609
H	3.588239	1.011113	-6.861878
H	2.940569	1.696327	1.321510
$end

$rem
JOBTYPE		SP
EXCHANGE	HF
CORRELATION	pRIMP2
BASIS		cc-pvtz
METHOD		rimp2
AUX_BASIS	rimp2-cc-pvtz
SOLVENT_METHOD	PCM
PURECART	11111
SYMMETRY	false
MEM_TOTAL	110000
SCF_CONVERGENCE = 6
THRESH=10
GUI = 2
$end

$solvent
dielectric 4.90
$end
--------------------------------------------------------------

             Standard Nuclear Orientation (Angstroms)
    I     Atom           X                Y                Z
 ----------------------------------------------------------------
    1      C       0.0006870000    -8.5197410000    -0.2721040000
    2      C       0.1944760000    -7.6359670000     0.7795330000
    3      S      -0.2875810000    -7.6517400000    -1.7995960000
    4      C       0.1257870000    -6.2618940000     0.3994270000
    5      H       0.3838260000    -7.9547380000     1.8123140000
    6      C      -0.1219890000    -6.0799850000    -1.0067620000
    7      C      -0.2474880000    -4.7983820000    -1.5649940000
    8      C       0.2583030000    -5.1535420000     1.2840870000
    9      C       0.1284930000    -3.8696260000     0.7262600000
   10      C      -0.1167250000    -3.6889270000    -0.6819180000
   11      O       0.5171040000    -5.4810750000     2.5806220000
   12      O      -0.5086220000    -4.4798710000    -2.8671440000
   13      C      -0.0758110000    -5.3560260000    -3.9008140000
   14      H      -0.1736400000    -4.7904960000    -4.8470020000
   15      H      -0.7073540000    -6.2685130000    -3.9717940000
   16      H       0.9849630000    -5.6581870000    -3.7633970000
   17      C       0.2570160000    -4.5469990000     3.6212250000
   18      H       0.3578640000    -5.1075640000     4.5698280000
   19      H      -0.7712110000    -4.1314730000     3.5519100000
   20      H       0.9909130000    -3.7120850000     3.6265920000
   21      C      -0.1870340000    -2.3143260000    -1.0580880000
   22      S       0.2818990000    -2.2954870000     1.5230350000
   23      C       0.0000000000    -1.4351800000     0.0000000000
   24      H      -0.3736530000    -1.9932110000    -2.0905650000
   25      H      -0.0007730000    -9.6159850000    -0.2662260000
   26      C       0.0000000000     0.0000000000     0.0000000000
   27      S       0.7800440000     0.4477800000     1.5107320000
   28      C       2.1437740000     1.2363720000     0.7276290000
   29      C       0.7865290000     0.4541370000    -1.0646650000
   30      C       1.9884990000     1.1498440000    -0.6782870000
   31      C       0.7298640000     0.4195120000    -2.4861500000
   32      C       1.8251770000     1.0520410000    -3.1069160000
   33      S       2.9038770000     1.6786800000    -1.9657350000
   34      C       2.0478960000     1.1752320000    -4.5599720000
   35      O       1.2409530000     0.7058970000    -5.3502770000
   36      O       3.1607910000     1.8140240000    -5.0043750000
   37      F      -0.2330390000    -0.1409400000    -3.2462900000
   38      C       3.4765100000     1.9845850000    -6.3349760000
   39      H       4.4337350000     2.5365450000    -6.3702680000
   40      H       2.6938350000     2.5615030000    -6.8756090000
   41      H       3.5882390000     1.0111130000    -6.8618780000
   42      H       2.9405690000     1.6963270000     1.3215100000
 ----------------------------------------------------------------

   11   -2754.2228115729      7.41e-07  Convergence criterion met
 Total energy in the final basis set =    -2754.2228115729
        RIMP2         total energy =     -2759.2989268884 a.u.

                    Orbital Energies (a.u.)
 --------------------------------------------------------------

 Alpha MOs
 -- Occupied --
-92.0181 -92.0104 -91.9838 -91.9812 -26.3380 -20.6175 -20.5900 -20.5842
-20.5595 -11.4186 -11.3777 -11.3304 -11.3170 -11.3152 -11.3060 -11.3043
-11.3001 -11.2963 -11.2913 -11.2859 -11.2818 -11.2791 -11.2783 -11.2738
-11.2723 -11.2552 -11.2491 -11.2461 -11.2296  -9.0178  -9.0137  -8.9849
 -8.9812  -6.6984  -6.6975  -6.6974  -6.6948  -6.6942  -6.6930  -6.6658
 -6.6650  -6.6640  -6.6622  -6.6616  -6.6607  -1.6521  -1.4779  -1.4138
 -1.4071  -1.3743  -1.2476  -1.1919  -1.1716  -1.1437  -1.0845  -1.0542
 -1.0456  -1.0354  -0.9978  -0.9923  -0.9781  -0.9568  -0.9470  -0.9369
 -0.8936  -0.8777  -0.8438  -0.8031  -0.8011  -0.7874  -0.7742  -0.7669
 -0.7529  -0.7295  -0.7241  -0.7178  -0.6979  -0.6945  -0.6836  -0.6819
 -0.6748  -0.6629  -0.6559  -0.6480  -0.6254  -0.6156  -0.6139  -0.6126
 -0.6084  -0.6034  -0.5868  -0.5729  -0.5638  -0.5620  -0.5530  -0.5415
 -0.5359  -0.5313  -0.5195  -0.5179  -0.5164  -0.5093  -0.5025  -0.4955
 -0.4889  -0.4803  -0.4713  -0.4676  -0.4652  -0.4559  -0.4545  -0.4255
 -0.3938  -0.3783  -0.3575  -0.3456  -0.3246  -0.2879  -0.2413

          Ground-State Mulliken Net Atomic Charges

     Atom                 Charge (a.u.)
  ----------------------------------------
      1 C                    -0.203550
      2 C                    -0.253095
      3 S                    -0.030508
      4 C                    -0.029229
      5 H                     0.194324
      6 C                    -0.023047
      7 C                     0.227944
      8 C                     0.247242
      9 C                    -0.056933
     10 C                    -0.001247
     11 O                    -0.333551
     12 O                    -0.342784
     13 C                    -0.086085
     14 H                     0.122052
     15 H                     0.089967
     16 H                     0.091131
     17 C                    -0.088112
     18 H                     0.125098
     19 H                     0.094384
     20 H                     0.088409
     21 C                    -0.315530
     22 S                    -0.042517
     23 C                     0.006491
     24 H                     0.203901
     25 H                     0.203678
     26 C                    -0.126154
     27 S                     0.119576
     28 C                    -0.138337
     29 C                     0.009942
     30 C                    -0.039806
     31 C                     0.327368
     32 C                    -0.099776
     33 S                     0.085251
     34 C                     0.456684
     35 O                    -0.435145
     36 O                    -0.296192
     37 F                    -0.211851
     38 C                    -0.054566
     39 H                     0.117919
     40 H                     0.086175
     41 H                     0.086097
     42 H                     0.224383
  ----------------------------------------
  Sum of atomic charges =     0.000000

                    Cartesian Multipole Moments
 -----------------------------------------------------------------
    Charge (ESU x 10^10)
                -0.0000
    Dipole Moment (Debye)
         X       5.9438      Y       3.9207      Z       2.9671
       Tot       7.7139
    Quadrupole Moments (Debye-Ang)
        XX    -184.8379     XY       8.1793     YY    -185.8109
        XZ     -13.1707     YZ      -8.1252     ZZ    -177.0015

 Total job time:  311.79s(wall), 10179.79s(cpu)
        *  Thank you very much for using Q-Chem.  Have a nice day.  *
