 Q-Chem 5.4, Q-Chem, Inc., Pleasanton, CA (2021)
 Q-Chem 5.4.0 for Intel X86 EM64T Linux

User input:
--------------------------------------------------------------
$molecule
0 1
C	0.174379	-8.519741	0.208886
C	-0.650052	-7.635967	-0.472151
S	1.377058	-7.651740	1.193717
C	-0.353105	-6.261894	-0.225125
H	-1.458961	-7.954738	-1.141594
C	0.740583	-6.079985	0.692811
C	1.195546	-4.798382	1.039773
C	-1.023267	-5.153542	-0.817634
C	-0.565262	-3.869626	-0.473754
C	0.527745	-3.688927	0.447350
O	-2.054917	-5.481075	-1.644483
O	2.232592	-4.479871	1.869424
C	2.565470	-5.356026	2.939466
H	3.248608	-4.790496	3.601405
H	3.094885	-6.268513	2.587892
H	1.664539	-5.658187	3.516052
C	-2.524564	-4.546999	-2.608813
H	-3.211568	-5.107564	-3.270661
H	-1.692342	-4.131473	-3.216646
H	-3.090211	-3.712085	-2.141184
C	0.823402	-2.314326	0.690319
S	-1.194935	-2.295487	-0.985511
C	0.000000	-1.435180	0.000000
H	1.630024	-1.993211	1.361286
H	0.171719	-9.615985	0.203444
C	0.000000	0.000000	0.000000
S	0.780044	0.447780	1.510732
C	2.143774	1.236372	0.727629
C	0.786529	0.454137	-1.064665
C	1.988499	1.149844	-0.678287
C	0.729864	0.419512	-2.486150
C	1.825177	1.052041	-3.106916
S	2.903877	1.678680	-1.965735
C	2.047896	1.175232	-4.559972
O	1.240953	0.705897	-5.350277
O	3.160791	1.814024	-5.004375
F	-0.233039	-0.140940	-3.246290
C	3.476510	1.984585	-6.334976
H	4.433735	2.536545	-6.370268
H	2.693835	2.561503	-6.875609
H	3.588239	1.011113	-6.861878
H	2.940569	1.696327	1.321510
$end

$rem
JOBTYPE		SP
EXCHANGE	HF
CORRELATION	pRIMP2
BASIS		cc-pvtz
METHOD		rimp2
AUX_BASIS	rimp2-cc-pvtz
SOLVENT_METHOD	PCM
PURECART	11111
SYMMETRY	false
MEM_TOTAL	110000
SCF_CONVERGENCE = 6
THRESH=10
GUI = 2
$end

$solvent
dielectric 4.90
$end
--------------------------------------------------------------

             Standard Nuclear Orientation (Angstroms)
    I     Atom           X                Y                Z
 ----------------------------------------------------------------
    1      C       0.1743790000    -8.5197410000     0.2088860000
    2      C      -0.6500520000    -7.6359670000    -0.4721510000
    3      S       1.3770580000    -7.6517400000     1.1937170000
    4      C      -0.3531050000    -6.2618940000    -0.2251250000
    5      H      -1.4589610000    -7.9547380000    -1.1415940000
    6      C       0.7405830000    -6.0799850000     0.6928110000
    7      C       1.1955460000    -4.7983820000     1.0397730000
    8      C      -1.0232670000    -5.1535420000    -0.8176340000
    9      C      -0.5652620000    -3.8696260000    -0.4737540000
   10      C       0.5277450000    -3.6889270000     0.4473500000
   11      O      -2.0549170000    -5.4810750000    -1.6444830000
   12      O       2.2325920000    -4.4798710000     1.8694240000
   13      C       2.5654700000    -5.3560260000     2.9394660000
   14      H       3.2486080000    -4.7904960000     3.6014050000
   15      H       3.0948850000    -6.2685130000     2.5878920000
   16      H       1.6645390000    -5.6581870000     3.5160520000
   17      C      -2.5245640000    -4.5469990000    -2.6088130000
   18      H      -3.2115680000    -5.1075640000    -3.2706610000
   19      H      -1.6923420000    -4.1314730000    -3.2166460000
   20      H      -3.0902110000    -3.7120850000    -2.1411840000
   21      C       0.8234020000    -2.3143260000     0.6903190000
   22      S      -1.1949350000    -2.2954870000    -0.9855110000
   23      C       0.0000000000    -1.4351800000     0.0000000000
   24      H       1.6300240000    -1.9932110000     1.3612860000
   25      H       0.1717190000    -9.6159850000     0.2034440000
   26      C       0.0000000000     0.0000000000     0.0000000000
   27      S       0.7800440000     0.4477800000     1.5107320000
   28      C       2.1437740000     1.2363720000     0.7276290000
   29      C       0.7865290000     0.4541370000    -1.0646650000
   30      C       1.9884990000     1.1498440000    -0.6782870000
   31      C       0.7298640000     0.4195120000    -2.4861500000
   32      C       1.8251770000     1.0520410000    -3.1069160000
   33      S       2.9038770000     1.6786800000    -1.9657350000
   34      C       2.0478960000     1.1752320000    -4.5599720000
   35      O       1.2409530000     0.7058970000    -5.3502770000
   36      O       3.1607910000     1.8140240000    -5.0043750000
   37      F      -0.2330390000    -0.1409400000    -3.2462900000
   38      C       3.4765100000     1.9845850000    -6.3349760000
   39      H       4.4337350000     2.5365450000    -6.3702680000
   40      H       2.6938350000     2.5615030000    -6.8756090000
   41      H       3.5882390000     1.0111130000    -6.8618780000
   42      H       2.9405690000     1.6963270000     1.3215100000
 ----------------------------------------------------------------

   11   -2754.2315161736      7.44e-07  Convergence criterion met
 Total energy in the final basis set =    -2754.2315161736
        RIMP2         total energy =     -2759.3042869610 a.u.

                    Orbital Energies (a.u.)
 --------------------------------------------------------------

 Alpha MOs
 -- Occupied --
-92.0166 -92.0068 -91.9828 -91.9796 -26.3338 -20.6159 -20.5894 -20.5875
-20.5570 -11.4163 -11.3759 -11.3264 -11.3153 -11.3119 -11.3102 -11.3013
-11.2979 -11.2960 -11.2905 -11.2844 -11.2841 -11.2803 -11.2777 -11.2757
-11.2747 -11.2557 -11.2521 -11.2472 -11.2394  -9.0157  -9.0102  -8.9828
 -8.9805  -6.6962  -6.6953  -6.6953  -6.6913  -6.6907  -6.6895  -6.6638
 -6.6632  -6.6623  -6.6615  -6.6608  -6.6599  -1.6473  -1.4761  -1.4133
 -1.4104  -1.3723  -1.2445  -1.1920  -1.1705  -1.1438  -1.0837  -1.0518
 -1.0469  -1.0337  -0.9974  -0.9915  -0.9761  -0.9568  -0.9473  -0.9388
 -0.8912  -0.8766  -0.8419  -0.8089  -0.7940  -0.7852  -0.7775  -0.7639
 -0.7526  -0.7287  -0.7184  -0.7159  -0.6986  -0.6917  -0.6818  -0.6790
 -0.6776  -0.6617  -0.6558  -0.6498  -0.6280  -0.6170  -0.6139  -0.6119
 -0.6068  -0.6031  -0.5891  -0.5715  -0.5658  -0.5642  -0.5523  -0.5497
 -0.5317  -0.5231  -0.5200  -0.5135  -0.5118  -0.5091  -0.5011  -0.4924
 -0.4881  -0.4863  -0.4685  -0.4667  -0.4643  -0.4606  -0.4503  -0.4176
 -0.3908  -0.3820  -0.3592  -0.3426  -0.3190  -0.2919  -0.2494

          Ground-State Mulliken Net Atomic Charges

     Atom                 Charge (a.u.)
  ----------------------------------------
      1 C                    -0.198089
      2 C                    -0.253528
      3 S                    -0.030124
      4 C                    -0.021673
      5 H                     0.195372
      6 C                    -0.025056
      7 C                     0.227830
      8 C                     0.243474
      9 C                    -0.043536
     10 C                    -0.013619
     11 O                    -0.334046
     12 O                    -0.342844
     13 C                    -0.085628
     14 H                     0.120498
     15 H                     0.090433
     16 H                     0.092800
     17 C                    -0.086889
     18 H                     0.123964
     19 H                     0.095030
     20 H                     0.089613
     21 C                    -0.293739
     22 S                    -0.030822
     23 C                     0.017038
     24 H                     0.190082
     25 H                     0.204575
     26 C                    -0.150582
     27 S                     0.129619
     28 C                    -0.154736
     29 C                    -0.007421
     30 C                    -0.026727
     31 C                     0.350034
     32 C                    -0.116689
     33 S                     0.075144
     34 C                     0.456997
     35 O                    -0.438536
     36 O                    -0.296646
     37 F                    -0.208028
     38 C                    -0.054733
     39 H                     0.117501
     40 H                     0.085676
     41 H                     0.085776
     42 H                     0.222235
  ----------------------------------------
  Sum of atomic charges =     0.000000

                    Cartesian Multipole Moments
 -----------------------------------------------------------------
    Charge (ESU x 10^10)
                -0.0000
    Dipole Moment (Debye)
         X       4.7023      Y       2.8927      Z       2.4976
       Tot       6.0595
    Quadrupole Moments (Debye-Ang)
        XX    -177.7373     XY      10.9719     YY    -181.4529
        XZ       0.5194     YZ      -6.3748     ZZ    -186.4180

 Total job time:  312.10s(wall), 9927.61s(cpu)
        *  Thank you very much for using Q-Chem.  Have a nice day.  *
