 Q-Chem 5.4, Q-Chem, Inc., Pleasanton, CA (2021)
 Q-Chem 5.4.0 for Intel X86 EM64T Linux

User input:
--------------------------------------------------------------
$molecule
0 1
C	-0.255929	-8.519741	0.092419
C	0.666007	-7.635967	-0.449364
S	-1.592708	-7.651740	0.885736
C	0.332317	-6.261894	-0.254813
H	1.571741	-7.954738	-0.980526
C	-0.904324	-6.079985	0.458965
C	-1.385968	-4.798382	0.767823
C	1.118303	-5.153542	-0.681909
C	0.638514	-3.869626	-0.369139
C	-0.600871	-3.688927	0.342916
O	2.248132	-5.481075	-1.368544
O	-2.520275	-4.479871	1.458570
C	-3.639637	-5.356026	1.405396
H	-4.495304	-4.790496	1.820940
H	-3.490336	-6.268513	2.023129
H	-3.873314	-5.658187	0.361595
C	3.314934	-4.546999	-1.480048
H	4.171837	-5.107564	-1.899255
H	3.601473	-4.131473	-0.490123
H	3.068969	-3.712085	-2.171521
C	-0.930308	-2.314326	0.537642
S	1.334769	-2.295487	-0.785807
C	-0.000000	-1.435180	-0.000000
H	-1.836691	-1.993211	1.066134
H	-0.249906	-9.615985	0.091781
C	0.000000	0.000000	0.000000
S	0.579852	0.687566	1.510732
C	1.591625	1.895024	0.727629
C	0.583771	0.695758	-1.064665
C	1.475308	1.760606	-0.678287
C	0.542366	0.643841	-2.486150
C	1.355286	1.612843	-3.106916
S	2.154609	2.570627	-1.965735
C	1.522440	1.804778	-4.559972
O	0.924684	1.087757	-5.350277
O	2.349739	2.785679	-5.004375
F	-0.170780	-0.212144	-3.246290
C	2.588082	3.053936	-6.334976
H	3.298799	3.899999	-6.370268
H	1.655291	3.328371	-6.875609
H	3.026021	2.177385	-6.861878
H	2.183053	2.599759	1.321510
$end

$rem
JOBTYPE		SP
EXCHANGE	HF
CORRELATION	pRIMP2
BASIS		cc-pvtz
METHOD		rimp2
AUX_BASIS	rimp2-cc-pvtz
SOLVENT_METHOD	PCM
PURECART	11111
SYMMETRY	false
MEM_TOTAL	110000
SCF_CONVERGENCE = 6
THRESH=10
GUI = 2
$end

$solvent
dielectric 4.90
$end
--------------------------------------------------------------

             Standard Nuclear Orientation (Angstroms)
    I     Atom           X                Y                Z
 ----------------------------------------------------------------
    1      C      -0.2559290000    -8.5197410000     0.0924190000
    2      C       0.6660070000    -7.6359670000    -0.4493640000
    3      S      -1.5927080000    -7.6517400000     0.8857360000
    4      C       0.3323170000    -6.2618940000    -0.2548130000
    5      H       1.5717410000    -7.9547380000    -0.9805260000
    6      C      -0.9043240000    -6.0799850000     0.4589650000
    7      C      -1.3859680000    -4.7983820000     0.7678230000
    8      C       1.1183030000    -5.1535420000    -0.6819090000
    9      C       0.6385140000    -3.8696260000    -0.3691390000
   10      C      -0.6008710000    -3.6889270000     0.3429160000
   11      O       2.2481320000    -5.4810750000    -1.3685440000
   12      O      -2.5202750000    -4.4798710000     1.4585700000
   13      C      -3.6396370000    -5.3560260000     1.4053960000
   14      H      -4.4953040000    -4.7904960000     1.8209400000
   15      H      -3.4903360000    -6.2685130000     2.0231290000
   16      H      -3.8733140000    -5.6581870000     0.3615950000
   17      C       3.3149340000    -4.5469990000    -1.4800480000
   18      H       4.1718370000    -5.1075640000    -1.8992550000
   19      H       3.6014730000    -4.1314730000    -0.4901230000
   20      H       3.0689690000    -3.7120850000    -2.1715210000
   21      C      -0.9303080000    -2.3143260000     0.5376420000
   22      S       1.3347690000    -2.2954870000    -0.7858070000
   23      C       0.0000000000    -1.4351800000     0.0000000000
   24      H      -1.8366910000    -1.9932110000     1.0661340000
   25      H      -0.2499060000    -9.6159850000     0.0917810000
   26      C       0.0000000000     0.0000000000     0.0000000000
   27      S       0.5798520000     0.6875660000     1.5107320000
   28      C       1.5916250000     1.8950240000     0.7276290000
   29      C       0.5837710000     0.6957580000    -1.0646650000
   30      C       1.4753080000     1.7606060000    -0.6782870000
   31      C       0.5423660000     0.6438410000    -2.4861500000
   32      C       1.3552860000     1.6128430000    -3.1069160000
   33      S       2.1546090000     2.5706270000    -1.9657350000
   34      C       1.5224400000     1.8047780000    -4.5599720000
   35      O       0.9246840000     1.0877570000    -5.3502770000
   36      O       2.3497390000     2.7856790000    -5.0043750000
   37      F      -0.1707800000    -0.2121440000    -3.2462900000
   38      C       2.5880820000     3.0539360000    -6.3349760000
   39      H       3.2987990000     3.8999990000    -6.3702680000
   40      H       1.6552910000     3.3283710000    -6.8756090000
   41      H       3.0260210000     2.1773850000    -6.8618780000
   42      H       2.1830530000     2.5997590000     1.3215100000
 ----------------------------------------------------------------

   10   -2754.2691662568      9.87e-07  Convergence criterion met
 Total energy in the final basis set =    -2754.2691662568
        RIMP2         total energy =     -2759.3321366740 a.u.

                    Orbital Energies (a.u.)
 --------------------------------------------------------------

 Alpha MOs
 -- Occupied --
-92.0167 -91.9998 -91.9877 -91.9852 -26.3342 -20.6138 -20.5916 -20.5900
-20.5531 -11.4130 -11.3774 -11.3181 -11.3153 -11.3076 -11.3037 -11.2988
-11.2945 -11.2919 -11.2894 -11.2872 -11.2865 -11.2852 -11.2836 -11.2828
-11.2782 -11.2588 -11.2569 -11.2498 -11.2490  -9.0151  -9.0036  -8.9882
 -8.9851  -6.6957  -6.6950  -6.6947  -6.6848  -6.6842  -6.6829  -6.6691
 -6.6684  -6.6675  -6.6661  -6.6655  -6.6646  -1.6472  -1.4738  -1.4156
 -1.4128  -1.3694  -1.2381  -1.1941  -1.1684  -1.1434  -1.0836  -1.0510
 -1.0487  -1.0302  -1.0006  -0.9921  -0.9734  -0.9598  -0.9496  -0.9387
 -0.8945  -0.8722  -0.8470  -0.8063  -0.7919  -0.7870  -0.7757  -0.7659
 -0.7558  -0.7314  -0.7182  -0.7156  -0.6996  -0.6903  -0.6812  -0.6800
 -0.6739  -0.6616  -0.6582  -0.6516  -0.6285  -0.6189  -0.6164  -0.6086
 -0.6049  -0.5983  -0.5808  -0.5775  -0.5656  -0.5642  -0.5554  -0.5486
 -0.5333  -0.5284  -0.5232  -0.5151  -0.5141  -0.5084  -0.5017  -0.4955
 -0.4890  -0.4858  -0.4721  -0.4675  -0.4637  -0.4626  -0.4593  -0.4074
 -0.4006  -0.3848  -0.3570  -0.3498  -0.3172  -0.2894  -0.2538

          Ground-State Mulliken Net Atomic Charges

     Atom                 Charge (a.u.)
  ----------------------------------------
      1 C                    -0.191301
      2 C                    -0.254051
      3 S                    -0.024435
      4 C                    -0.017349
      5 H                     0.195997
      6 C                    -0.024939
      7 C                     0.234444
      8 C                     0.241893
      9 C                    -0.044307
     10 C                    -0.007083
     11 O                    -0.333121
     12 O                    -0.340273
     13 C                    -0.085487
     14 H                     0.121983
     15 H                     0.090522
     16 H                     0.094017
     17 C                    -0.087781
     18 H                     0.125280
     19 H                     0.093993
     20 H                     0.090183
     21 C                    -0.259662
     22 S                    -0.016530
     23 C                    -0.019382
     24 H                     0.194944
     25 H                     0.205891
     26 C                    -0.037285
     27 S                     0.135622
     28 C                    -0.200877
     29 C                    -0.138967
     30 C                    -0.004669
     31 C                     0.391271
     32 C                    -0.142156
     33 S                     0.055834
     34 C                     0.459455
     35 O                    -0.444532
     36 O                    -0.297498
     37 F                    -0.209154
     38 C                    -0.054655
     39 H                     0.116958
     40 H                     0.085227
     41 H                     0.084957
     42 H                     0.217024
  ----------------------------------------
  Sum of atomic charges =     0.000000

                    Cartesian Multipole Moments
 -----------------------------------------------------------------
    Charge (ESU x 10^10)
                 0.0000
    Dipole Moment (Debye)
         X       3.0314      Y       2.1613      Z       2.7180
       Tot       4.6096
    Quadrupole Moments (Debye-Ang)
        XX    -171.4672     XY       9.4599     YY    -167.8385
        XZ     -14.3745     YZ      -7.3821     ZZ    -202.6025

 Total job time:  281.81s(wall), 9282.81s(cpu)
        *  Thank you very much for using Q-Chem.  Have a nice day.  *
