 Q-Chem 5.4, Q-Chem, Inc., Pleasanton, CA (2021)
 Q-Chem 5.4.0 for Intel X86 EM64T Linux

User input:
--------------------------------------------------------------
$molecule
0 1
C	0.255929	-8.519741	-0.092419
C	-0.666007	-7.635967	0.449364
S	1.592708	-7.651740	-0.885736
C	-0.332317	-6.261894	0.254813
H	-1.571741	-7.954738	0.980526
C	0.904324	-6.079985	-0.458965
C	1.385968	-4.798382	-0.767823
C	-1.118303	-5.153542	0.681909
C	-0.638514	-3.869626	0.369139
C	0.600871	-3.688927	-0.342916
O	-2.248132	-5.481075	1.368544
O	2.520275	-4.479871	-1.458570
C	3.639637	-5.356026	-1.405396
H	4.495304	-4.790496	-1.820940
H	3.490336	-6.268513	-2.023129
H	3.873314	-5.658187	-0.361595
C	-3.314934	-4.546999	1.480048
H	-4.171837	-5.107564	1.899255
H	-3.601473	-4.131473	0.490123
H	-3.068969	-3.712085	2.171521
C	0.930308	-2.314326	-0.537642
S	-1.334769	-2.295487	0.785807
C	0.000000	-1.435180	0.000000
H	1.836691	-1.993211	-1.066134
H	0.249906	-9.615985	-0.091781
C	0.000000	0.000000	0.000000
S	0.780044	0.447780	1.510732
C	2.143774	1.236372	0.727629
C	0.786529	0.454137	-1.064665
C	1.988499	1.149844	-0.678287
C	0.729864	0.419512	-2.486150
C	1.825177	1.052041	-3.106916
S	2.903877	1.678680	-1.965735
C	2.047896	1.175232	-4.559972
O	1.240953	0.705897	-5.350277
O	3.160791	1.814024	-5.004375
F	-0.233039	-0.140940	-3.246290
C	3.476510	1.984585	-6.334976
H	4.433735	2.536545	-6.370268
H	2.693835	2.561503	-6.875609
H	3.588239	1.011113	-6.861878
H	2.940569	1.696327	1.321510
$end

$rem
JOBTYPE		SP
EXCHANGE	HF
CORRELATION	pRIMP2
BASIS		cc-pvtz
METHOD		rimp2
AUX_BASIS	rimp2-cc-pvtz
SOLVENT_METHOD	PCM
PURECART	11111
SYMMETRY	false
MEM_TOTAL	110000
SCF_CONVERGENCE = 6
THRESH=10
GUI = 2
$end

$solvent
dielectric 4.90
$end
--------------------------------------------------------------

             Standard Nuclear Orientation (Angstroms)
    I     Atom           X                Y                Z
 ----------------------------------------------------------------
    1      C       0.2559290000    -8.5197410000    -0.0924190000
    2      C      -0.6660070000    -7.6359670000     0.4493640000
    3      S       1.5927080000    -7.6517400000    -0.8857360000
    4      C      -0.3323170000    -6.2618940000     0.2548130000
    5      H      -1.5717410000    -7.9547380000     0.9805260000
    6      C       0.9043240000    -6.0799850000    -0.4589650000
    7      C       1.3859680000    -4.7983820000    -0.7678230000
    8      C      -1.1183030000    -5.1535420000     0.6819090000
    9      C      -0.6385140000    -3.8696260000     0.3691390000
   10      C       0.6008710000    -3.6889270000    -0.3429160000
   11      O      -2.2481320000    -5.4810750000     1.3685440000
   12      O       2.5202750000    -4.4798710000    -1.4585700000
   13      C       3.6396370000    -5.3560260000    -1.4053960000
   14      H       4.4953040000    -4.7904960000    -1.8209400000
   15      H       3.4903360000    -6.2685130000    -2.0231290000
   16      H       3.8733140000    -5.6581870000    -0.3615950000
   17      C      -3.3149340000    -4.5469990000     1.4800480000
   18      H      -4.1718370000    -5.1075640000     1.8992550000
   19      H      -3.6014730000    -4.1314730000     0.4901230000
   20      H      -3.0689690000    -3.7120850000     2.1715210000
   21      C       0.9303080000    -2.3143260000    -0.5376420000
   22      S      -1.3347690000    -2.2954870000     0.7858070000
   23      C       0.0000000000    -1.4351800000     0.0000000000
   24      H       1.8366910000    -1.9932110000    -1.0661340000
   25      H       0.2499060000    -9.6159850000    -0.0917810000
   26      C       0.0000000000     0.0000000000     0.0000000000
   27      S       0.7800440000     0.4477800000     1.5107320000
   28      C       2.1437740000     1.2363720000     0.7276290000
   29      C       0.7865290000     0.4541370000    -1.0646650000
   30      C       1.9884990000     1.1498440000    -0.6782870000
   31      C       0.7298640000     0.4195120000    -2.4861500000
   32      C       1.8251770000     1.0520410000    -3.1069160000
   33      S       2.9038770000     1.6786800000    -1.9657350000
   34      C       2.0478960000     1.1752320000    -4.5599720000
   35      O       1.2409530000     0.7058970000    -5.3502770000
   36      O       3.1607910000     1.8140240000    -5.0043750000
   37      F      -0.2330390000    -0.1409400000    -3.2462900000
   38      C       3.4765100000     1.9845850000    -6.3349760000
   39      H       4.4337350000     2.5365450000    -6.3702680000
   40      H       2.6938350000     2.5615030000    -6.8756090000
   41      H       3.5882390000     1.0111130000    -6.8618780000
   42      H       2.9405690000     1.6963270000     1.3215100000
 ----------------------------------------------------------------

   11   -2754.2354639398      6.32e-07  Convergence criterion met
 Total energy in the final basis set =    -2754.2354639398
        RIMP2         total energy =     -2759.3058947276 a.u.

                    Orbital Energies (a.u.)
 --------------------------------------------------------------

 Alpha MOs
 -- Occupied --
-92.0167 -92.0062 -91.9834 -91.9802 -26.3343 -20.6161 -20.5901 -20.5881
-20.5573 -11.4165 -11.3770 -11.3277 -11.3159 -11.3123 -11.3117 -11.3014
-11.2960 -11.2940 -11.2906 -11.2851 -11.2845 -11.2809 -11.2788 -11.2757
-11.2728 -11.2569 -11.2534 -11.2477 -11.2427  -9.0156  -9.0098  -8.9834
 -8.9812  -6.6962  -6.6953  -6.6951  -6.6909  -6.6903  -6.6890  -6.6644
 -6.6638  -6.6629  -6.6621  -6.6614  -6.6605  -1.6472  -1.4764  -1.4140
 -1.4109  -1.3725  -1.2445  -1.1922  -1.1703  -1.1444  -1.0842  -1.0520
 -1.0476  -1.0333  -0.9977  -0.9920  -0.9759  -0.9579  -0.9482  -0.9389
 -0.8926  -0.8758  -0.8422  -0.8035  -0.7961  -0.7853  -0.7773  -0.7687
 -0.7530  -0.7303  -0.7186  -0.7156  -0.6995  -0.6931  -0.6819  -0.6795
 -0.6773  -0.6616  -0.6566  -0.6503  -0.6276  -0.6177  -0.6152  -0.6119
 -0.6090  -0.6015  -0.5809  -0.5730  -0.5676  -0.5616  -0.5547  -0.5469
 -0.5329  -0.5256  -0.5226  -0.5155  -0.5127  -0.5075  -0.5020  -0.4950
 -0.4902  -0.4857  -0.4680  -0.4665  -0.4644  -0.4606  -0.4572  -0.4054
 -0.3934  -0.3841  -0.3604  -0.3456  -0.3183  -0.2928  -0.2509

          Ground-State Mulliken Net Atomic Charges

     Atom                 Charge (a.u.)
  ----------------------------------------
      1 C                    -0.196037
      2 C                    -0.254014
      3 S                    -0.028104
      4 C                    -0.020669
      5 H                     0.195363
      6 C                    -0.025069
      7 C                     0.233024
      8 C                     0.245032
      9 C                    -0.046929
     10 C                    -0.020184
     11 O                    -0.333926
     12 O                    -0.342245
     13 C                    -0.085627
     14 H                     0.121014
     15 H                     0.090798
     16 H                     0.092577
     17 C                    -0.087109
     18 H                     0.124636
     19 H                     0.094739
     20 H                     0.089318
     21 C                    -0.285378
     22 S                    -0.039535
     23 C                     0.049373
     24 H                     0.192275
     25 H                     0.204913
     26 C                    -0.189895
     27 S                     0.142008
     28 C                    -0.141464
     29 C                    -0.075459
     30 C                    -0.022145
     31 C                     0.405758
     32 C                    -0.131717
     33 S                     0.073707
     34 C                     0.458873
     35 O                    -0.437476
     36 O                    -0.296668
     37 F                    -0.210425
     38 C                    -0.054731
     39 H                     0.117462
     40 H                     0.085902
     41 H                     0.085934
     42 H                     0.222104
  ----------------------------------------
  Sum of atomic charges =     0.000000

                    Cartesian Multipole Moments
 -----------------------------------------------------------------
    Charge (ESU x 10^10)
                 0.0000
    Dipole Moment (Debye)
         X       5.0743      Y       2.5862      Z       2.9606
       Tot       6.4189
    Quadrupole Moments (Debye-Ang)
        XX    -163.7735     XY       9.0693     YY    -179.1143
        XZ     -17.3465     YZ      -7.7062     ZZ    -200.3094

 Total job time:  308.60s(wall), 10045.73s(cpu)
        *  Thank you very much for using Q-Chem.  Have a nice day.  *
