 Q-Chem 5.4, Q-Chem, Inc., Pleasanton, CA (2021)
 Q-Chem 5.4.0 for Intel X86 EM64T Linux

User input:
--------------------------------------------------------------
$molecule
0 1
C	-0.175432	-8.519741	0.208002
C	0.352097	-7.635967	-0.722164
S	-0.936458	-7.651740	1.563424
C	0.160388	-6.261894	-0.386833
H	0.870905	-7.954738	-1.635031
C	-0.553685	-6.079985	0.849637
C	-0.816372	-4.798382	1.357938
C	0.627524	-5.153542	-1.149702
C	0.368399	-3.869626	-0.638941
C	-0.348912	-3.688927	0.597409
O	1.262667	-5.481075	-2.309260
O	-1.453338	-4.479871	2.523296
C	-2.449320	-5.356026	3.036927
H	-2.982577	-4.790496	3.824632
H	-2.011155	-6.268513	3.497250
H	-3.173591	-5.658187	2.249807
C	2.130793	-4.546999	-2.939226
H	2.663289	-5.107564	-3.730721
H	2.873906	-4.131473	-2.225196
H	1.572045	-3.712085	-3.415077
C	-0.536849	-2.314326	0.930765
S	0.763041	-2.295487	-1.347913
C	0.000000	-1.435180	0.000000
H	-1.057554	-1.993211	1.841645
H	-0.170535	-9.615985	0.204438
C	0.000000	0.000000	0.000000
S	0.234946	0.868203	1.510732
C	0.641630	2.390125	0.727629
C	0.235036	0.877284	-1.064665
C	0.593019	2.219143	-0.678287
C	0.219452	0.812732	-2.486150
C	0.546689	2.034501	-3.106916
S	0.866345	3.240357	-1.965735
C	0.617067	2.279095	-4.559972
O	0.378342	1.376631	-5.350277
O	0.952308	3.517725	-5.004375
F	-0.065123	-0.264443	-3.246290
C	1.054950	3.861577	-6.334976
H	1.341516	4.928732	-6.370268
H	0.093573	3.716085	-6.875609
H	1.822303	3.252232	-6.861878
H	0.879812	3.278780	1.321510
$end

$rem
JOBTYPE		SP
EXCHANGE	HF
CORRELATION	pRIMP2
BASIS		cc-pvtz
METHOD		rimp2
AUX_BASIS	rimp2-cc-pvtz
SOLVENT_METHOD	PCM
PURECART	11111
SYMMETRY	false
MEM_TOTAL	110000
SCF_CONVERGENCE = 6
THRESH=10
GUI = 2
$end

$solvent
dielectric 4.90
$end
--------------------------------------------------------------

             Standard Nuclear Orientation (Angstroms)
    I     Atom           X                Y                Z
 ----------------------------------------------------------------
    1      C      -0.1754320000    -8.5197410000     0.2080020000
    2      C       0.3520970000    -7.6359670000    -0.7221640000
    3      S      -0.9364580000    -7.6517400000     1.5634240000
    4      C       0.1603880000    -6.2618940000    -0.3868330000
    5      H       0.8709050000    -7.9547380000    -1.6350310000
    6      C      -0.5536850000    -6.0799850000     0.8496370000
    7      C      -0.8163720000    -4.7983820000     1.3579380000
    8      C       0.6275240000    -5.1535420000    -1.1497020000
    9      C       0.3683990000    -3.8696260000    -0.6389410000
   10      C      -0.3489120000    -3.6889270000     0.5974090000
   11      O       1.2626670000    -5.4810750000    -2.3092600000
   12      O      -1.4533380000    -4.4798710000     2.5232960000
   13      C      -2.4493200000    -5.3560260000     3.0369270000
   14      H      -2.9825770000    -4.7904960000     3.8246320000
   15      H      -2.0111550000    -6.2685130000     3.4972500000
   16      H      -3.1735910000    -5.6581870000     2.2498070000
   17      C       2.1307930000    -4.5469990000    -2.9392260000
   18      H       2.6632890000    -5.1075640000    -3.7307210000
   19      H       2.8739060000    -4.1314730000    -2.2251960000
   20      H       1.5720450000    -3.7120850000    -3.4150770000
   21      C      -0.5368490000    -2.3143260000     0.9307650000
   22      S       0.7630410000    -2.2954870000    -1.3479130000
   23      C       0.0000000000    -1.4351800000     0.0000000000
   24      H      -1.0575540000    -1.9932110000     1.8416450000
   25      H      -0.1705350000    -9.6159850000     0.2044380000
   26      C       0.0000000000     0.0000000000     0.0000000000
   27      S       0.2349460000     0.8682030000     1.5107320000
   28      C       0.6416300000     2.3901250000     0.7276290000
   29      C       0.2350360000     0.8772840000    -1.0646650000
   30      C       0.5930190000     2.2191430000    -0.6782870000
   31      C       0.2194520000     0.8127320000    -2.4861500000
   32      C       0.5466890000     2.0345010000    -3.1069160000
   33      S       0.8663450000     3.2403570000    -1.9657350000
   34      C       0.6170670000     2.2790950000    -4.5599720000
   35      O       0.3783420000     1.3766310000    -5.3502770000
   36      O       0.9523080000     3.5177250000    -5.0043750000
   37      F      -0.0651230000    -0.2644430000    -3.2462900000
   38      C       1.0549500000     3.8615770000    -6.3349760000
   39      H       1.3415160000     4.9287320000    -6.3702680000
   40      H       0.0935730000     3.7160850000    -6.8756090000
   41      H       1.8223030000     3.2522320000    -6.8618780000
   42      H       0.8798120000     3.2787800000     1.3215100000
 ----------------------------------------------------------------

   10   -2754.2918851415      8.32e-07  Convergence criterion met
 Total energy in the final basis set =    -2754.2918851415
        RIMP2         total energy =     -2759.3484971066 a.u.

                    Orbital Energies (a.u.)
 --------------------------------------------------------------

 Alpha MOs
 -- Occupied --
-92.0156 -91.9954 -91.9877 -91.9863 -26.3343 -20.6121 -20.5918 -20.5917
-20.5501 -11.4104 -11.3781 -11.3188 -11.3181 -11.3116 -11.2976 -11.2974
-11.2964 -11.2944 -11.2885 -11.2863 -11.2861 -11.2859 -11.2838 -11.2825
-11.2798 -11.2614 -11.2590 -11.2577 -11.2499  -9.0139  -8.9994  -8.9884
 -8.9862  -6.6946  -6.6941  -6.6936  -6.6807  -6.6800  -6.6787  -6.6693
 -6.6686  -6.6676  -6.6672  -6.6665  -6.6657  -1.6487  -1.4719  -1.4159
 -1.4144  -1.3672  -1.2344  -1.1961  -1.1688  -1.1422  -1.0846  -1.0522
 -1.0479  -1.0286  -1.0023  -0.9935  -0.9722  -0.9607  -0.9501  -0.9385
 -0.8959  -0.8697  -0.8511  -0.8086  -0.7933  -0.7870  -0.7751  -0.7642
 -0.7581  -0.7326  -0.7195  -0.7165  -0.7004  -0.6886  -0.6834  -0.6786
 -0.6725  -0.6617  -0.6587  -0.6525  -0.6288  -0.6198  -0.6165  -0.6066
 -0.6026  -0.5952  -0.5863  -0.5733  -0.5694  -0.5643  -0.5583  -0.5524
 -0.5314  -0.5266  -0.5250  -0.5165  -0.5150  -0.5083  -0.5018  -0.4961
 -0.4876  -0.4839  -0.4785  -0.4668  -0.4616  -0.4614  -0.4592  -0.4208
 -0.3953  -0.3869  -0.3599  -0.3499  -0.3232  -0.2848  -0.2488

          Ground-State Mulliken Net Atomic Charges

     Atom                 Charge (a.u.)
  ----------------------------------------
      1 C                    -0.187977
      2 C                    -0.254542
      3 S                    -0.023146
      4 C                    -0.014919
      5 H                     0.196586
      6 C                    -0.028119
      7 C                     0.241392
      8 C                     0.240744
      9 C                    -0.043553
     10 C                    -0.010664
     11 O                    -0.333342
     12 O                    -0.340093
     13 C                    -0.085593
     14 H                     0.122298
     15 H                     0.091139
     16 H                     0.094406
     17 C                    -0.089387
     18 H                     0.125615
     19 H                     0.094098
     20 H                     0.091770
     21 C                    -0.262342
     22 S                    -0.011044
     23 C                     0.009747
     24 H                     0.192073
     25 H                     0.206519
     26 C                     0.027316
     27 S                     0.115572
     28 C                    -0.241235
     29 C                    -0.134228
     30 C                    -0.008748
     31 C                     0.370269
     32 C                    -0.142106
     33 S                     0.040836
     34 C                     0.460872
     35 O                    -0.450365
     36 O                    -0.298005
     37 F                    -0.207706
     38 C                    -0.054897
     39 H                     0.116687
     40 H                     0.084681
     41 H                     0.084332
     42 H                     0.215056
  ----------------------------------------
  Sum of atomic charges =     0.000000

                    Cartesian Multipole Moments
 -----------------------------------------------------------------
    Charge (ESU x 10^10)
                -0.0000
    Dipole Moment (Debye)
         X       0.7811      Y       1.5977      Z       2.8829
       Tot       3.3873
    Quadrupole Moments (Debye-Ang)
        XX    -188.9617     XY       5.4265     YY    -160.2811
        XZ     -15.5501     YZ      -9.4954     ZZ    -192.7854

 Total job time:  306.83s(wall), 9565.23s(cpu)
        *  Thank you very much for using Q-Chem.  Have a nice day.  *
