 Q-Chem 5.4, Q-Chem, Inc., Pleasanton, CA (2021)
 Q-Chem 5.4.0 for Intel X86 EM64T Linux

User input:
--------------------------------------------------------------
$molecule
0 1
C	-0.255929	-8.519741	0.092419
C	0.666007	-7.635967	-0.449364
S	-1.592708	-7.651740	0.885736
C	0.332317	-6.261894	-0.254813
H	1.571741	-7.954738	-0.980526
C	-0.904324	-6.079985	0.458965
C	-1.385968	-4.798382	0.767823
C	1.118303	-5.153542	-0.681909
C	0.638514	-3.869626	-0.369139
C	-0.600871	-3.688927	0.342916
O	2.248132	-5.481075	-1.368544
O	-2.520275	-4.479871	1.458570
C	-3.639637	-5.356026	1.405396
H	-4.495304	-4.790496	1.820940
H	-3.490336	-6.268513	2.023129
H	-3.873314	-5.658187	0.361595
C	3.314934	-4.546999	-1.480048
H	4.171837	-5.107564	-1.899255
H	3.601473	-4.131473	-0.490123
H	3.068969	-3.712085	-2.171521
C	-0.930308	-2.314326	0.537642
S	1.334769	-2.295487	-0.785807
C	0.000000	-1.435180	0.000000
H	-1.836691	-1.993211	1.066134
H	-0.249906	-9.615985	0.091781
C	0.000000	0.000000	0.000000
S	0.309721	0.844422	1.510732
C	0.847502	2.325108	0.727629
C	0.310602	0.853460	-1.064665
C	0.784173	2.159014	-0.678287
C	0.289451	0.790512	-2.486150
C	0.721927	1.979112	-3.106916
S	1.145464	3.152519	-1.965735
C	0.813355	2.216642	-4.559972
O	0.496884	1.338418	-5.350277
O	1.255274	3.421340	-5.004375
F	-0.087923	-0.257761	-3.246290
C	1.387494	3.754937	-6.334976
H	1.765978	4.793056	-6.370268
H	0.417095	3.693789	-6.875609
H	2.098820	3.081033	-6.861878
H	1.162229	3.189623	1.321510
$end

$rem
JOBTYPE		SP
EXCHANGE	HF
CORRELATION	pRIMP2
BASIS		cc-pvtz
METHOD		rimp2
AUX_BASIS	rimp2-cc-pvtz
SOLVENT_METHOD	PCM
PURECART	11111
SYMMETRY	false
MEM_TOTAL	110000
SCF_CONVERGENCE = 6
THRESH=10
GUI = 2
$end

$solvent
dielectric 4.90
$end
--------------------------------------------------------------

             Standard Nuclear Orientation (Angstroms)
    I     Atom           X                Y                Z
 ----------------------------------------------------------------
    1      C      -0.2559290000    -8.5197410000     0.0924190000
    2      C       0.6660070000    -7.6359670000    -0.4493640000
    3      S      -1.5927080000    -7.6517400000     0.8857360000
    4      C       0.3323170000    -6.2618940000    -0.2548130000
    5      H       1.5717410000    -7.9547380000    -0.9805260000
    6      C      -0.9043240000    -6.0799850000     0.4589650000
    7      C      -1.3859680000    -4.7983820000     0.7678230000
    8      C       1.1183030000    -5.1535420000    -0.6819090000
    9      C       0.6385140000    -3.8696260000    -0.3691390000
   10      C      -0.6008710000    -3.6889270000     0.3429160000
   11      O       2.2481320000    -5.4810750000    -1.3685440000
   12      O      -2.5202750000    -4.4798710000     1.4585700000
   13      C      -3.6396370000    -5.3560260000     1.4053960000
   14      H      -4.4953040000    -4.7904960000     1.8209400000
   15      H      -3.4903360000    -6.2685130000     2.0231290000
   16      H      -3.8733140000    -5.6581870000     0.3615950000
   17      C       3.3149340000    -4.5469990000    -1.4800480000
   18      H       4.1718370000    -5.1075640000    -1.8992550000
   19      H       3.6014730000    -4.1314730000    -0.4901230000
   20      H       3.0689690000    -3.7120850000    -2.1715210000
   21      C      -0.9303080000    -2.3143260000     0.5376420000
   22      S       1.3347690000    -2.2954870000    -0.7858070000
   23      C       0.0000000000    -1.4351800000     0.0000000000
   24      H      -1.8366910000    -1.9932110000     1.0661340000
   25      H      -0.2499060000    -9.6159850000     0.0917810000
   26      C       0.0000000000     0.0000000000     0.0000000000
   27      S       0.3097210000     0.8444220000     1.5107320000
   28      C       0.8475020000     2.3251080000     0.7276290000
   29      C       0.3106020000     0.8534600000    -1.0646650000
   30      C       0.7841730000     2.1590140000    -0.6782870000
   31      C       0.2894510000     0.7905120000    -2.4861500000
   32      C       0.7219270000     1.9791120000    -3.1069160000
   33      S       1.1454640000     3.1525190000    -1.9657350000
   34      C       0.8133550000     2.2166420000    -4.5599720000
   35      O       0.4968840000     1.3384180000    -5.3502770000
   36      O       1.2552740000     3.4213400000    -5.0043750000
   37      F      -0.0879230000    -0.2577610000    -3.2462900000
   38      C       1.3874940000     3.7549370000    -6.3349760000
   39      H       1.7659780000     4.7930560000    -6.3702680000
   40      H       0.4170950000     3.6937890000    -6.8756090000
   41      H       2.0988200000     3.0810330000    -6.8618780000
   42      H       1.1622290000     3.1896230000     1.3215100000
 ----------------------------------------------------------------

   10   -2754.2903557191      8.58e-07  Convergence criterion met
 Total energy in the final basis set =    -2754.2903557191
        RIMP2         total energy =     -2759.3455400970 a.u.

                    Orbital Energies (a.u.)
 --------------------------------------------------------------

 Alpha MOs
 -- Occupied --
-92.0164 -91.9956 -91.9898 -91.9864 -26.3339 -20.6122 -20.5922 -20.5917
-20.5504 -11.4106 -11.3773 -11.3192 -11.3182 -11.3073 -11.2982 -11.2971
-11.2958 -11.2938 -11.2885 -11.2868 -11.2863 -11.2862 -11.2840 -11.2831
-11.2800 -11.2608 -11.2593 -11.2573 -11.2500  -9.0146  -8.9995  -8.9902
 -8.9863  -6.6953  -6.6947  -6.6942  -6.6808  -6.6801  -6.6788  -6.6711
 -6.6704  -6.6694  -6.6673  -6.6667  -6.6658  -1.6469  -1.4720  -1.4163
 -1.4144  -1.3673  -1.2342  -1.1959  -1.1685  -1.1422  -1.0842  -1.0522
 -1.0477  -1.0281  -1.0023  -0.9931  -0.9717  -0.9611  -0.9504  -0.9385
 -0.8958  -0.8696  -0.8502  -0.8065  -0.7907  -0.7880  -0.7747  -0.7664
 -0.7580  -0.7326  -0.7181  -0.7152  -0.7008  -0.6887  -0.6830  -0.6786
 -0.6715  -0.6610  -0.6591  -0.6527  -0.6300  -0.6200  -0.6170  -0.6066
 -0.6029  -0.5952  -0.5828  -0.5775  -0.5674  -0.5656  -0.5567  -0.5511
 -0.5339  -0.5268  -0.5246  -0.5161  -0.5141  -0.5084  -0.5014  -0.4960
 -0.4895  -0.4845  -0.4756  -0.4683  -0.4618  -0.4614  -0.4601  -0.4105
 -0.3998  -0.3867  -0.3575  -0.3500  -0.3184  -0.2874  -0.2558

          Ground-State Mulliken Net Atomic Charges

     Atom                 Charge (a.u.)
  ----------------------------------------
      1 C                    -0.187614
      2 C                    -0.254486
      3 S                    -0.022506
      4 C                    -0.013582
      5 H                     0.196507
      6 C                    -0.026234
      7 C                     0.241495
      8 C                     0.240685
      9 C                    -0.041600
     10 C                    -0.013696
     11 O                    -0.333129
     12 O                    -0.339977
     13 C                    -0.085551
     14 H                     0.122498
     15 H                     0.090930
     16 H                     0.094533
     17 C                    -0.087347
     18 H                     0.125236
     19 H                     0.094313
     20 H                     0.090651
     21 C                    -0.246712
     22 S                    -0.004697
     23 C                    -0.031172
     24 H                     0.196621
     25 H                     0.206564
     26 C                     0.012779
     27 S                     0.124007
     28 C                    -0.235050
     29 C                    -0.146018
     30 C                     0.000100
     31 C                     0.392610
     32 C                    -0.152396
     33 S                     0.042479
     34 C                     0.460807
     35 O                    -0.449093
     36 O                    -0.297916
     37 F                    -0.209942
     38 C                    -0.054852
     39 H                     0.116595
     40 H                     0.084761
     41 H                     0.084478
     42 H                     0.214920
  ----------------------------------------
  Sum of atomic charges =     0.000000

                    Cartesian Multipole Moments
 -----------------------------------------------------------------
    Charge (ESU x 10^10)
                -0.0000
    Dipole Moment (Debye)
         X       1.2679      Y       1.5680      Z       2.9628
       Tot       3.5839
    Quadrupole Moments (Debye-Ang)
        XX    -176.6550     XY       6.2051     YY    -160.3492
        XZ     -10.8488     YZ      -8.9421     ZZ    -204.1785

 Total job time:  339.65s(wall), 11068.29s(cpu)
        *  Thank you very much for using Q-Chem.  Have a nice day.  *
