 Q-Chem 5.4, Q-Chem, Inc., Pleasanton, CA (2021)
 Q-Chem 5.4.0 for Intel X86 EM64T Linux

User input:
--------------------------------------------------------------
$molecule
0 1
C	-0.093711	-8.519741	0.255459
C	0.083869	-7.635967	-0.799036
S	-0.345260	-7.651740	1.789425
C	0.018411	-6.261894	-0.418360
H	0.259169	-7.954738	-1.834294
C	-0.229701	-6.079985	0.987769
C	-0.302697	-4.798382	1.555260
C	0.196459	-5.153542	-1.294992
C	0.127651	-3.869626	-0.726408
C	-0.123544	-3.688927	0.680716
O	0.396706	-5.481075	-2.601852
O	-0.502673	-4.479871	2.868193
C	-1.262918	-5.356026	3.691495
H	-1.494604	-4.790496	4.614080
H	-0.693738	-6.268513	3.974195
H	-2.212720	-5.658187	3.199559
C	0.997016	-4.546999	-3.490743
H	1.226691	-5.107564	-4.416630
H	1.939526	-4.131473	-3.073934
H	0.309214	-3.712085	-3.746794
C	-0.186133	-2.314326	1.058247
S	0.256010	-2.295487	-1.527599
C	-0.000000	-1.435180	-0.000000
H	-0.363896	-1.993211	2.092285
H	-0.090328	-9.615985	0.250435
C	0.000000	0.000000	0.000000
S	0.382139	0.814215	1.510732
C	1.046923	2.242395	0.727629
C	0.383804	0.823142	-1.064665
C	0.969360	2.082453	-0.678287
C	0.357247	0.762277	-2.486150
C	0.891671	1.908660	-3.106916
S	1.415865	3.040689	-1.965735
C	1.003453	2.137318	-4.559972
O	0.611644	1.290019	-5.350277
O	1.548687	3.298916	-5.004375
F	-0.110054	-0.249117	-3.246290
C	1.709479	3.619721	-6.334976
H	2.177001	4.620902	-6.370268
H	0.737443	3.643380	-6.875609
H	2.359363	2.886384	-6.861878
H	1.435800	3.076190	1.321510
$end

$rem
JOBTYPE		SP
EXCHANGE	HF
CORRELATION	pRIMP2
BASIS		cc-pvtz
METHOD		rimp2
AUX_BASIS	rimp2-cc-pvtz
SOLVENT_METHOD	PCM
PURECART	11111
SYMMETRY	false
MEM_TOTAL	110000
SCF_CONVERGENCE = 6
THRESH=10
GUI = 2
$end

$solvent
dielectric 4.90
$end
--------------------------------------------------------------

             Standard Nuclear Orientation (Angstroms)
    I     Atom           X                Y                Z
 ----------------------------------------------------------------
    1      C      -0.0937110000    -8.5197410000     0.2554590000
    2      C       0.0838690000    -7.6359670000    -0.7990360000
    3      S      -0.3452600000    -7.6517400000     1.7894250000
    4      C       0.0184110000    -6.2618940000    -0.4183600000
    5      H       0.2591690000    -7.9547380000    -1.8342940000
    6      C      -0.2297010000    -6.0799850000     0.9877690000
    7      C      -0.3026970000    -4.7983820000     1.5552600000
    8      C       0.1964590000    -5.1535420000    -1.2949920000
    9      C       0.1276510000    -3.8696260000    -0.7264080000
   10      C      -0.1235440000    -3.6889270000     0.6807160000
   11      O       0.3967060000    -5.4810750000    -2.6018520000
   12      O      -0.5026730000    -4.4798710000     2.8681930000
   13      C      -1.2629180000    -5.3560260000     3.6914950000
   14      H      -1.4946040000    -4.7904960000     4.6140800000
   15      H      -0.6937380000    -6.2685130000     3.9741950000
   16      H      -2.2127200000    -5.6581870000     3.1995590000
   17      C       0.9970160000    -4.5469990000    -3.4907430000
   18      H       1.2266910000    -5.1075640000    -4.4166300000
   19      H       1.9395260000    -4.1314730000    -3.0739340000
   20      H       0.3092140000    -3.7120850000    -3.7467940000
   21      C      -0.1861330000    -2.3143260000     1.0582470000
   22      S       0.2560100000    -2.2954870000    -1.5275990000
   23      C       0.0000000000    -1.4351800000     0.0000000000
   24      H      -0.3638960000    -1.9932110000     2.0922850000
   25      H      -0.0903280000    -9.6159850000     0.2504350000
   26      C       0.0000000000     0.0000000000     0.0000000000
   27      S       0.3821390000     0.8142150000     1.5107320000
   28      C       1.0469230000     2.2423950000     0.7276290000
   29      C       0.3838040000     0.8231420000    -1.0646650000
   30      C       0.9693600000     2.0824530000    -0.6782870000
   31      C       0.3572470000     0.7622770000    -2.4861500000
   32      C       0.8916710000     1.9086600000    -3.1069160000
   33      S       1.4158650000     3.0406890000    -1.9657350000
   34      C       1.0034530000     2.1373180000    -4.5599720000
   35      O       0.6116440000     1.2900190000    -5.3502770000
   36      O       1.5486870000     3.2989160000    -5.0043750000
   37      F      -0.1100540000    -0.2491170000    -3.2462900000
   38      C       1.7094790000     3.6197210000    -6.3349760000
   39      H       2.1770010000     4.6209020000    -6.3702680000
   40      H       0.7374430000     3.6433800000    -6.8756090000
   41      H       2.3593630000     2.8863840000    -6.8618780000
   42      H       1.4358000000     3.0761900000     1.3215100000
 ----------------------------------------------------------------

   10   -2754.2814310526      8.49e-07  Convergence criterion met
 Total energy in the final basis set =    -2754.2814310526
        RIMP2         total energy =     -2759.3421673967 a.u.

                    Orbital Energies (a.u.)
 --------------------------------------------------------------

 Alpha MOs
 -- Occupied --
-92.0148 -91.9973 -91.9856 -91.9849 -26.3360 -20.6130 -20.5910 -20.5909
-20.5516 -11.4118 -11.3788 -11.3180 -11.3163 -11.3086 -11.3006 -11.2994
-11.2980 -11.2968 -11.2891 -11.2859 -11.2854 -11.2850 -11.2831 -11.2831
-11.2786 -11.2606 -11.2575 -11.2545 -11.2493  -9.0134  -9.0012  -8.9859
 -8.9855  -6.6942  -6.6935  -6.6931  -6.6825  -6.6818  -6.6805  -6.6667
 -6.6665  -6.6660  -6.6658  -6.6650  -6.6649  -1.6516  -1.4729  -1.4152
 -1.4135  -1.3684  -1.2362  -1.1951  -1.1688  -1.1428  -1.0844  -1.0515
 -1.0487  -1.0299  -1.0014  -0.9933  -0.9733  -0.9599  -0.9494  -0.9385
 -0.8951  -0.8712  -0.8505  -0.8099  -0.7958  -0.7869  -0.7753  -0.7632
 -0.7574  -0.7318  -0.7219  -0.7186  -0.6998  -0.6895  -0.6831  -0.6794
 -0.6747  -0.6621  -0.6579  -0.6518  -0.6276  -0.6189  -0.6157  -0.6076
 -0.6035  -0.5975  -0.5870  -0.5703  -0.5690  -0.5634  -0.5590  -0.5526
 -0.5310  -0.5260  -0.5242  -0.5181  -0.5143  -0.5081  -0.5023  -0.4950
 -0.4862  -0.4837  -0.4794  -0.4641  -0.4623  -0.4622  -0.4570  -0.4243
 -0.3936  -0.3864  -0.3608  -0.3497  -0.3243  -0.2846  -0.2454

          Ground-State Mulliken Net Atomic Charges

     Atom                 Charge (a.u.)
  ----------------------------------------
      1 C                    -0.190484
      2 C                    -0.254212
      3 S                    -0.024422
      4 C                    -0.016866
      5 H                     0.196386
      6 C                    -0.028302
      7 C                     0.238543
      8 C                     0.242584
      9 C                    -0.043484
     10 C                    -0.016798
     11 O                    -0.333523
     12 O                    -0.340776
     13 C                    -0.085567
     14 H                     0.121956
     15 H                     0.090962
     16 H                     0.094001
     17 C                    -0.089667
     18 H                     0.125558
     19 H                     0.093962
     20 H                     0.092074
     21 C                    -0.253428
     22 S                    -0.023500
     23 C                    -0.002269
     24 H                     0.187416
     25 H                     0.206144
     26 C                     0.037896
     27 S                     0.106474
     28 C                    -0.224006
     29 C                    -0.101866
     30 C                    -0.026109
     31 C                     0.346690
     32 C                    -0.127042
     33 S                     0.048553
     34 C                     0.457549
     35 O                    -0.448389
     36 O                    -0.297682
     37 F                    -0.207285
     38 C                    -0.054724
     39 H                     0.116971
     40 H                     0.084806
     41 H                     0.084564
     42 H                     0.217310
  ----------------------------------------
  Sum of atomic charges =     0.000000

                    Cartesian Multipole Moments
 -----------------------------------------------------------------
    Charge (ESU x 10^10)
                 0.0000
    Dipole Moment (Debye)
         X       1.4468      Y       2.1115      Z       2.7040
       Tot       3.7234
    Quadrupole Moments (Debye-Ang)
        XX    -194.9573     XY       7.9283     YY    -164.0348
        XZ     -13.8846     YZ      -9.4216     ZZ    -184.1604

 Total job time:  311.74s(wall), 9681.52s(cpu)
        *  Thank you very much for using Q-Chem.  Have a nice day.  *
