 Q-Chem 5.4, Q-Chem, Inc., Pleasanton, CA (2021)
 Q-Chem 5.4.0 for Intel X86 EM64T Linux

User input:
--------------------------------------------------------------
$molecule
0 1
C	0.235993	-8.519741	-0.135457
C	-0.577858	-7.635967	0.558188
S	1.414705	-7.651740	-1.148850
C	-0.283020	-6.261894	0.308648
H	-1.377597	-7.954738	1.238560
C	0.810887	-6.079985	-0.609026
C	1.231581	-4.798382	-0.996828
C	-0.982901	-5.153542	0.865740
C	-0.564713	-3.869626	0.474408
C	0.532196	-3.688927	-0.442046
O	-1.976332	-5.481075	1.738137
O	2.228709	-4.479871	-1.874052
C	3.340298	-5.356026	-2.016062
H	4.110807	-4.790496	-2.573877
H	3.085998	-6.268513	-2.598484
H	3.751679	-5.658187	-1.028695
C	-3.007565	-4.546999	2.033195
H	-3.778655	-5.107564	2.594833
H	-3.461650	-4.131473	1.108067
H	-2.645264	-3.712085	2.671451
C	0.822814	-2.314326	-0.691020
S	-1.178037	-2.295487	1.005649
C	0.000000	-1.435180	0.000000
H	1.623656	-1.993211	-1.368875
H	0.230172	-9.615985	-0.133782
C	0.000000	0.000000	0.000000
S	0.780044	0.447780	1.510732
C	2.143774	1.236372	0.727629
C	0.786529	0.454137	-1.064665
C	1.988499	1.149844	-0.678287
C	0.729864	0.419512	-2.486150
C	1.825177	1.052041	-3.106916
S	2.903877	1.678680	-1.965735
C	2.047896	1.175232	-4.559972
O	1.240953	0.705897	-5.350277
O	3.160791	1.814024	-5.004375
F	-0.233039	-0.140940	-3.246290
C	3.476510	1.984585	-6.334976
H	4.433735	2.536545	-6.370268
H	2.693835	2.561503	-6.875609
H	3.588239	1.011113	-6.861878
H	2.940569	1.696327	1.321510
$end

$rem
JOBTYPE		SP
EXCHANGE	HF
CORRELATION	pRIMP2
BASIS		cc-pvtz
METHOD		rimp2
AUX_BASIS	rimp2-cc-pvtz
SOLVENT_METHOD	PCM
PURECART	11111
SYMMETRY	false
MEM_TOTAL	110000
SCF_CONVERGENCE = 6
THRESH=10
GUI = 2
$end

$solvent
dielectric 4.90
$end
--------------------------------------------------------------

             Standard Nuclear Orientation (Angstroms)
    I     Atom           X                Y                Z
 ----------------------------------------------------------------
    1      C       0.2359930000    -8.5197410000    -0.1354570000
    2      C      -0.5778580000    -7.6359670000     0.5581880000
    3      S       1.4147050000    -7.6517400000    -1.1488500000
    4      C      -0.2830200000    -6.2618940000     0.3086480000
    5      H      -1.3775970000    -7.9547380000     1.2385600000
    6      C       0.8108870000    -6.0799850000    -0.6090260000
    7      C       1.2315810000    -4.7983820000    -0.9968280000
    8      C      -0.9829010000    -5.1535420000     0.8657400000
    9      C      -0.5647130000    -3.8696260000     0.4744080000
   10      C       0.5321960000    -3.6889270000    -0.4420460000
   11      O      -1.9763320000    -5.4810750000     1.7381370000
   12      O       2.2287090000    -4.4798710000    -1.8740520000
   13      C       3.3402980000    -5.3560260000    -2.0160620000
   14      H       4.1108070000    -4.7904960000    -2.5738770000
   15      H       3.0859980000    -6.2685130000    -2.5984840000
   16      H       3.7516790000    -5.6581870000    -1.0286950000
   17      C      -3.0075650000    -4.5469990000     2.0331950000
   18      H      -3.7786550000    -5.1075640000     2.5948330000
   19      H      -3.4616500000    -4.1314730000     1.1080670000
   20      H      -2.6452640000    -3.7120850000     2.6714510000
   21      C       0.8228140000    -2.3143260000    -0.6910200000
   22      S      -1.1780370000    -2.2954870000     1.0056490000
   23      C       0.0000000000    -1.4351800000     0.0000000000
   24      H       1.6236560000    -1.9932110000    -1.3688750000
   25      H       0.2301720000    -9.6159850000    -0.1337820000
   26      C       0.0000000000     0.0000000000     0.0000000000
   27      S       0.7800440000     0.4477800000     1.5107320000
   28      C       2.1437740000     1.2363720000     0.7276290000
   29      C       0.7865290000     0.4541370000    -1.0646650000
   30      C       1.9884990000     1.1498440000    -0.6782870000
   31      C       0.7298640000     0.4195120000    -2.4861500000
   32      C       1.8251770000     1.0520410000    -3.1069160000
   33      S       2.9038770000     1.6786800000    -1.9657350000
   34      C       2.0478960000     1.1752320000    -4.5599720000
   35      O       1.2409530000     0.7058970000    -5.3502770000
   36      O       3.1607910000     1.8140240000    -5.0043750000
   37      F      -0.2330390000    -0.1409400000    -3.2462900000
   38      C       3.4765100000     1.9845850000    -6.3349760000
   39      H       4.4337350000     2.5365450000    -6.3702680000
   40      H       2.6938350000     2.5615030000    -6.8756090000
   41      H       3.5882390000     1.0111130000    -6.8618780000
   42      H       2.9405690000     1.6963270000     1.3215100000
 ----------------------------------------------------------------

   11   -2754.2363568799      6.33e-07  Convergence criterion met
 Total energy in the final basis set =    -2754.2363568799
        RIMP2         total energy =     -2759.3071246949 a.u.

                    Orbital Energies (a.u.)
 --------------------------------------------------------------

 Alpha MOs
 -- Occupied --
-92.0177 -92.0067 -91.9834 -91.9805 -26.3345 -20.6162 -20.5902 -20.5878
-20.5573 -11.4166 -11.3773 -11.3283 -11.3160 -11.3123 -11.3113 -11.3022
-11.2960 -11.2952 -11.2906 -11.2853 -11.2843 -11.2809 -11.2790 -11.2754
-11.2747 -11.2569 -11.2532 -11.2476 -11.2420  -9.0167  -9.0102  -8.9833
 -8.9816  -6.6972  -6.6963  -6.6962  -6.6913  -6.6907  -6.6895  -6.6643
 -6.6637  -6.6628  -6.6626  -6.6618  -6.6609  -1.6475  -1.4764  -1.4141
 -1.4106  -1.3725  -1.2451  -1.1924  -1.1706  -1.1447  -1.0847  -1.0524
 -1.0475  -1.0337  -0.9978  -0.9923  -0.9762  -0.9580  -0.9482  -0.9390
 -0.8929  -0.8761  -0.8426  -0.8031  -0.7971  -0.7856  -0.7768  -0.7689
 -0.7530  -0.7304  -0.7192  -0.7157  -0.6994  -0.6934  -0.6820  -0.6795
 -0.6775  -0.6620  -0.6567  -0.6501  -0.6274  -0.6175  -0.6155  -0.6120
 -0.6092  -0.6020  -0.5799  -0.5735  -0.5676  -0.5611  -0.5557  -0.5462
 -0.5332  -0.5258  -0.5229  -0.5159  -0.5129  -0.5073  -0.5037  -0.4957
 -0.4899  -0.4851  -0.4683  -0.4667  -0.4644  -0.4614  -0.4572  -0.4089
 -0.3926  -0.3835  -0.3587  -0.3488  -0.3208  -0.2906  -0.2500

          Ground-State Mulliken Net Atomic Charges

     Atom                 Charge (a.u.)
  ----------------------------------------
      1 C                    -0.196661
      2 C                    -0.253999
      3 S                    -0.027874
      4 C                    -0.020975
      5 H                     0.195318
      6 C                    -0.024312
      7 C                     0.234108
      8 C                     0.246029
      9 C                    -0.045084
     10 C                    -0.024658
     11 O                    -0.333936
     12 O                    -0.342184
     13 C                    -0.085730
     14 H                     0.121057
     15 H                     0.090949
     16 H                     0.092379
     17 C                    -0.087014
     18 H                     0.124789
     19 H                     0.094795
     20 H                     0.089134
     21 C                    -0.276924
     22 S                    -0.047343
     23 C                     0.050179
     24 H                     0.188184
     25 H                     0.204822
     26 C                    -0.192530
     27 S                     0.144013
     28 C                    -0.143317
     29 C                    -0.051839
     30 C                    -0.022763
     31 C                     0.385082
     32 C                    -0.129725
     33 S                     0.074910
     34 C                     0.458695
     35 O                    -0.437667
     36 O                    -0.296788
     37 F                    -0.209999
     38 C                    -0.054715
     39 H                     0.117476
     40 H                     0.085930
     41 H                     0.085882
     42 H                     0.222308
  ----------------------------------------
  Sum of atomic charges =     0.000000

                    Cartesian Multipole Moments
 -----------------------------------------------------------------
    Charge (ESU x 10^10)
                 0.0000
    Dipole Moment (Debye)
         X       5.1290      Y       2.6932      Z       3.0237
       Tot       6.5347
    Quadrupole Moments (Debye-Ang)
        XX    -166.5191     XY       8.9615     YY    -179.3107
        XZ     -20.4411     YZ      -7.6422     ZZ    -197.5257

 Total job time:  307.89s(wall), 9987.96s(cpu)
        *  Thank you very much for using Q-Chem.  Have a nice day.  *
