 Q-Chem 5.4, Q-Chem, Inc., Pleasanton, CA (2021)
 Q-Chem 5.4.0 for Intel X86 EM64T Linux

User input:
--------------------------------------------------------------
$molecule
0 1
C	0.092419	-8.519741	0.255929
C	-0.449364	-7.635967	-0.666007
S	0.885736	-7.651740	1.592708
C	-0.254813	-6.261894	-0.332317
H	-0.980526	-7.954738	-1.571741
C	0.458965	-6.079985	0.904324
C	0.767823	-4.798382	1.385968
C	-0.681909	-5.153542	-1.118303
C	-0.369139	-3.869626	-0.638514
C	0.342916	-3.688927	0.600871
O	-1.368544	-5.481075	-2.248132
O	1.458570	-4.479871	2.520275
C	1.405396	-5.356026	3.639637
H	1.820940	-4.790496	4.495304
H	2.023129	-6.268513	3.490336
H	0.361595	-5.658187	3.873314
C	-1.480048	-4.546999	-3.314934
H	-1.899255	-5.107564	-4.171837
H	-0.490123	-4.131473	-3.601473
H	-2.171521	-3.712085	-3.068969
C	0.537642	-2.314326	0.930308
S	-0.785807	-2.295487	-1.334769
C	-0.000000	-1.435180	-0.000000
H	1.066134	-1.993211	1.836691
H	0.091781	-9.615985	0.249906
C	0.000000	0.000000	0.000000
S	0.158383	0.885376	1.510732
C	0.430876	2.436951	0.727629
C	0.157682	0.894430	-1.064665
C	0.397351	2.262384	-0.678287
C	0.147783	0.828765	-2.486150
C	0.367291	2.074406	-3.106916
S	0.580633	3.303533	-1.965735
C	0.416083	2.324204	-4.559972
O	0.256921	1.404367	-5.350277
O	0.642094	3.587338	-5.004375
F	-0.041828	-0.269113	-3.246290
C	0.714377	3.938827	-6.334976
H	0.906844	5.026898	-6.370268
H	-0.230661	3.710099	-6.875609
H	1.531918	3.398681	-6.861878
H	0.590699	3.342984	1.321510
$end

$rem
JOBTYPE		SP
EXCHANGE	HF
CORRELATION	pRIMP2
BASIS		cc-pvtz
METHOD		rimp2
AUX_BASIS	rimp2-cc-pvtz
SOLVENT_METHOD	PCM
PURECART	11111
SYMMETRY	false
MEM_TOTAL	110000
SCF_CONVERGENCE = 6
THRESH=10
GUI = 2
$end

$solvent
dielectric 4.90
$end
--------------------------------------------------------------

             Standard Nuclear Orientation (Angstroms)
    I     Atom           X                Y                Z
 ----------------------------------------------------------------
    1      C       0.0924190000    -8.5197410000     0.2559290000
    2      C      -0.4493640000    -7.6359670000    -0.6660070000
    3      S       0.8857360000    -7.6517400000     1.5927080000
    4      C      -0.2548130000    -6.2618940000    -0.3323170000
    5      H      -0.9805260000    -7.9547380000    -1.5717410000
    6      C       0.4589650000    -6.0799850000     0.9043240000
    7      C       0.7678230000    -4.7983820000     1.3859680000
    8      C      -0.6819090000    -5.1535420000    -1.1183030000
    9      C      -0.3691390000    -3.8696260000    -0.6385140000
   10      C       0.3429160000    -3.6889270000     0.6008710000
   11      O      -1.3685440000    -5.4810750000    -2.2481320000
   12      O       1.4585700000    -4.4798710000     2.5202750000
   13      C       1.4053960000    -5.3560260000     3.6396370000
   14      H       1.8209400000    -4.7904960000     4.4953040000
   15      H       2.0231290000    -6.2685130000     3.4903360000
   16      H       0.3615950000    -5.6581870000     3.8733140000
   17      C      -1.4800480000    -4.5469990000    -3.3149340000
   18      H      -1.8992550000    -5.1075640000    -4.1718370000
   19      H      -0.4901230000    -4.1314730000    -3.6014730000
   20      H      -2.1715210000    -3.7120850000    -3.0689690000
   21      C       0.5376420000    -2.3143260000     0.9303080000
   22      S      -0.7858070000    -2.2954870000    -1.3347690000
   23      C       0.0000000000    -1.4351800000     0.0000000000
   24      H       1.0661340000    -1.9932110000     1.8366910000
   25      H       0.0917810000    -9.6159850000     0.2499060000
   26      C       0.0000000000     0.0000000000     0.0000000000
   27      S       0.1583830000     0.8853760000     1.5107320000
   28      C       0.4308760000     2.4369510000     0.7276290000
   29      C       0.1576820000     0.8944300000    -1.0646650000
   30      C       0.3973510000     2.2623840000    -0.6782870000
   31      C       0.1477830000     0.8287650000    -2.4861500000
   32      C       0.3672910000     2.0744060000    -3.1069160000
   33      S       0.5806330000     3.3035330000    -1.9657350000
   34      C       0.4160830000     2.3242040000    -4.5599720000
   35      O       0.2569210000     1.4043670000    -5.3502770000
   36      O       0.6420940000     3.5873380000    -5.0043750000
   37      F      -0.0418280000    -0.2691130000    -3.2462900000
   38      C       0.7143770000     3.9388270000    -6.3349760000
   39      H       0.9068440000     5.0268980000    -6.3702680000
   40      H      -0.2306610000     3.7100990000    -6.8756090000
   41      H       1.5319180000     3.3986810000    -6.8618780000
   42      H       0.5906990000     3.3429840000     1.3215100000
 ----------------------------------------------------------------

   10   -2754.2941560855      8.02e-07  Convergence criterion met
 Total energy in the final basis set =    -2754.2941560855
        RIMP2         total energy =     -2759.3497801583 a.u.

                    Orbital Energies (a.u.)
 --------------------------------------------------------------

 Alpha MOs
 -- Occupied --
-92.0157 -91.9948 -91.9870 -91.9864 -26.3344 -20.6119 -20.5920 -20.5915
-20.5497 -11.4101 -11.3781 -11.3187 -11.3185 -11.3130 -11.2972 -11.2971
-11.2968 -11.2932 -11.2884 -11.2865 -11.2859 -11.2857 -11.2839 -11.2825
-11.2800 -11.2615 -11.2593 -11.2589 -11.2499  -9.0140  -8.9988  -8.9877
 -8.9863  -6.6947  -6.6941  -6.6936  -6.6801  -6.6794  -6.6781  -6.6686
 -6.6679  -6.6673  -6.6669  -6.6667  -6.6658  -1.6488  -1.4717  -1.4158
 -1.4146  -1.3669  -1.2340  -1.1963  -1.1689  -1.1420  -1.0846  -1.0522
 -1.0479  -1.0284  -1.0023  -0.9937  -0.9721  -0.9608  -0.9500  -0.9383
 -0.8958  -0.8694  -0.8516  -0.8089  -0.7933  -0.7871  -0.7750  -0.7643
 -0.7582  -0.7326  -0.7193  -0.7165  -0.7006  -0.6885  -0.6837  -0.6784
 -0.6725  -0.6616  -0.6586  -0.6525  -0.6293  -0.6199  -0.6164  -0.6064
 -0.6014  -0.5951  -0.5882  -0.5727  -0.5689  -0.5675  -0.5572  -0.5524
 -0.5303  -0.5271  -0.5220  -0.5185  -0.5147  -0.5090  -0.5018  -0.4948
 -0.4870  -0.4833  -0.4798  -0.4662  -0.4615  -0.4608  -0.4597  -0.4209
 -0.3959  -0.3865  -0.3589  -0.3504  -0.3234  -0.2845  -0.2496

          Ground-State Mulliken Net Atomic Charges

     Atom                 Charge (a.u.)
  ----------------------------------------
      1 C                    -0.187673
      2 C                    -0.253914
      3 S                    -0.022804
      4 C                    -0.013390
      5 H                     0.196650
      6 C                    -0.030361
      7 C                     0.243667
      8 C                     0.240806
      9 C                    -0.045762
     10 C                    -0.029702
     11 O                    -0.333801
     12 O                    -0.340288
     13 C                    -0.085552
     14 H                     0.122464
     15 H                     0.091222
     16 H                     0.094131
     17 C                    -0.087691
     18 H                     0.124863
     19 H                     0.096008
     20 H                     0.089599
     21 C                    -0.240106
     22 S                    -0.004156
     23 C                    -0.002434
     24 H                     0.193818
     25 H                     0.206579
     26 C                    -0.004587
     27 S                     0.096981
     28 C                    -0.231410
     29 C                    -0.083288
     30 C                    -0.020884
     31 C                     0.378414
     32 C                    -0.142417
     33 S                     0.037730
     34 C                     0.458748
     35 O                    -0.451227
     36 O                    -0.297924
     37 F                    -0.208725
     38 C                    -0.054966
     39 H                     0.116603
     40 H                     0.084353
     41 H                     0.084433
     42 H                     0.215993
  ----------------------------------------
  Sum of atomic charges =     0.000000

                    Cartesian Multipole Moments
 -----------------------------------------------------------------
    Charge (ESU x 10^10)
                -0.0000
    Dipole Moment (Debye)
         X       0.3397      Y       1.5328      Z       3.1309
       Tot       3.5025
    Quadrupole Moments (Debye-Ang)
        XX    -199.4091     XY       3.9024     YY    -159.7033
        XZ       5.1254     YZ     -11.1052     ZZ    -183.1386

 Total job time:  281.98s(wall), 9147.11s(cpu)
        *  Thank you very much for using Q-Chem.  Have a nice day.  *
