 Q-Chem 5.4, Q-Chem, Inc., Pleasanton, CA (2021)
 Q-Chem 5.4.0 for Intel X86 EM64T Linux

User input:
--------------------------------------------------------------
$molecule
0 1
C	0.208886	-8.519741	-0.174379
C	-0.472151	-7.635967	0.650052
S	1.193717	-7.651740	-1.377058
C	-0.225125	-6.261894	0.353105
H	-1.141594	-7.954738	1.458961
C	0.692811	-6.079985	-0.740583
C	1.039773	-4.798382	-1.195546
C	-0.817634	-5.153542	1.023267
C	-0.473754	-3.869626	0.565262
C	0.447350	-3.688927	-0.527745
O	-1.644483	-5.481075	2.054917
O	1.869424	-4.479871	-2.232592
C	2.939466	-5.356026	-2.565470
H	3.601405	-4.790496	-3.248608
H	2.587892	-6.268513	-3.094885
H	3.516052	-5.658187	-1.664539
C	-2.608813	-4.546999	2.524564
H	-3.270661	-5.107564	3.211568
H	-3.216646	-4.131473	1.692342
H	-2.141184	-3.712085	3.090211
C	0.690319	-2.314326	-0.823402
S	-0.985511	-2.295487	1.194935
C	-0.000000	-1.435180	-0.000000
H	1.361286	-1.993211	-1.630024
H	0.203444	-9.615985	-0.171719
C	0.000000	0.000000	0.000000
S	0.690437	0.576430	1.510732
C	1.896512	1.589852	0.727629
C	0.695720	0.583817	-1.064665
C	1.758621	1.477674	-0.678287
C	0.645928	0.539878	-2.486150
C	1.614763	1.352997	-3.106916
S	2.568261	2.157430	-1.965735
C	1.812707	1.512991	-4.559972
O	1.099523	0.910662	-5.350277
O	2.797769	2.335330	-5.004375
F	-0.205024	-0.179266	-3.246290
C	3.079074	2.558124	-6.334976
H	3.925910	3.267919	-6.370268
H	2.208109	2.990367	-6.875609
H	3.358147	1.618843	-6.861878
H	2.601331	2.181180	1.321510
$end

$rem
JOBTYPE		SP
EXCHANGE	HF
CORRELATION	pRIMP2
BASIS		cc-pvtz
METHOD		rimp2
AUX_BASIS	rimp2-cc-pvtz
SOLVENT_METHOD	PCM
PURECART	11111
SYMMETRY	false
MEM_TOTAL	110000
SCF_CONVERGENCE = 6
THRESH=10
GUI = 2
$end

$solvent
dielectric 4.90
$end
--------------------------------------------------------------

             Standard Nuclear Orientation (Angstroms)
    I     Atom           X                Y                Z
 ----------------------------------------------------------------
    1      C       0.2088860000    -8.5197410000    -0.1743790000
    2      C      -0.4721510000    -7.6359670000     0.6500520000
    3      S       1.1937170000    -7.6517400000    -1.3770580000
    4      C      -0.2251250000    -6.2618940000     0.3531050000
    5      H      -1.1415940000    -7.9547380000     1.4589610000
    6      C       0.6928110000    -6.0799850000    -0.7405830000
    7      C       1.0397730000    -4.7983820000    -1.1955460000
    8      C      -0.8176340000    -5.1535420000     1.0232670000
    9      C      -0.4737540000    -3.8696260000     0.5652620000
   10      C       0.4473500000    -3.6889270000    -0.5277450000
   11      O      -1.6444830000    -5.4810750000     2.0549170000
   12      O       1.8694240000    -4.4798710000    -2.2325920000
   13      C       2.9394660000    -5.3560260000    -2.5654700000
   14      H       3.6014050000    -4.7904960000    -3.2486080000
   15      H       2.5878920000    -6.2685130000    -3.0948850000
   16      H       3.5160520000    -5.6581870000    -1.6645390000
   17      C      -2.6088130000    -4.5469990000     2.5245640000
   18      H      -3.2706610000    -5.1075640000     3.2115680000
   19      H      -3.2166460000    -4.1314730000     1.6923420000
   20      H      -2.1411840000    -3.7120850000     3.0902110000
   21      C       0.6903190000    -2.3143260000    -0.8234020000
   22      S      -0.9855110000    -2.2954870000     1.1949350000
   23      C       0.0000000000    -1.4351800000     0.0000000000
   24      H       1.3612860000    -1.9932110000    -1.6300240000
   25      H       0.2034440000    -9.6159850000    -0.1717190000
   26      C       0.0000000000     0.0000000000     0.0000000000
   27      S       0.6904370000     0.5764300000     1.5107320000
   28      C       1.8965120000     1.5898520000     0.7276290000
   29      C       0.6957200000     0.5838170000    -1.0646650000
   30      C       1.7586210000     1.4776740000    -0.6782870000
   31      C       0.6459280000     0.5398780000    -2.4861500000
   32      C       1.6147630000     1.3529970000    -3.1069160000
   33      S       2.5682610000     2.1574300000    -1.9657350000
   34      C       1.8127070000     1.5129910000    -4.5599720000
   35      O       1.0995230000     0.9106620000    -5.3502770000
   36      O       2.7977690000     2.3353300000    -5.0043750000
   37      F      -0.2050240000    -0.1792660000    -3.2462900000
   38      C       3.0790740000     2.5581240000    -6.3349760000
   39      H       3.9259100000     3.2679190000    -6.3702680000
   40      H       2.2081090000     2.9903670000    -6.8756090000
   41      H       3.3581470000     1.6188430000    -6.8618780000
   42      H       2.6013310000     2.1811800000     1.3215100000
 ----------------------------------------------------------------

   11   -2754.2556674992      5.53e-07  Convergence criterion met
 Total energy in the final basis set =    -2754.2556674992
        RIMP2         total energy =     -2759.3227769821 a.u.

                    Orbital Energies (a.u.)
 --------------------------------------------------------------

 Alpha MOs
 -- Occupied --
-92.0174 -92.0034 -91.9842 -91.9834 -26.3346 -20.6150 -20.5910 -20.5885
-20.5551 -11.4148 -11.3775 -11.3181 -11.3172 -11.3131 -11.3079 -11.3011
-11.2958 -11.2916 -11.2900 -11.2871 -11.2860 -11.2845 -11.2819 -11.2814
-11.2766 -11.2584 -11.2548 -11.2483 -11.2463  -9.0163  -9.0071  -8.9843
 -8.9842  -6.6969  -6.6961  -6.6958  -6.6883  -6.6876  -6.6863  -6.6654
 -6.6651  -6.6646  -6.6645  -6.6637  -6.6637  -1.6477  -1.4751  -1.4150
 -1.4114  -1.3710  -1.2414  -1.1934  -1.1695  -1.1445  -1.0842  -1.0518
 -1.0486  -1.0321  -0.9992  -0.9926  -0.9751  -0.9589  -0.9489  -0.9390
 -0.8940  -0.8742  -0.8451  -0.8026  -0.7965  -0.7865  -0.7745  -0.7702
 -0.7545  -0.7308  -0.7198  -0.7161  -0.6998  -0.6923  -0.6812  -0.6798
 -0.6760  -0.6615  -0.6574  -0.6507  -0.6270  -0.6180  -0.6153  -0.6103
 -0.6071  -0.6009  -0.5804  -0.5747  -0.5686  -0.5614  -0.5561  -0.5470
 -0.5329  -0.5263  -0.5238  -0.5157  -0.5141  -0.5075  -0.5052  -0.4963
 -0.4886  -0.4853  -0.4710  -0.4665  -0.4638  -0.4632  -0.4580  -0.4143
 -0.3946  -0.3838  -0.3572  -0.3511  -0.3221  -0.2879  -0.2495

          Ground-State Mulliken Net Atomic Charges

     Atom                 Charge (a.u.)
  ----------------------------------------
      1 C                    -0.194581
      2 C                    -0.253947
      3 S                    -0.025917
      4 C                    -0.019866
      5 H                     0.195574
      6 C                    -0.025709
      7 C                     0.237805
      8 C                     0.245403
      9 C                    -0.042126
     10 C                    -0.026325
     11 O                    -0.333781
     12 O                    -0.341108
     13 C                    -0.085729
     14 H                     0.121855
     15 H                     0.090887
     16 H                     0.092696
     17 C                    -0.087064
     18 H                     0.125160
     19 H                     0.095031
     20 H                     0.088972
     21 C                    -0.247515
     22 S                    -0.045180
     23 C                     0.026904
     24 H                     0.189273
     25 H                     0.205298
     26 C                    -0.122950
     27 S                     0.137528
     28 C                    -0.175225
     29 C                    -0.058915
     30 C                    -0.021101
     31 C                     0.355884
     32 C                    -0.130898
     33 S                     0.066124
     34 C                     0.458934
     35 O                    -0.441396
     36 O                    -0.297245
     37 F                    -0.210700
     38 C                    -0.054588
     39 H                     0.117234
     40 H                     0.085521
     41 H                     0.085387
     42 H                     0.220395
  ----------------------------------------
  Sum of atomic charges =     0.000000

                    Cartesian Multipole Moments
 -----------------------------------------------------------------
    Charge (ESU x 10^10)
                -0.0000
    Dipole Moment (Debye)
         X       4.0912      Y       2.6508      Z       3.1864
       Tot       5.8239
    Quadrupole Moments (Debye-Ang)
        XX    -174.3733     XY       8.9473     YY    -173.6838
        XZ     -20.9723     YZ      -8.7947     ZZ    -195.0348

 Total job time:  309.15s(wall), 10192.06s(cpu)
        *  Thank you very much for using Q-Chem.  Have a nice day.  *
