 Q-Chem 5.4, Q-Chem, Inc., Pleasanton, CA (2021)
 Q-Chem 5.4.0 for Intel X86 EM64T Linux

User input:
--------------------------------------------------------------
$molecule
0 1
C	-0.092419	-8.519741	-0.255929
C	0.449364	-7.635967	0.666007
S	-0.885736	-7.651740	-1.592708
C	0.254813	-6.261894	0.332317
H	0.980526	-7.954738	1.571741
C	-0.458965	-6.079985	-0.904324
C	-0.767823	-4.798382	-1.385968
C	0.681909	-5.153542	1.118303
C	0.369139	-3.869626	0.638514
C	-0.342916	-3.688927	-0.600871
O	1.368544	-5.481075	2.248132
O	-1.458570	-4.479871	-2.520275
C	-1.405396	-5.356026	-3.639637
H	-1.820940	-4.790496	-4.495304
H	-2.023129	-6.268513	-3.490336
H	-0.361595	-5.658187	-3.873314
C	1.480048	-4.546999	3.314934
H	1.899255	-5.107564	4.171837
H	0.490123	-4.131473	3.601473
H	2.171521	-3.712085	3.068969
C	-0.537642	-2.314326	-0.930308
S	0.785807	-2.295487	1.334769
C	0.000000	-1.435180	0.000000
H	-1.066134	-1.993211	-1.836691
H	-0.091781	-9.615985	-0.249906
C	0.000000	0.000000	0.000000
S	0.002233	0.899428	1.510732
C	0.001157	2.474749	0.727629
C	-0.000030	0.908223	-1.064665
C	-0.001545	2.297013	-0.678287
C	0.001624	0.841837	-2.486150
C	0.001494	2.106670	-3.106916
S	-0.001841	3.354171	-1.965735
C	0.006168	2.361146	-4.559972
O	0.009152	1.427646	-5.350277
O	0.009405	3.644337	-5.004375
F	0.005539	-0.272288	-3.246290
C	0.019554	4.003038	-6.334976
H	0.020155	5.108000	-6.370268
H	-0.871409	3.613681	-6.875609
H	0.918470	3.613062	-6.861878
H	0.001222	3.394771	1.321510
$end

$rem
JOBTYPE		SP
EXCHANGE	HF
CORRELATION	pRIMP2
BASIS		cc-pvtz
METHOD		rimp2
AUX_BASIS	rimp2-cc-pvtz
SOLVENT_METHOD	PCM
PURECART	11111
SYMMETRY	false
MEM_TOTAL	110000
SCF_CONVERGENCE = 6
THRESH=10
GUI = 2
$end

$solvent
dielectric 4.90
$end
--------------------------------------------------------------

             Standard Nuclear Orientation (Angstroms)
    I     Atom           X                Y                Z
 ----------------------------------------------------------------
    1      C      -0.0924190000    -8.5197410000    -0.2559290000
    2      C       0.4493640000    -7.6359670000     0.6660070000
    3      S      -0.8857360000    -7.6517400000    -1.5927080000
    4      C       0.2548130000    -6.2618940000     0.3323170000
    5      H       0.9805260000    -7.9547380000     1.5717410000
    6      C      -0.4589650000    -6.0799850000    -0.9043240000
    7      C      -0.7678230000    -4.7983820000    -1.3859680000
    8      C       0.6819090000    -5.1535420000     1.1183030000
    9      C       0.3691390000    -3.8696260000     0.6385140000
   10      C      -0.3429160000    -3.6889270000    -0.6008710000
   11      O       1.3685440000    -5.4810750000     2.2481320000
   12      O      -1.4585700000    -4.4798710000    -2.5202750000
   13      C      -1.4053960000    -5.3560260000    -3.6396370000
   14      H      -1.8209400000    -4.7904960000    -4.4953040000
   15      H      -2.0231290000    -6.2685130000    -3.4903360000
   16      H      -0.3615950000    -5.6581870000    -3.8733140000
   17      C       1.4800480000    -4.5469990000     3.3149340000
   18      H       1.8992550000    -5.1075640000     4.1718370000
   19      H       0.4901230000    -4.1314730000     3.6014730000
   20      H       2.1715210000    -3.7120850000     3.0689690000
   21      C      -0.5376420000    -2.3143260000    -0.9303080000
   22      S       0.7858070000    -2.2954870000     1.3347690000
   23      C       0.0000000000    -1.4351800000     0.0000000000
   24      H      -1.0661340000    -1.9932110000    -1.8366910000
   25      H      -0.0917810000    -9.6159850000    -0.2499060000
   26      C       0.0000000000     0.0000000000     0.0000000000
   27      S       0.0022330000     0.8994280000     1.5107320000
   28      C       0.0011570000     2.4747490000     0.7276290000
   29      C      -0.0000300000     0.9082230000    -1.0646650000
   30      C      -0.0015450000     2.2970130000    -0.6782870000
   31      C       0.0016240000     0.8418370000    -2.4861500000
   32      C       0.0014940000     2.1066700000    -3.1069160000
   33      S      -0.0018410000     3.3541710000    -1.9657350000
   34      C       0.0061680000     2.3611460000    -4.5599720000
   35      O       0.0091520000     1.4276460000    -5.3502770000
   36      O       0.0094050000     3.6443370000    -5.0043750000
   37      F       0.0055390000    -0.2722880000    -3.2462900000
   38      C       0.0195540000     4.0030380000    -6.3349760000
   39      H       0.0201550000     5.1080000000    -6.3702680000
   40      H      -0.8714090000     3.6136810000    -6.8756090000
   41      H       0.9184700000     3.6130620000    -6.8618780000
   42      H       0.0012220000     3.3947710000     1.3215100000
 ----------------------------------------------------------------

   10   -2754.2988816175      7.88e-07  Convergence criterion met
 Total energy in the final basis set =    -2754.2988816175
        RIMP2         total energy =     -2759.3526327214 a.u.

                    Orbital Energies (a.u.)
 --------------------------------------------------------------

 Alpha MOs
 -- Occupied --
-92.0161 -91.9945 -91.9918 -91.9871 -26.3357 -20.6117 -20.5932 -20.5918
-20.5493 -11.4097 -11.3780 -11.3203 -11.3196 -11.3140 -11.2971 -11.2963
-11.2959 -11.2918 -11.2883 -11.2883 -11.2879 -11.2856 -11.2849 -11.2810
-11.2809 -11.2625 -11.2606 -11.2594 -11.2506  -9.0145  -8.9986  -8.9923
 -8.9870  -6.6952  -6.6947  -6.6942  -6.6798  -6.6791  -6.6778  -6.6733
 -6.6726  -6.6716  -6.6680  -6.6674  -6.6665  -1.6491  -1.4714  -1.4173
 -1.4145  -1.3666  -1.2333  -1.1975  -1.1697  -1.1423  -1.0850  -1.0532
 -1.0478  -1.0278  -1.0038  -0.9941  -0.9720  -0.9616  -0.9510  -0.9385
 -0.8972  -0.8692  -0.8519  -0.8050  -0.7949  -0.7886  -0.7727  -0.7697
 -0.7583  -0.7333  -0.7197  -0.7170  -0.7020  -0.6890  -0.6841  -0.6783
 -0.6717  -0.6620  -0.6598  -0.6528  -0.6300  -0.6204  -0.6167  -0.6061
 -0.6010  -0.5937  -0.5875  -0.5774  -0.5692  -0.5604  -0.5548  -0.5505
 -0.5374  -0.5266  -0.5228  -0.5194  -0.5173  -0.5093  -0.5045  -0.4959
 -0.4869  -0.4843  -0.4798  -0.4694  -0.4621  -0.4611  -0.4598  -0.4205
 -0.3982  -0.3868  -0.3593  -0.3506  -0.3245  -0.2854  -0.2499

          Ground-State Mulliken Net Atomic Charges

     Atom                 Charge (a.u.)
  ----------------------------------------
      1 C                    -0.186167
      2 C                    -0.254706
      3 S                    -0.019736
      4 C                    -0.012509
      5 H                     0.196535
      6 C                    -0.029019
      7 C                     0.248224
      8 C                     0.239533
      9 C                    -0.041767
     10 C                    -0.035584
     11 O                    -0.333053
     12 O                    -0.338913
     13 C                    -0.085805
     14 H                     0.124017
     15 H                     0.090870
     16 H                     0.094470
     17 C                    -0.087705
     18 H                     0.125617
     19 H                     0.094812
     20 H                     0.089851
     21 C                    -0.200743
     22 S                    -0.025435
     23 C                    -0.018700
     24 H                     0.195438
     25 H                     0.206909
     26 C                    -0.026394
     27 S                     0.095729
     28 C                    -0.245367
     29 C                    -0.071915
     30 C                    -0.013305
     31 C                     0.389710
     32 C                    -0.143919
     33 S                     0.035812
     34 C                     0.461294
     35 O                    -0.452286
     36 O                    -0.298072
     37 F                    -0.214175
     38 C                    -0.055056
     39 H                     0.116596
     40 H                     0.084348
     41 H                     0.084382
     42 H                     0.216185
  ----------------------------------------
  Sum of atomic charges =     0.000000

                    Cartesian Multipole Moments
 -----------------------------------------------------------------
    Charge (ESU x 10^10)
                 0.0000
    Dipole Moment (Debye)
         X       0.2052      Y       1.1166      Z       3.1410
       Tot       3.3399
    Quadrupole Moments (Debye-Ang)
        XX    -199.8008     XY      -0.9308     YY    -156.6335
        XZ       7.0770     YZ      -9.0926     ZZ    -183.5609

 Total job time:  362.83s(wall), 9289.37s(cpu)
        *  Thank you very much for using Q-Chem.  Have a nice day.  *
