 Q-Chem 5.4, Q-Chem, Inc., Pleasanton, CA (2021)
 Q-Chem 5.4.0 for Intel X86 EM64T Linux

User input:
--------------------------------------------------------------
$molecule
0 1
C	-0.208002	-8.519741	-0.175432
C	0.722164	-7.635967	0.352097
S	-1.563424	-7.651740	-0.936458
C	0.386833	-6.261894	0.160388
H	1.635031	-7.954738	0.870905
C	-0.849637	-6.079985	-0.553685
C	-1.357938	-4.798382	-0.816372
C	1.149702	-5.153542	0.627524
C	0.638941	-3.869626	0.368399
C	-0.597409	-3.688927	-0.348912
O	2.309260	-5.481075	1.262667
O	-2.523296	-4.479871	-1.453338
C	-3.036927	-5.356026	-2.449320
H	-3.824632	-4.790496	-2.982577
H	-3.497250	-6.268513	-2.011155
H	-2.249807	-5.658187	-3.173591
C	2.939226	-4.546999	2.130793
H	3.730721	-5.107564	2.663289
H	2.225196	-4.131473	2.873906
H	3.415077	-3.712085	1.572045
C	-0.930765	-2.314326	-0.536849
S	1.347913	-2.295487	0.763041
C	0.000000	-1.435180	0.000000
H	-1.841645	-1.993211	-1.057554
H	-0.204438	-9.615985	-0.170535
C	0.000000	0.000000	0.000000
S	0.780044	0.447780	1.510732
C	2.143774	1.236372	0.727629
C	0.786529	0.454137	-1.064665
C	1.988499	1.149844	-0.678287
C	0.729864	0.419512	-2.486150
C	1.825177	1.052041	-3.106916
S	2.903877	1.678680	-1.965735
C	2.047896	1.175232	-4.559972
O	1.240953	0.705897	-5.350277
O	3.160791	1.814024	-5.004375
F	-0.233039	-0.140940	-3.246290
C	3.476510	1.984585	-6.334976
H	4.433735	2.536545	-6.370268
H	2.693835	2.561503	-6.875609
H	3.588239	1.011113	-6.861878
H	2.940569	1.696327	1.321510
$end

$rem
JOBTYPE		SP
EXCHANGE	HF
CORRELATION	pRIMP2
BASIS		cc-pvtz
METHOD		rimp2
AUX_BASIS	rimp2-cc-pvtz
SOLVENT_METHOD	PCM
PURECART	11111
SYMMETRY	false
MEM_TOTAL	110000
SCF_CONVERGENCE = 6
THRESH=10
GUI = 2
$end

$solvent
dielectric 4.90
$end
--------------------------------------------------------------

             Standard Nuclear Orientation (Angstroms)
    I     Atom           X                Y                Z
 ----------------------------------------------------------------
    1      C      -0.2080020000    -8.5197410000    -0.1754320000
    2      C       0.7221640000    -7.6359670000     0.3520970000
    3      S      -1.5634240000    -7.6517400000    -0.9364580000
    4      C       0.3868330000    -6.2618940000     0.1603880000
    5      H       1.6350310000    -7.9547380000     0.8709050000
    6      C      -0.8496370000    -6.0799850000    -0.5536850000
    7      C      -1.3579380000    -4.7983820000    -0.8163720000
    8      C       1.1497020000    -5.1535420000     0.6275240000
    9      C       0.6389410000    -3.8696260000     0.3683990000
   10      C      -0.5974090000    -3.6889270000    -0.3489120000
   11      O       2.3092600000    -5.4810750000     1.2626670000
   12      O      -2.5232960000    -4.4798710000    -1.4533380000
   13      C      -3.0369270000    -5.3560260000    -2.4493200000
   14      H      -3.8246320000    -4.7904960000    -2.9825770000
   15      H      -3.4972500000    -6.2685130000    -2.0111550000
   16      H      -2.2498070000    -5.6581870000    -3.1735910000
   17      C       2.9392260000    -4.5469990000     2.1307930000
   18      H       3.7307210000    -5.1075640000     2.6632890000
   19      H       2.2251960000    -4.1314730000     2.8739060000
   20      H       3.4150770000    -3.7120850000     1.5720450000
   21      C      -0.9307650000    -2.3143260000    -0.5368490000
   22      S       1.3479130000    -2.2954870000     0.7630410000
   23      C       0.0000000000    -1.4351800000     0.0000000000
   24      H      -1.8416450000    -1.9932110000    -1.0575540000
   25      H      -0.2044380000    -9.6159850000    -0.1705350000
   26      C       0.0000000000     0.0000000000     0.0000000000
   27      S       0.7800440000     0.4477800000     1.5107320000
   28      C       2.1437740000     1.2363720000     0.7276290000
   29      C       0.7865290000     0.4541370000    -1.0646650000
   30      C       1.9884990000     1.1498440000    -0.6782870000
   31      C       0.7298640000     0.4195120000    -2.4861500000
   32      C       1.8251770000     1.0520410000    -3.1069160000
   33      S       2.9038770000     1.6786800000    -1.9657350000
   34      C       2.0478960000     1.1752320000    -4.5599720000
   35      O       1.2409530000     0.7058970000    -5.3502770000
   36      O       3.1607910000     1.8140240000    -5.0043750000
   37      F      -0.2330390000    -0.1409400000    -3.2462900000
   38      C       3.4765100000     1.9845850000    -6.3349760000
   39      H       4.4337350000     2.5365450000    -6.3702680000
   40      H       2.6938350000     2.5615030000    -6.8756090000
   41      H       3.5882390000     1.0111130000    -6.8618780000
   42      H       2.9405690000     1.6963270000     1.3215100000
 ----------------------------------------------------------------

   11   -2754.2259536193      6.22e-07  Convergence criterion met
 Total energy in the final basis set =    -2754.2259536193
        RIMP2         total energy =     -2759.3000618245 a.u.

                    Orbital Energies (a.u.)
 --------------------------------------------------------------

 Alpha MOs
 -- Occupied --
-92.0160 -92.0069 -91.9826 -91.9822 -26.3342 -20.6162 -20.5904 -20.5863
-20.5576 -11.4168 -11.3762 -11.3271 -11.3155 -11.3130 -11.3098 -11.3012
-11.2978 -11.2906 -11.2904 -11.2863 -11.2828 -11.2799 -11.2773 -11.2749
-11.2732 -11.2548 -11.2524 -11.2472 -11.2376  -9.0155  -9.0103  -8.9833
 -8.9826  -6.6961  -6.6951  -6.6951  -6.6915  -6.6909  -6.6896  -6.6642
 -6.6636  -6.6634  -6.6629  -6.6625  -6.6621  -1.6472  -1.4765  -1.4143
 -1.4092  -1.3727  -1.2451  -1.1918  -1.1710  -1.1436  -1.0829  -1.0521
 -1.0470  -1.0335  -0.9975  -0.9913  -0.9765  -0.9579  -0.9480  -0.9369
 -0.8928  -0.8766  -0.8428  -0.8025  -0.7960  -0.7853  -0.7766  -0.7663
 -0.7526  -0.7289  -0.7183  -0.7158  -0.6983  -0.6931  -0.6820  -0.6781
 -0.6773  -0.6623  -0.6566  -0.6493  -0.6284  -0.6166  -0.6148  -0.6124
 -0.6076  -0.5997  -0.5891  -0.5742  -0.5637  -0.5631  -0.5523  -0.5383
 -0.5356  -0.5287  -0.5199  -0.5142  -0.5127  -0.5095  -0.5020  -0.4915
 -0.4895  -0.4858  -0.4741  -0.4671  -0.4646  -0.4592  -0.4534  -0.4135
 -0.3935  -0.3810  -0.3526  -0.3496  -0.3119  -0.2943  -0.2504

          Ground-State Mulliken Net Atomic Charges

     Atom                 Charge (a.u.)
  ----------------------------------------
      1 C                    -0.197531
      2 C                    -0.253985
      3 S                    -0.027905
      4 C                    -0.023821
      5 H                     0.194837
      6 C                    -0.025567
      7 C                     0.232925
      8 C                     0.241726
      9 C                    -0.054011
     10 C                    -0.010504
     11 O                    -0.333794
     12 O                    -0.340703
     13 C                    -0.085319
     14 H                     0.121534
     15 H                     0.089571
     16 H                     0.092780
     17 C                    -0.086828
     18 H                     0.124807
     19 H                     0.093645
     20 H                     0.088257
     21 C                    -0.272410
     22 S                    -0.028348
     23 C                    -0.025299
     24 H                     0.189943
     25 H                     0.204587
     26 C                    -0.141918
     27 S                     0.131373
     28 C                    -0.153527
     29 C                    -0.002335
     30 C                    -0.025041
     31 C                     0.356500
     32 C                    -0.118856
     33 S                     0.074568
     34 C                     0.457355
     35 O                    -0.437237
     36 O                    -0.296464
     37 F                    -0.209121
     38 C                    -0.054729
     39 H                     0.117534
     40 H                     0.085849
     41 H                     0.085929
     42 H                     0.221536
  ----------------------------------------
  Sum of atomic charges =     0.000000

                    Cartesian Multipole Moments
 -----------------------------------------------------------------
    Charge (ESU x 10^10)
                -0.0000
    Dipole Moment (Debye)
         X       5.7294      Y       2.8613      Z       2.5999
       Tot       6.9117
    Quadrupole Moments (Debye-Ang)
        XX    -173.4075     XY       7.9152     YY    -180.8154
        XZ       1.0195     YZ      -5.3922     ZZ    -189.9329

 Total job time:  310.68s(wall), 10250.99s(cpu)
        *  Thank you very much for using Q-Chem.  Have a nice day.  *
