 Q-Chem 5.4, Q-Chem, Inc., Pleasanton, CA (2021)
 Q-Chem 5.4.0 for Intel X86 EM64T Linux

User input:
--------------------------------------------------------------
$molecule
0 1
C	0.136647	-8.519741	-0.235306
C	-0.221346	-7.635967	0.772334
S	0.650746	-7.651740	-1.702286
C	-0.090779	-6.261894	0.408807
H	-0.573754	-7.954738	1.761423
C	0.397735	-6.079985	-0.932876
C	0.568166	-4.798382	-1.479069
C	-0.418347	-5.153542	1.241204
C	-0.251852	-3.869626	0.693206
C	0.239872	-3.688927	-0.648921
O	-0.842486	-5.481075	2.493437
O	0.993092	-4.479871	-2.737331
C	1.884752	-5.356026	-3.416110
H	2.273124	-4.790496	-4.284447
H	1.373310	-6.268513	-3.793352
H	2.734702	-5.658187	-2.766716
C	-1.588030	-4.546999	3.264581
H	-1.974995	-5.107564	4.136519
H	-2.443843	-4.131473	2.690439
H	-0.955140	-3.712085	3.636177
C	0.367068	-2.314326	-1.009848
S	-0.517386	-2.295487	1.459936
C	-0.000000	-1.435180	-0.000000
H	0.721689	-1.993211	-1.997308
H	0.132444	-9.615985	-0.230945
C	0.000000	0.000000	0.000000
S	0.158383	0.885376	1.510732
C	0.430876	2.436951	0.727629
C	0.157682	0.894430	-1.064665
C	0.397351	2.262384	-0.678287
C	0.147783	0.828765	-2.486150
C	0.367291	2.074406	-3.106916
S	0.580633	3.303533	-1.965735
C	0.416083	2.324204	-4.559972
O	0.256921	1.404367	-5.350277
O	0.642094	3.587338	-5.004375
F	-0.041828	-0.269113	-3.246290
C	0.714377	3.938827	-6.334976
H	0.906844	5.026898	-6.370268
H	-0.230661	3.710099	-6.875609
H	1.531918	3.398681	-6.861878
H	0.590699	3.342984	1.321510
$end

$rem
JOBTYPE		SP
EXCHANGE	HF
CORRELATION	pRIMP2
BASIS		cc-pvtz
METHOD		rimp2
AUX_BASIS	rimp2-cc-pvtz
SOLVENT_METHOD	PCM
PURECART	11111
SYMMETRY	false
MEM_TOTAL	110000
SCF_CONVERGENCE = 6
THRESH=10
GUI = 2
$end

$solvent
dielectric 4.90
$end
--------------------------------------------------------------

             Standard Nuclear Orientation (Angstroms)
    I     Atom           X                Y                Z
 ----------------------------------------------------------------
    1      C       0.1366470000    -8.5197410000    -0.2353060000
    2      C      -0.2213460000    -7.6359670000     0.7723340000
    3      S       0.6507460000    -7.6517400000    -1.7022860000
    4      C      -0.0907790000    -6.2618940000     0.4088070000
    5      H      -0.5737540000    -7.9547380000     1.7614230000
    6      C       0.3977350000    -6.0799850000    -0.9328760000
    7      C       0.5681660000    -4.7983820000    -1.4790690000
    8      C      -0.4183470000    -5.1535420000     1.2412040000
    9      C      -0.2518520000    -3.8696260000     0.6932060000
   10      C       0.2398720000    -3.6889270000    -0.6489210000
   11      O      -0.8424860000    -5.4810750000     2.4934370000
   12      O       0.9930920000    -4.4798710000    -2.7373310000
   13      C       1.8847520000    -5.3560260000    -3.4161100000
   14      H       2.2731240000    -4.7904960000    -4.2844470000
   15      H       1.3733100000    -6.2685130000    -3.7933520000
   16      H       2.7347020000    -5.6581870000    -2.7667160000
   17      C      -1.5880300000    -4.5469990000     3.2645810000
   18      H      -1.9749950000    -5.1075640000     4.1365190000
   19      H      -2.4438430000    -4.1314730000     2.6904390000
   20      H      -0.9551400000    -3.7120850000     3.6361770000
   21      C       0.3670680000    -2.3143260000    -1.0098480000
   22      S      -0.5173860000    -2.2954870000     1.4599360000
   23      C       0.0000000000    -1.4351800000     0.0000000000
   24      H       0.7216890000    -1.9932110000    -1.9973080000
   25      H       0.1324440000    -9.6159850000    -0.2309450000
   26      C       0.0000000000     0.0000000000     0.0000000000
   27      S       0.1583830000     0.8853760000     1.5107320000
   28      C       0.4308760000     2.4369510000     0.7276290000
   29      C       0.1576820000     0.8944300000    -1.0646650000
   30      C       0.3973510000     2.2623840000    -0.6782870000
   31      C       0.1477830000     0.8287650000    -2.4861500000
   32      C       0.3672910000     2.0744060000    -3.1069160000
   33      S       0.5806330000     3.3035330000    -1.9657350000
   34      C       0.4160830000     2.3242040000    -4.5599720000
   35      O       0.2569210000     1.4043670000    -5.3502770000
   36      O       0.6420940000     3.5873380000    -5.0043750000
   37      F      -0.0418280000    -0.2691130000    -3.2462900000
   38      C       0.7143770000     3.9388270000    -6.3349760000
   39      H       0.9068440000     5.0268980000    -6.3702680000
   40      H      -0.2306610000     3.7100990000    -6.8756090000
   41      H       1.5319180000     3.3986810000    -6.8618780000
   42      H       0.5906990000     3.3429840000     1.3215100000
 ----------------------------------------------------------------

   10   -2754.2965548999      8.11e-07  Convergence criterion met
 Total energy in the final basis set =    -2754.2965548999
        RIMP2         total energy =     -2759.3516287763 a.u.

                    Orbital Energies (a.u.)
 --------------------------------------------------------------

 Alpha MOs
 -- Occupied --
-92.0161 -91.9951 -91.9910 -91.9872 -26.3369 -20.6118 -20.5931 -20.5918
-20.5495 -11.4099 -11.3783 -11.3203 -11.3196 -11.3135 -11.2975 -11.2965
-11.2965 -11.2926 -11.2884 -11.2883 -11.2878 -11.2857 -11.2849 -11.2810
-11.2808 -11.2625 -11.2606 -11.2587 -11.2506  -9.0146  -8.9991  -8.9916
 -8.9870  -6.6954  -6.6948  -6.6943  -6.6804  -6.6797  -6.6784  -6.6726
 -6.6720  -6.6710  -6.6680  -6.6674  -6.6665  -1.6507  -1.4715  -1.4173
 -1.4145  -1.3668  -1.2338  -1.1975  -1.1699  -1.1426  -1.0851  -1.0533
 -1.0482  -1.0281  -1.0039  -0.9942  -0.9723  -0.9614  -0.9510  -0.9386
 -0.8972  -0.8696  -0.8519  -0.8059  -0.7958  -0.7888  -0.7727  -0.7697
 -0.7582  -0.7336  -0.7208  -0.7182  -0.7020  -0.6893  -0.6842  -0.6783
 -0.6723  -0.6623  -0.6597  -0.6528  -0.6296  -0.6204  -0.6163  -0.6062
 -0.6008  -0.5941  -0.5878  -0.5761  -0.5702  -0.5620  -0.5530  -0.5494
 -0.5368  -0.5270  -0.5258  -0.5178  -0.5174  -0.5094  -0.5055  -0.4970
 -0.4876  -0.4842  -0.4790  -0.4683  -0.4619  -0.4612  -0.4590  -0.4234
 -0.3985  -0.3863  -0.3596  -0.3508  -0.3255  -0.2848  -0.2485

          Ground-State Mulliken Net Atomic Charges

     Atom                 Charge (a.u.)
  ----------------------------------------
      1 C                    -0.186423
      2 C                    -0.254673
      3 S                    -0.019525
      4 C                    -0.014163
      5 H                     0.196503
      6 C                    -0.029777
      7 C                     0.249091
      8 C                     0.242319
      9 C                    -0.038509
     10 C                    -0.037786
     11 O                    -0.333273
     12 O                    -0.338204
     13 C                    -0.086336
     14 H                     0.123953
     15 H                     0.091465
     16 H                     0.093960
     17 C                    -0.088082
     18 H                     0.126061
     19 H                     0.095363
     20 H                     0.089434
     21 C                    -0.191507
     22 S                    -0.035429
     23 C                    -0.013126
     24 H                     0.199981
     25 H                     0.206918
     26 C                    -0.026901
     27 S                     0.098990
     28 C                    -0.249563
     29 C                    -0.084638
     30 C                    -0.013672
     31 C                     0.384232
     32 C                    -0.140603
     33 S                     0.038670
     34 C                     0.462585
     35 O                    -0.451732
     36 O                    -0.298119
     37 F                    -0.214651
     38 C                    -0.054985
     39 H                     0.116626
     40 H                     0.084559
     41 H                     0.084290
     42 H                     0.216678
  ----------------------------------------
  Sum of atomic charges =     0.000000

                    Cartesian Multipole Moments
 -----------------------------------------------------------------
    Charge (ESU x 10^10)
                 0.0000
    Dipole Moment (Debye)
         X       0.8557      Y       1.1531      Z       3.2987
       Tot       3.5977
    Quadrupole Moments (Debye-Ang)
        XX    -193.7367     XY       1.1266     YY    -156.9505
        XZ     -13.6756     YZ     -10.1525     ZZ    -188.9827

 Total job time:  284.58s(wall), 9468.65s(cpu)
        *  Thank you very much for using Q-Chem.  Have a nice day.  *
