 Q-Chem 5.4, Q-Chem, Inc., Pleasanton, CA (2021)
 Q-Chem 5.4.0 for Intel X86 EM64T Linux

User input:
--------------------------------------------------------------
$molecule
0 1
C	-0.208886	-8.519741	0.174379
C	0.472151	-7.635967	-0.650052
S	-1.193717	-7.651740	1.377058
C	0.225125	-6.261894	-0.353105
H	1.141594	-7.954738	-1.458961
C	-0.692811	-6.079985	0.740583
C	-1.039773	-4.798382	1.195546
C	0.817634	-5.153542	-1.023267
C	0.473754	-3.869626	-0.565262
C	-0.447350	-3.688927	0.527745
O	1.644483	-5.481075	-2.054917
O	-1.869424	-4.479871	2.232592
C	-2.939466	-5.356026	2.565470
H	-3.601405	-4.790496	3.248608
H	-2.587892	-6.268513	3.094885
H	-3.516052	-5.658187	1.664539
C	2.608813	-4.546999	-2.524564
H	3.270661	-5.107564	-3.211568
H	3.216646	-4.131473	-1.692342
H	2.141184	-3.712085	-3.090211
C	-0.690319	-2.314326	0.823402
S	0.985511	-2.295487	-1.194935
C	-0.000000	-1.435180	-0.000000
H	-1.361286	-1.993211	1.630024
H	-0.203444	-9.615985	0.171719
C	0.000000	0.000000	0.000000
S	0.158383	0.885376	1.510732
C	0.430876	2.436951	0.727629
C	0.157682	0.894430	-1.064665
C	0.397351	2.262384	-0.678287
C	0.147783	0.828765	-2.486150
C	0.367291	2.074406	-3.106916
S	0.580633	3.303533	-1.965735
C	0.416083	2.324204	-4.559972
O	0.256921	1.404367	-5.350277
O	0.642094	3.587338	-5.004375
F	-0.041828	-0.269113	-3.246290
C	0.714377	3.938827	-6.334976
H	0.906844	5.026898	-6.370268
H	-0.230661	3.710099	-6.875609
H	1.531918	3.398681	-6.861878
H	0.590699	3.342984	1.321510
$end

$rem
JOBTYPE		SP
EXCHANGE	HF
CORRELATION	pRIMP2
BASIS		cc-pvtz
METHOD		rimp2
AUX_BASIS	rimp2-cc-pvtz
SOLVENT_METHOD	PCM
PURECART	11111
SYMMETRY	false
MEM_TOTAL	110000
SCF_CONVERGENCE = 6
THRESH=10
GUI = 2
$end

$solvent
dielectric 4.90
$end
--------------------------------------------------------------

             Standard Nuclear Orientation (Angstroms)
    I     Atom           X                Y                Z
 ----------------------------------------------------------------
    1      C      -0.2088860000    -8.5197410000     0.1743790000
    2      C       0.4721510000    -7.6359670000    -0.6500520000
    3      S      -1.1937170000    -7.6517400000     1.3770580000
    4      C       0.2251250000    -6.2618940000    -0.3531050000
    5      H       1.1415940000    -7.9547380000    -1.4589610000
    6      C      -0.6928110000    -6.0799850000     0.7405830000
    7      C      -1.0397730000    -4.7983820000     1.1955460000
    8      C       0.8176340000    -5.1535420000    -1.0232670000
    9      C       0.4737540000    -3.8696260000    -0.5652620000
   10      C      -0.4473500000    -3.6889270000     0.5277450000
   11      O       1.6444830000    -5.4810750000    -2.0549170000
   12      O      -1.8694240000    -4.4798710000     2.2325920000
   13      C      -2.9394660000    -5.3560260000     2.5654700000
   14      H      -3.6014050000    -4.7904960000     3.2486080000
   15      H      -2.5878920000    -6.2685130000     3.0948850000
   16      H      -3.5160520000    -5.6581870000     1.6645390000
   17      C       2.6088130000    -4.5469990000    -2.5245640000
   18      H       3.2706610000    -5.1075640000    -3.2115680000
   19      H       3.2166460000    -4.1314730000    -1.6923420000
   20      H       2.1411840000    -3.7120850000    -3.0902110000
   21      C      -0.6903190000    -2.3143260000     0.8234020000
   22      S       0.9855110000    -2.2954870000    -1.1949350000
   23      C       0.0000000000    -1.4351800000     0.0000000000
   24      H      -1.3612860000    -1.9932110000     1.6300240000
   25      H      -0.2034440000    -9.6159850000     0.1717190000
   26      C       0.0000000000     0.0000000000     0.0000000000
   27      S       0.1583830000     0.8853760000     1.5107320000
   28      C       0.4308760000     2.4369510000     0.7276290000
   29      C       0.1576820000     0.8944300000    -1.0646650000
   30      C       0.3973510000     2.2623840000    -0.6782870000
   31      C       0.1477830000     0.8287650000    -2.4861500000
   32      C       0.3672910000     2.0744060000    -3.1069160000
   33      S       0.5806330000     3.3035330000    -1.9657350000
   34      C       0.4160830000     2.3242040000    -4.5599720000
   35      O       0.2569210000     1.4043670000    -5.3502770000
   36      O       0.6420940000     3.5873380000    -5.0043750000
   37      F      -0.0418280000    -0.2691130000    -3.2462900000
   38      C       0.7143770000     3.9388270000    -6.3349760000
   39      H       0.9068440000     5.0268980000    -6.3702680000
   40      H      -0.2306610000     3.7100990000    -6.8756090000
   41      H       1.5319180000     3.3986810000    -6.8618780000
   42      H       0.5906990000     3.3429840000     1.3215100000
 ----------------------------------------------------------------

   10   -2754.2952877174      8.22e-07  Convergence criterion met
 Total energy in the final basis set =    -2754.2952877174
        RIMP2         total energy =     -2759.3500391423 a.u.

                    Orbital Energies (a.u.)
 --------------------------------------------------------------

 Alpha MOs
 -- Occupied --
-92.0161 -91.9948 -91.9889 -91.9866 -26.3338 -20.6119 -20.5921 -20.5920
-20.5496 -11.4100 -11.3778 -11.3191 -11.3187 -11.3122 -11.2970 -11.2967
-11.2961 -11.2931 -11.2884 -11.2867 -11.2865 -11.2864 -11.2842 -11.2820
-11.2802 -11.2616 -11.2595 -11.2588 -11.2501  -9.0143  -8.9988  -8.9894
 -8.9865  -6.6950  -6.6944  -6.6939  -6.6801  -6.6794  -6.6781  -6.6703
 -6.6696  -6.6687  -6.6675  -6.6669  -6.6660  -1.6476  -1.4716  -1.4162
 -1.4147  -1.3668  -1.2338  -1.1964  -1.1688  -1.1420  -1.0847  -1.0525
 -1.0476  -1.0281  -1.0027  -0.9935  -0.9717  -0.9611  -0.9504  -0.9385
 -0.8961  -0.8693  -0.8513  -0.8080  -0.7921  -0.7874  -0.7750  -0.7649
 -0.7584  -0.7328  -0.7187  -0.7157  -0.7008  -0.6884  -0.6836  -0.6783
 -0.6716  -0.6614  -0.6590  -0.6527  -0.6295  -0.6201  -0.6168  -0.6063
 -0.6022  -0.5945  -0.5859  -0.5746  -0.5694  -0.5651  -0.5578  -0.5523
 -0.5319  -0.5265  -0.5252  -0.5163  -0.5148  -0.5084  -0.5016  -0.4965
 -0.4885  -0.4839  -0.4778  -0.4677  -0.4615  -0.4612  -0.4595  -0.4183
 -0.3966  -0.3870  -0.3591  -0.3501  -0.3222  -0.2852  -0.2514

          Ground-State Mulliken Net Atomic Charges

     Atom                 Charge (a.u.)
  ----------------------------------------
      1 C                    -0.187246
      2 C                    -0.254348
      3 S                    -0.022750
      4 C                    -0.014027
      5 H                     0.196720
      6 C                    -0.027971
      7 C                     0.244323
      8 C                     0.239976
      9 C                    -0.042014
     10 C                    -0.015265
     11 O                    -0.333289
     12 O                    -0.339911
     13 C                    -0.085663
     14 H                     0.122534
     15 H                     0.091124
     16 H                     0.094510
     17 C                    -0.088097
     18 H                     0.125402
     19 H                     0.094215
     20 H                     0.091312
     21 C                    -0.258569
     22 S                    -0.007012
     23 C                     0.001915
     24 H                     0.195038
     25 H                     0.206661
     26 C                     0.012816
     27 S                     0.115876
     28 C                    -0.243576
     29 C                    -0.130447
     30 C                    -0.006359
     31 C                     0.384565
     32 C                    -0.147629
     33 S                     0.038214
     34 C                     0.461506
     35 O                    -0.450892
     36 O                    -0.298049
     37 F                    -0.208908
     38 C                    -0.054954
     39 H                     0.116570
     40 H                     0.084599
     41 H                     0.084311
     42 H                     0.214789
  ----------------------------------------
  Sum of atomic charges =     0.000000

                    Cartesian Multipole Moments
 -----------------------------------------------------------------
    Charge (ESU x 10^10)
                -0.0000
    Dipole Moment (Debye)
         X       0.5005      Y       1.4472      Z       2.9525
       Tot       3.3260
    Quadrupole Moments (Debye-Ang)
        XX    -185.1189     XY       4.0521     YY    -159.0343
        XZ     -14.1842     YZ      -9.4686     ZZ    -197.4511

 Total job time:  278.31s(wall), 9129.36s(cpu)
        *  Thank you very much for using Q-Chem.  Have a nice day.  *
