 Q-Chem 5.4, Q-Chem, Inc., Pleasanton, CA (2021)
 Q-Chem 5.4.0 for Intel X86 EM64T Linux

User input:
--------------------------------------------------------------
$molecule
0 1
C	0.136647	-8.519741	-0.235306
C	-0.221346	-7.635967	0.772334
S	0.650746	-7.651740	-1.702286
C	-0.090779	-6.261894	0.408807
H	-0.573754	-7.954738	1.761423
C	0.397735	-6.079985	-0.932876
C	0.568166	-4.798382	-1.479069
C	-0.418347	-5.153542	1.241204
C	-0.251852	-3.869626	0.693206
C	0.239872	-3.688927	-0.648921
O	-0.842486	-5.481075	2.493437
O	0.993092	-4.479871	-2.737331
C	1.884752	-5.356026	-3.416110
H	2.273124	-4.790496	-4.284447
H	1.373310	-6.268513	-3.793352
H	2.734702	-5.658187	-2.766716
C	-1.588030	-4.546999	3.264581
H	-1.974995	-5.107564	4.136519
H	-2.443843	-4.131473	2.690439
H	-0.955140	-3.712085	3.636177
C	0.367068	-2.314326	-1.009848
S	-0.517386	-2.295487	1.459936
C	0.000000	-1.435180	0.000000
H	0.721689	-1.993211	-1.997308
H	0.132444	-9.615985	-0.230945
C	0.000000	0.000000	0.000000
S	0.309721	0.844422	1.510732
C	0.847502	2.325108	0.727629
C	0.310602	0.853460	-1.064665
C	0.784173	2.159014	-0.678287
C	0.289451	0.790512	-2.486150
C	0.721927	1.979112	-3.106916
S	1.145464	3.152519	-1.965735
C	0.813355	2.216642	-4.559972
O	0.496884	1.338418	-5.350277
O	1.255274	3.421340	-5.004375
F	-0.087923	-0.257761	-3.246290
C	1.387494	3.754937	-6.334976
H	1.765978	4.793056	-6.370268
H	0.417095	3.693789	-6.875609
H	2.098820	3.081033	-6.861878
H	1.162229	3.189623	1.321510
$end

$rem
JOBTYPE		SP
EXCHANGE	HF
CORRELATION	pRIMP2
BASIS		cc-pvtz
METHOD		rimp2
AUX_BASIS	rimp2-cc-pvtz
SOLVENT_METHOD	PCM
PURECART	11111
SYMMETRY	false
MEM_TOTAL	110000
SCF_CONVERGENCE = 6
THRESH=10
GUI = 2
$end

$solvent
dielectric 4.90
$end
--------------------------------------------------------------

             Standard Nuclear Orientation (Angstroms)
    I     Atom           X                Y                Z
 ----------------------------------------------------------------
    1      C       0.1366470000    -8.5197410000    -0.2353060000
    2      C      -0.2213460000    -7.6359670000     0.7723340000
    3      S       0.6507460000    -7.6517400000    -1.7022860000
    4      C      -0.0907790000    -6.2618940000     0.4088070000
    5      H      -0.5737540000    -7.9547380000     1.7614230000
    6      C       0.3977350000    -6.0799850000    -0.9328760000
    7      C       0.5681660000    -4.7983820000    -1.4790690000
    8      C      -0.4183470000    -5.1535420000     1.2412040000
    9      C      -0.2518520000    -3.8696260000     0.6932060000
   10      C       0.2398720000    -3.6889270000    -0.6489210000
   11      O      -0.8424860000    -5.4810750000     2.4934370000
   12      O       0.9930920000    -4.4798710000    -2.7373310000
   13      C       1.8847520000    -5.3560260000    -3.4161100000
   14      H       2.2731240000    -4.7904960000    -4.2844470000
   15      H       1.3733100000    -6.2685130000    -3.7933520000
   16      H       2.7347020000    -5.6581870000    -2.7667160000
   17      C      -1.5880300000    -4.5469990000     3.2645810000
   18      H      -1.9749950000    -5.1075640000     4.1365190000
   19      H      -2.4438430000    -4.1314730000     2.6904390000
   20      H      -0.9551400000    -3.7120850000     3.6361770000
   21      C       0.3670680000    -2.3143260000    -1.0098480000
   22      S      -0.5173860000    -2.2954870000     1.4599360000
   23      C       0.0000000000    -1.4351800000     0.0000000000
   24      H       0.7216890000    -1.9932110000    -1.9973080000
   25      H       0.1324440000    -9.6159850000    -0.2309450000
   26      C       0.0000000000     0.0000000000     0.0000000000
   27      S       0.3097210000     0.8444220000     1.5107320000
   28      C       0.8475020000     2.3251080000     0.7276290000
   29      C       0.3106020000     0.8534600000    -1.0646650000
   30      C       0.7841730000     2.1590140000    -0.6782870000
   31      C       0.2894510000     0.7905120000    -2.4861500000
   32      C       0.7219270000     1.9791120000    -3.1069160000
   33      S       1.1454640000     3.1525190000    -1.9657350000
   34      C       0.8133550000     2.2166420000    -4.5599720000
   35      O       0.4968840000     1.3384180000    -5.3502770000
   36      O       1.2552740000     3.4213400000    -5.0043750000
   37      F      -0.0879230000    -0.2577610000    -3.2462900000
   38      C       1.3874940000     3.7549370000    -6.3349760000
   39      H       1.7659780000     4.7930560000    -6.3702680000
   40      H       0.4170950000     3.6937890000    -6.8756090000
   41      H       2.0988200000     3.0810330000    -6.8618780000
   42      H       1.1622290000     3.1896230000     1.3215100000
 ----------------------------------------------------------------

   10   -2754.2912097579      8.12e-07  Convergence criterion met
 Total energy in the final basis set =    -2754.2912097579
        RIMP2         total energy =     -2759.3483752790 a.u.

                    Orbital Energies (a.u.)
 --------------------------------------------------------------

 Alpha MOs
 -- Occupied --
-92.0163 -91.9963 -91.9899 -91.9867 -26.3367 -20.6122 -20.5928 -20.5913
-20.5503 -11.4106 -11.3781 -11.3199 -11.3186 -11.3105 -11.2982 -11.2981
-11.2965 -11.2957 -11.2886 -11.2876 -11.2875 -11.2855 -11.2845 -11.2823
-11.2802 -11.2619 -11.2598 -11.2569 -11.2502  -9.0148  -9.0003  -8.9906
 -8.9866  -6.6956  -6.6950  -6.6945  -6.6815  -6.6808  -6.6795  -6.6716
 -6.6710  -6.6700  -6.6676  -6.6670  -6.6661  -1.6505  -1.4720  -1.4169
 -1.4140  -1.3674  -1.2347  -1.1969  -1.1697  -1.1429  -1.0848  -1.0527
 -1.0486  -1.0286  -1.0032  -0.9939  -0.9727  -0.9611  -0.9507  -0.9387
 -0.8968  -0.8702  -0.8510  -0.8053  -0.7960  -0.7886  -0.7725  -0.7702
 -0.7577  -0.7333  -0.7211  -0.7181  -0.7017  -0.6896  -0.6835  -0.6786
 -0.6728  -0.6622  -0.6594  -0.6525  -0.6289  -0.6200  -0.6161  -0.6067
 -0.6019  -0.5952  -0.5867  -0.5758  -0.5699  -0.5617  -0.5539  -0.5487
 -0.5360  -0.5269  -0.5256  -0.5176  -0.5170  -0.5091  -0.5057  -0.4971
 -0.4870  -0.4848  -0.4783  -0.4679  -0.4619  -0.4615  -0.4592  -0.4230
 -0.3981  -0.3858  -0.3591  -0.3510  -0.3252  -0.2850  -0.2482

          Ground-State Mulliken Net Atomic Charges

     Atom                 Charge (a.u.)
  ----------------------------------------
      1 C                    -0.187718
      2 C                    -0.254604
      3 S                    -0.020394
      4 C                    -0.015272
      5 H                     0.196354
      6 C                    -0.028836
      7 C                     0.246389
      8 C                     0.243438
      9 C                    -0.038682
     10 C                    -0.031286
     11 O                    -0.333319
     12 O                    -0.338692
     13 C                    -0.086224
     14 H                     0.123759
     15 H                     0.091337
     16 H                     0.093770
     17 C                    -0.087970
     18 H                     0.126030
     19 H                     0.095318
     20 H                     0.089302
     21 C                    -0.206168
     22 S                    -0.036724
     23 C                    -0.013194
     24 H                     0.199069
     25 H                     0.206689
     26 C                    -0.000147
     27 S                     0.108090
     28 C                    -0.243050
     29 C                    -0.101679
     30 C                    -0.013533
     31 C                     0.362986
     32 C                    -0.137809
     33 S                     0.045262
     34 C                     0.460878
     35 O                    -0.450150
     36 O                    -0.298069
     37 F                    -0.213115
     38 C                    -0.054802
     39 H                     0.116725
     40 H                     0.084720
     41 H                     0.084368
     42 H                     0.216953
  ----------------------------------------
  Sum of atomic charges =     0.000000

                    Cartesian Multipole Moments
 -----------------------------------------------------------------
    Charge (ESU x 10^10)
                 0.0000
    Dipole Moment (Debye)
         X       1.5090      Y       1.4364      Z       3.2774
       Tot       3.8835
    Quadrupole Moments (Debye-Ang)
        XX    -192.2890     XY       3.7126     YY    -159.2509
        XZ     -15.4977     YZ     -10.0081     ZZ    -188.6667

 Total job time:  330.91s(wall), 10993.83s(cpu)
        *  Thank you very much for using Q-Chem.  Have a nice day.  *
