 Q-Chem 5.4, Q-Chem, Inc., Pleasanton, CA (2021)
 Q-Chem 5.4.0 for Intel X86 EM64T Linux

User input:
--------------------------------------------------------------
$molecule
0 1
C	0.208002	-8.519741	0.175432
C	-0.722164	-7.635967	-0.352097
S	1.563424	-7.651740	0.936458
C	-0.386833	-6.261894	-0.160388
H	-1.635031	-7.954738	-0.870905
C	0.849637	-6.079985	0.553685
C	1.357938	-4.798382	0.816372
C	-1.149702	-5.153542	-0.627524
C	-0.638941	-3.869626	-0.368399
C	0.597409	-3.688927	0.348912
O	-2.309260	-5.481075	-1.262667
O	2.523296	-4.479871	1.453338
C	3.036927	-5.356026	2.449320
H	3.824632	-4.790496	2.982577
H	3.497250	-6.268513	2.011155
H	2.249807	-5.658187	3.173591
C	-2.939226	-4.546999	-2.130793
H	-3.730721	-5.107564	-2.663289
H	-2.225196	-4.131473	-2.873906
H	-3.415077	-3.712085	-1.572045
C	0.930765	-2.314326	0.536849
S	-1.347913	-2.295487	-0.763041
C	0.000000	-1.435180	0.000000
H	1.841645	-1.993211	1.057554
H	0.204438	-9.615985	0.170535
C	0.000000	0.000000	0.000000
S	0.780044	0.447780	1.510732
C	2.143774	1.236372	0.727629
C	0.786529	0.454137	-1.064665
C	1.988499	1.149844	-0.678287
C	0.729864	0.419512	-2.486150
C	1.825177	1.052041	-3.106916
S	2.903877	1.678680	-1.965735
C	2.047896	1.175232	-4.559972
O	1.240953	0.705897	-5.350277
O	3.160791	1.814024	-5.004375
F	-0.233039	-0.140940	-3.246290
C	3.476510	1.984585	-6.334976
H	4.433735	2.536545	-6.370268
H	2.693835	2.561503	-6.875609
H	3.588239	1.011113	-6.861878
H	2.940569	1.696327	1.321510
$end

$rem
JOBTYPE		SP
EXCHANGE	HF
CORRELATION	pRIMP2
BASIS		cc-pvtz
METHOD		rimp2
AUX_BASIS	rimp2-cc-pvtz
SOLVENT_METHOD	PCM
PURECART	11111
SYMMETRY	false
MEM_TOTAL	110000
SCF_CONVERGENCE = 6
THRESH=10
GUI = 2
$end

$solvent
dielectric 4.90
$end
--------------------------------------------------------------

             Standard Nuclear Orientation (Angstroms)
    I     Atom           X                Y                Z
 ----------------------------------------------------------------
    1      C       0.2080020000    -8.5197410000     0.1754320000
    2      C      -0.7221640000    -7.6359670000    -0.3520970000
    3      S       1.5634240000    -7.6517400000     0.9364580000
    4      C      -0.3868330000    -6.2618940000    -0.1603880000
    5      H      -1.6350310000    -7.9547380000    -0.8709050000
    6      C       0.8496370000    -6.0799850000     0.5536850000
    7      C       1.3579380000    -4.7983820000     0.8163720000
    8      C      -1.1497020000    -5.1535420000    -0.6275240000
    9      C      -0.6389410000    -3.8696260000    -0.3683990000
   10      C       0.5974090000    -3.6889270000     0.3489120000
   11      O      -2.3092600000    -5.4810750000    -1.2626670000
   12      O       2.5232960000    -4.4798710000     1.4533380000
   13      C       3.0369270000    -5.3560260000     2.4493200000
   14      H       3.8246320000    -4.7904960000     2.9825770000
   15      H       3.4972500000    -6.2685130000     2.0111550000
   16      H       2.2498070000    -5.6581870000     3.1735910000
   17      C      -2.9392260000    -4.5469990000    -2.1307930000
   18      H      -3.7307210000    -5.1075640000    -2.6632890000
   19      H      -2.2251960000    -4.1314730000    -2.8739060000
   20      H      -3.4150770000    -3.7120850000    -1.5720450000
   21      C       0.9307650000    -2.3143260000     0.5368490000
   22      S      -1.3479130000    -2.2954870000    -0.7630410000
   23      C       0.0000000000    -1.4351800000     0.0000000000
   24      H       1.8416450000    -1.9932110000     1.0575540000
   25      H       0.2044380000    -9.6159850000     0.1705350000
   26      C       0.0000000000     0.0000000000     0.0000000000
   27      S       0.7800440000     0.4477800000     1.5107320000
   28      C       2.1437740000     1.2363720000     0.7276290000
   29      C       0.7865290000     0.4541370000    -1.0646650000
   30      C       1.9884990000     1.1498440000    -0.6782870000
   31      C       0.7298640000     0.4195120000    -2.4861500000
   32      C       1.8251770000     1.0520410000    -3.1069160000
   33      S       2.9038770000     1.6786800000    -1.9657350000
   34      C       2.0478960000     1.1752320000    -4.5599720000
   35      O       1.2409530000     0.7058970000    -5.3502770000
   36      O       3.1607910000     1.8140240000    -5.0043750000
   37      F      -0.2330390000    -0.1409400000    -3.2462900000
   38      C       3.4765100000     1.9845850000    -6.3349760000
   39      H       4.4337350000     2.5365450000    -6.3702680000
   40      H       2.6938350000     2.5615030000    -6.8756090000
   41      H       3.5882390000     1.0111130000    -6.8618780000
   42      H       2.9405690000     1.6963270000     1.3215100000
 ----------------------------------------------------------------

   11   -2754.2311635704      7.42e-07  Convergence criterion met
 Total energy in the final basis set =    -2754.2311635704
        RIMP2         total energy =     -2759.3036255658 a.u.

                    Orbital Energies (a.u.)
 --------------------------------------------------------------

 Alpha MOs
 -- Occupied --
-92.0167 -92.0065 -91.9829 -91.9797 -26.3337 -20.6158 -20.5895 -20.5878
-20.5570 -11.4162 -11.3755 -11.3258 -11.3154 -11.3118 -11.3107 -11.3005
-11.2973 -11.2944 -11.2904 -11.2845 -11.2842 -11.2804 -11.2779 -11.2751
-11.2735 -11.2561 -11.2525 -11.2473 -11.2410  -9.0156  -9.0099  -8.9829
 -8.9805  -6.6962  -6.6953  -6.6952  -6.6910  -6.6904  -6.6892  -6.6639
 -6.6633  -6.6624  -6.6615  -6.6607  -6.6598  -1.6470  -1.4761  -1.4134
 -1.4107  -1.3722  -1.2439  -1.1919  -1.1702  -1.1437  -1.0834  -1.0515
 -1.0471  -1.0333  -0.9973  -0.9914  -0.9757  -0.9570  -0.9475  -0.9388
 -0.8912  -0.8762  -0.8416  -0.8078  -0.7936  -0.7848  -0.7778  -0.7648
 -0.7526  -0.7291  -0.7180  -0.7156  -0.6988  -0.6918  -0.6817  -0.6791
 -0.6772  -0.6613  -0.6559  -0.6500  -0.6282  -0.6172  -0.6139  -0.6118
 -0.6069  -0.6023  -0.5886  -0.5717  -0.5663  -0.5639  -0.5524  -0.5494
 -0.5313  -0.5228  -0.5203  -0.5136  -0.5118  -0.5090  -0.5005  -0.4921
 -0.4883  -0.4878  -0.4683  -0.4666  -0.4643  -0.4604  -0.4513  -0.4134
 -0.3917  -0.3826  -0.3610  -0.3400  -0.3159  -0.2945  -0.2502

          Ground-State Mulliken Net Atomic Charges

     Atom                 Charge (a.u.)
  ----------------------------------------
      1 C                    -0.197287
      2 C                    -0.253844
      3 S                    -0.029701
      4 C                    -0.020957
      5 H                     0.195377
      6 C                    -0.025712
      7 C                     0.228794
      8 C                     0.243343
      9 C                    -0.044393
     10 C                    -0.017596
     11 O                    -0.333978
     12 O                    -0.342872
     13 C                    -0.085617
     14 H                     0.120482
     15 H                     0.090618
     16 H                     0.092874
     17 C                    -0.086650
     18 H                     0.123935
     19 H                     0.095080
     20 H                     0.089541
     21 C                    -0.281971
     22 S                    -0.028278
     23 C                     0.013426
     24 H                     0.190553
     25 H                     0.204669
     26 C                    -0.160203
     27 S                     0.135602
     28 C                    -0.157519
     29 C                    -0.008424
     30 C                    -0.025440
     31 C                     0.353327
     32 C                    -0.121597
     33 S                     0.074617
     34 C                     0.457523
     35 O                    -0.438355
     36 O                    -0.296611
     37 F                    -0.208699
     38 C                    -0.054735
     39 H                     0.117457
     40 H                     0.085683
     41 H                     0.085803
     42 H                     0.221733
  ----------------------------------------
  Sum of atomic charges =     0.000000

                    Cartesian Multipole Moments
 -----------------------------------------------------------------
    Charge (ESU x 10^10)
                -0.0000
    Dipole Moment (Debye)
         X       4.7380      Y       2.7489      Z       2.6505
       Tot       6.0852
    Quadrupole Moments (Debye-Ang)
        XX    -173.6656     XY      10.6449     YY    -180.7978
        XZ       1.0673     YZ      -6.8006     ZZ    -190.5840

 Total job time:  307.87s(wall), 10064.08s(cpu)
        *  Thank you very much for using Q-Chem.  Have a nice day.  *
