 Q-Chem 5.4, Q-Chem, Inc., Pleasanton, CA (2021)
 Q-Chem 5.4.0 for Intel X86 EM64T Linux

User input:
--------------------------------------------------------------
$molecule
0 1
C	-0.175432	-8.519741	0.208002
C	0.352097	-7.635967	-0.722164
S	-0.936458	-7.651740	1.563424
C	0.160388	-6.261894	-0.386833
H	0.870905	-7.954738	-1.635031
C	-0.553685	-6.079985	0.849637
C	-0.816372	-4.798382	1.357938
C	0.627524	-5.153542	-1.149702
C	0.368399	-3.869626	-0.638941
C	-0.348912	-3.688927	0.597409
O	1.262667	-5.481075	-2.309260
O	-1.453338	-4.479871	2.523296
C	-2.449320	-5.356026	3.036927
H	-2.982577	-4.790496	3.824632
H	-2.011155	-6.268513	3.497250
H	-3.173591	-5.658187	2.249807
C	2.130793	-4.546999	-2.939226
H	2.663289	-5.107564	-3.730721
H	2.873906	-4.131473	-2.225196
H	1.572045	-3.712085	-3.415077
C	-0.536849	-2.314326	0.930765
S	0.763041	-2.295487	-1.347913
C	-0.000000	-1.435180	-0.000000
H	-1.057554	-1.993211	1.841645
H	-0.170535	-9.615985	0.204438
C	0.000000	0.000000	0.000000
S	0.690437	0.576430	1.510732
C	1.896512	1.589852	0.727629
C	0.695720	0.583817	-1.064665
C	1.758621	1.477674	-0.678287
C	0.645928	0.539878	-2.486150
C	1.614763	1.352997	-3.106916
S	2.568261	2.157430	-1.965735
C	1.812707	1.512991	-4.559972
O	1.099523	0.910662	-5.350277
O	2.797769	2.335330	-5.004375
F	-0.205024	-0.179266	-3.246290
C	3.079074	2.558124	-6.334976
H	3.925910	3.267919	-6.370268
H	2.208109	2.990367	-6.875609
H	3.358147	1.618843	-6.861878
H	2.601331	2.181180	1.321510
$end

$rem
JOBTYPE		SP
EXCHANGE	HF
CORRELATION	pRIMP2
BASIS		cc-pvtz
METHOD		rimp2
AUX_BASIS	rimp2-cc-pvtz
SOLVENT_METHOD	PCM
PURECART	11111
SYMMETRY	false
MEM_TOTAL	110000
SCF_CONVERGENCE = 6
THRESH=10
GUI = 2
$end

$solvent
dielectric 4.90
$end
--------------------------------------------------------------

             Standard Nuclear Orientation (Angstroms)
    I     Atom           X                Y                Z
 ----------------------------------------------------------------
    1      C      -0.1754320000    -8.5197410000     0.2080020000
    2      C       0.3520970000    -7.6359670000    -0.7221640000
    3      S      -0.9364580000    -7.6517400000     1.5634240000
    4      C       0.1603880000    -6.2618940000    -0.3868330000
    5      H       0.8709050000    -7.9547380000    -1.6350310000
    6      C      -0.5536850000    -6.0799850000     0.8496370000
    7      C      -0.8163720000    -4.7983820000     1.3579380000
    8      C       0.6275240000    -5.1535420000    -1.1497020000
    9      C       0.3683990000    -3.8696260000    -0.6389410000
   10      C      -0.3489120000    -3.6889270000     0.5974090000
   11      O       1.2626670000    -5.4810750000    -2.3092600000
   12      O      -1.4533380000    -4.4798710000     2.5232960000
   13      C      -2.4493200000    -5.3560260000     3.0369270000
   14      H      -2.9825770000    -4.7904960000     3.8246320000
   15      H      -2.0111550000    -6.2685130000     3.4972500000
   16      H      -3.1735910000    -5.6581870000     2.2498070000
   17      C       2.1307930000    -4.5469990000    -2.9392260000
   18      H       2.6632890000    -5.1075640000    -3.7307210000
   19      H       2.8739060000    -4.1314730000    -2.2251960000
   20      H       1.5720450000    -3.7120850000    -3.4150770000
   21      C      -0.5368490000    -2.3143260000     0.9307650000
   22      S       0.7630410000    -2.2954870000    -1.3479130000
   23      C       0.0000000000    -1.4351800000     0.0000000000
   24      H      -1.0575540000    -1.9932110000     1.8416450000
   25      H      -0.1705350000    -9.6159850000     0.2044380000
   26      C       0.0000000000     0.0000000000     0.0000000000
   27      S       0.6904370000     0.5764300000     1.5107320000
   28      C       1.8965120000     1.5898520000     0.7276290000
   29      C       0.6957200000     0.5838170000    -1.0646650000
   30      C       1.7586210000     1.4776740000    -0.6782870000
   31      C       0.6459280000     0.5398780000    -2.4861500000
   32      C       1.6147630000     1.3529970000    -3.1069160000
   33      S       2.5682610000     2.1574300000    -1.9657350000
   34      C       1.8127070000     1.5129910000    -4.5599720000
   35      O       1.0995230000     0.9106620000    -5.3502770000
   36      O       2.7977690000     2.3353300000    -5.0043750000
   37      F      -0.2050240000    -0.1792660000    -3.2462900000
   38      C       3.0790740000     2.5581240000    -6.3349760000
   39      H       3.9259100000     3.2679190000    -6.3702680000
   40      H       2.2081090000     2.9903670000    -6.8756090000
   41      H       3.3581470000     1.6188430000    -6.8618780000
   42      H       2.6013310000     2.1811800000     1.3215100000
 ----------------------------------------------------------------

   11   -2754.2484894422      5.22e-07  Convergence criterion met
 Total energy in the final basis set =    -2754.2484894422
        RIMP2         total energy =     -2759.3194977275 a.u.

                    Orbital Energies (a.u.)
 --------------------------------------------------------------

 Alpha MOs
 -- Occupied --
-92.0174 -92.0048 -91.9850 -91.9830 -26.3347 -20.6158 -20.5904 -20.5874
-20.5563 -11.4158 -11.3783 -11.3186 -11.3167 -11.3104 -11.3099 -11.3015
-11.2950 -11.2928 -11.2905 -11.2879 -11.2856 -11.2840 -11.2809 -11.2792
-11.2749 -11.2577 -11.2526 -11.2475 -11.2397  -9.0162  -9.0084  -8.9859
 -8.9830  -6.6968  -6.6960  -6.6957  -6.6896  -6.6889  -6.6877  -6.6668
 -6.6661  -6.6651  -6.6640  -6.6634  -6.6625  -1.6487  -1.4759  -1.4143
 -1.4103  -1.3719  -1.2430  -1.1923  -1.1691  -1.1443  -1.0847  -1.0518
 -1.0471  -1.0335  -0.9992  -0.9916  -0.9758  -0.9576  -0.9480  -0.9393
 -0.8926  -0.8756  -0.8449  -0.8088  -0.7949  -0.7860  -0.7770  -0.7629
 -0.7543  -0.7298  -0.7207  -0.7164  -0.6983  -0.6914  -0.6818  -0.6788
 -0.6771  -0.6632  -0.6566  -0.6500  -0.6259  -0.6170  -0.6148  -0.6111
 -0.6076  -0.6010  -0.5817  -0.5740  -0.5659  -0.5602  -0.5557  -0.5504
 -0.5325  -0.5279  -0.5218  -0.5168  -0.5132  -0.5066  -0.5035  -0.4951
 -0.4893  -0.4834  -0.4745  -0.4670  -0.4643  -0.4639  -0.4561  -0.4175
 -0.3923  -0.3840  -0.3612  -0.3472  -0.3223  -0.2878  -0.2440

          Ground-State Mulliken Net Atomic Charges

     Atom                 Charge (a.u.)
  ----------------------------------------
      1 C                    -0.198312
      2 C                    -0.252980
      3 S                    -0.028393
      4 C                    -0.025750
      5 H                     0.195344
      6 C                    -0.024365
      7 C                     0.225991
      8 C                     0.244526
      9 C                    -0.047600
     10 C                     0.000981
     11 O                    -0.333103
     12 O                    -0.341614
     13 C                    -0.085326
     14 H                     0.120917
     15 H                     0.090018
     16 H                     0.093069
     17 C                    -0.089423
     18 H                     0.125480
     19 H                     0.093373
     20 H                     0.091176
     21 C                    -0.305558
     22 S                    -0.028545
     23 C                     0.039721
     24 H                     0.186825
     25 H                     0.204719
     26 C                    -0.096669
     27 S                     0.138572
     28 C                    -0.169860
     29 C                    -0.049773
     30 C                    -0.025502
     31 C                     0.335773
     32 C                    -0.121085
     33 S                     0.070640
     34 C                     0.458584
     35 O                    -0.440360
     36 O                    -0.296929
     37 F                    -0.208936
     38 C                    -0.054539
     39 H                     0.117485
     40 H                     0.085718
     41 H                     0.085333
     42 H                     0.220377
  ----------------------------------------
  Sum of atomic charges =     0.000000

                    Cartesian Multipole Moments
 -----------------------------------------------------------------
    Charge (ESU x 10^10)
                 0.0000
    Dipole Moment (Debye)
         X       4.2029      Y       3.2273      Z       2.1995
       Tot       5.7374
    Quadrupole Moments (Debye-Ang)
        XX    -178.4884     XY      10.5159     YY    -177.1199
        XZ     -21.6248     YZ      -5.8765     ZZ    -189.9883

 Total job time:  305.11s(wall), 9903.06s(cpu)
        *  Thank you very much for using Q-Chem.  Have a nice day.  *
