 Q-Chem 5.4, Q-Chem, Inc., Pleasanton, CA (2021)
 Q-Chem 5.4.0 for Intel X86 EM64T Linux

User input:
--------------------------------------------------------------
$molecule
0 1
C	0.047927	-8.519741	-0.267851
C	0.056157	-7.635967	0.801461
S	0.029285	-7.651740	-1.822194
C	0.054516	-6.261894	0.415201
H	0.063290	-7.954738	1.851431
C	0.054687	-6.079985	-1.012650
C	0.028030	-4.798382	-1.584194
C	0.031399	-5.153542	1.309433
C	0.000427	-3.869626	0.737539
C	0.003462	-3.688927	-0.691828
O	0.061128	-5.481075	2.631211
O	-0.003021	-4.479871	-2.911907
C	0.602710	-5.356026	-3.854716
H	0.670671	-4.790496	-4.803517
H	-0.006913	-6.268513	-4.034285
H	1.623507	-5.658187	-3.535185
C	-0.375708	-4.546999	3.610841
H	-0.441115	-5.107564	4.562544
H	-1.376277	-4.131473	3.364029
H	0.346107	-3.712085	3.743566
C	-0.000458	-2.314326	-1.074491
S	0.013144	-2.295487	1.548848
C	0.000000	-1.435180	0.000000
H	-0.004953	-1.993211	-2.123688
H	0.045468	-9.615985	-0.262315
C	0.000000	0.000000	0.000000
S	0.080615	0.895811	1.510732
C	0.216842	2.465231	0.727629
C	0.079127	0.904769	-1.064665
C	0.198659	2.288406	-0.678287
C	0.074988	0.838492	-2.486150
C	0.185097	2.098524	-3.106916
S	0.290501	3.341568	-1.965735
C	0.211932	2.351623	-4.559972
O	0.133545	1.421416	-5.350277
O	0.326994	3.629649	-5.004375
F	-0.018214	-0.271734	-3.246290
C	0.368367	3.986101	-6.334976
H	0.465270	5.086806	-6.370268
H	-0.553140	3.675878	-6.875609
H	1.229874	3.519263	-6.861878
H	0.297091	3.381746	1.321510
$end

$rem
JOBTYPE		SP
EXCHANGE	HF
CORRELATION	pRIMP2
BASIS		cc-pvtz
METHOD		rimp2
AUX_BASIS	rimp2-cc-pvtz
SOLVENT_METHOD	PCM
PURECART	11111
SYMMETRY	false
MEM_TOTAL	110000
SCF_CONVERGENCE = 6
THRESH=10
GUI = 2
$end

$solvent
dielectric 4.90
$end
--------------------------------------------------------------

             Standard Nuclear Orientation (Angstroms)
    I     Atom           X                Y                Z
 ----------------------------------------------------------------
    1      C       0.0479270000    -8.5197410000    -0.2678510000
    2      C       0.0561570000    -7.6359670000     0.8014610000
    3      S       0.0292850000    -7.6517400000    -1.8221940000
    4      C       0.0545160000    -6.2618940000     0.4152010000
    5      H       0.0632900000    -7.9547380000     1.8514310000
    6      C       0.0546870000    -6.0799850000    -1.0126500000
    7      C       0.0280300000    -4.7983820000    -1.5841940000
    8      C       0.0313990000    -5.1535420000     1.3094330000
    9      C       0.0004270000    -3.8696260000     0.7375390000
   10      C       0.0034620000    -3.6889270000    -0.6918280000
   11      O       0.0611280000    -5.4810750000     2.6312110000
   12      O      -0.0030210000    -4.4798710000    -2.9119070000
   13      C       0.6027100000    -5.3560260000    -3.8547160000
   14      H       0.6706710000    -4.7904960000    -4.8035170000
   15      H      -0.0069130000    -6.2685130000    -4.0342850000
   16      H       1.6235070000    -5.6581870000    -3.5351850000
   17      C      -0.3757080000    -4.5469990000     3.6108410000
   18      H      -0.4411150000    -5.1075640000     4.5625440000
   19      H      -1.3762770000    -4.1314730000     3.3640290000
   20      H       0.3461070000    -3.7120850000     3.7435660000
   21      C      -0.0004580000    -2.3143260000    -1.0744910000
   22      S       0.0131440000    -2.2954870000     1.5488480000
   23      C       0.0000000000    -1.4351800000     0.0000000000
   24      H      -0.0049530000    -1.9932110000    -2.1236880000
   25      H       0.0454680000    -9.6159850000    -0.2623150000
   26      C       0.0000000000     0.0000000000     0.0000000000
   27      S       0.0806150000     0.8958110000     1.5107320000
   28      C       0.2168420000     2.4652310000     0.7276290000
   29      C       0.0791270000     0.9047690000    -1.0646650000
   30      C       0.1986590000     2.2884060000    -0.6782870000
   31      C       0.0749880000     0.8384920000    -2.4861500000
   32      C       0.1850970000     2.0985240000    -3.1069160000
   33      S       0.2905010000     3.3415680000    -1.9657350000
   34      C       0.2119320000     2.3516230000    -4.5599720000
   35      O       0.1335450000     1.4214160000    -5.3502770000
   36      O       0.3269940000     3.6296490000    -5.0043750000
   37      F      -0.0182140000    -0.2717340000    -3.2462900000
   38      C       0.3683670000     3.9861010000    -6.3349760000
   39      H       0.4652700000     5.0868060000    -6.3702680000
   40      H      -0.5531400000     3.6758780000    -6.8756090000
   41      H       1.2298740000     3.5192630000    -6.8618780000
   42      H       0.2970910000     3.3817460000     1.3215100000
 ----------------------------------------------------------------

   10   -2754.2962414157      8.48e-07  Convergence criterion met
 Total energy in the final basis set =    -2754.2962414157
        RIMP2         total energy =     -2759.3514895312 a.u.

                    Orbital Energies (a.u.)
 --------------------------------------------------------------

 Alpha MOs
 -- Occupied --
-92.0161 -91.9950 -91.9910 -91.9873 -26.3389 -20.6117 -20.5932 -20.5919
-20.5494 -11.4098 -11.3791 -11.3203 -11.3199 -11.3148 -11.2976 -11.2965
-11.2962 -11.2914 -11.2886 -11.2883 -11.2879 -11.2856 -11.2850 -11.2810
-11.2806 -11.2623 -11.2609 -11.2577 -11.2507  -9.0146  -8.9990  -8.9917
 -8.9872  -6.6954  -6.6948  -6.6943  -6.6803  -6.6796  -6.6783  -6.6727
 -6.6721  -6.6711  -6.6681  -6.6675  -6.6667  -1.6536  -1.4715  -1.4173
 -1.4146  -1.3667  -1.2337  -1.1976  -1.1700  -1.1426  -1.0851  -1.0534
 -1.0484  -1.0281  -1.0042  -0.9943  -0.9726  -0.9613  -0.9510  -0.9385
 -0.8974  -0.8696  -0.8526  -0.8080  -0.7968  -0.7892  -0.7725  -0.7698
 -0.7582  -0.7335  -0.7219  -0.7204  -0.7020  -0.6900  -0.6853  -0.6784
 -0.6726  -0.6626  -0.6598  -0.6528  -0.6297  -0.6205  -0.6160  -0.6062
 -0.5996  -0.5939  -0.5889  -0.5764  -0.5696  -0.5604  -0.5533  -0.5487
 -0.5372  -0.5275  -0.5248  -0.5198  -0.5177  -0.5099  -0.5057  -0.4966
 -0.4864  -0.4842  -0.4803  -0.4677  -0.4620  -0.4612  -0.4585  -0.4252
 -0.3989  -0.3863  -0.3602  -0.3508  -0.3261  -0.2846  -0.2471

          Ground-State Mulliken Net Atomic Charges

     Atom                 Charge (a.u.)
  ----------------------------------------
      1 C                    -0.185643
      2 C                    -0.255475
      3 S                    -0.019728
      4 C                    -0.012766
      5 H                     0.196650
      6 C                    -0.029744
      7 C                     0.256990
      8 C                     0.242599
      9 C                    -0.036521
     10 C                    -0.040929
     11 O                    -0.333174
     12 O                    -0.339264
     13 C                    -0.086615
     14 H                     0.124558
     15 H                     0.091637
     16 H                     0.094077
     17 C                    -0.088709
     18 H                     0.126290
     19 H                     0.095114
     20 H                     0.089631
     21 C                    -0.201212
     22 S                    -0.044631
     23 C                    -0.032224
     24 H                     0.216674
     25 H                     0.207007
     26 C                    -0.033847
     27 S                     0.082370
     28 C                    -0.245177
     29 C                    -0.055302
     30 C                    -0.019642
     31 C                     0.397479
     32 C                    -0.137945
     33 S                     0.035584
     34 C                     0.462106
     35 O                    -0.452572
     36 O                    -0.298014
     37 F                    -0.217716
     38 C                    -0.055177
     39 H                     0.116706
     40 H                     0.084490
     41 H                     0.084303
     42 H                     0.217761
  ----------------------------------------
  Sum of atomic charges =     0.000000

                    Cartesian Multipole Moments
 -----------------------------------------------------------------
    Charge (ESU x 10^10)
                 0.0000
    Dipole Moment (Debye)
         X       0.5503      Y       1.0571      Z       3.1714
       Tot       3.3879
    Quadrupole Moments (Debye-Ang)
        XX    -200.4781     XY      -0.0785     YY    -156.2966
        XZ      -6.6874     YZ      -9.5679     ZZ    -182.6340

 Total job time:  282.03s(wall), 9383.31s(cpu)
        *  Thank you very much for using Q-Chem.  Have a nice day.  *
