 Q-Chem 5.4, Q-Chem, Inc., Pleasanton, CA (2021)
 Q-Chem 5.4.0 for Intel X86 EM64T Linux

User input:
--------------------------------------------------------------
$molecule
0 1
C	-0.235306	-8.519741	-0.136647
C	0.772334	-7.635967	0.221346
S	-1.702286	-7.651740	-0.650746
C	0.408807	-6.261894	0.090779
H	1.761423	-7.954738	0.573754
C	-0.932876	-6.079985	-0.397735
C	-1.479069	-4.798382	-0.568166
C	1.241204	-5.153542	0.418347
C	0.693206	-3.869626	0.251852
C	-0.648921	-3.688927	-0.239872
O	2.493437	-5.481075	0.842486
O	-2.737331	-4.479871	-0.993092
C	-3.416110	-5.356026	-1.884752
H	-4.284447	-4.790496	-2.273124
H	-3.793352	-6.268513	-1.373310
H	-2.766716	-5.658187	-2.734702
C	3.264581	-4.546999	1.588030
H	4.136519	-5.107564	1.974995
H	2.690439	-4.131473	2.443843
H	3.636177	-3.712085	0.955140
C	-1.009848	-2.314326	-0.367068
S	1.459936	-2.295487	0.517386
C	0.000000	-1.435180	0.000000
H	-1.997308	-1.993211	-0.721689
H	-0.230945	-9.615985	-0.132444
C	0.000000	0.000000	0.000000
S	0.309721	0.844422	1.510732
C	0.847502	2.325108	0.727629
C	0.310602	0.853460	-1.064665
C	0.784173	2.159014	-0.678287
C	0.289451	0.790512	-2.486150
C	0.721927	1.979112	-3.106916
S	1.145464	3.152519	-1.965735
C	0.813355	2.216642	-4.559972
O	0.496884	1.338418	-5.350277
O	1.255274	3.421340	-5.004375
F	-0.087923	-0.257761	-3.246290
C	1.387494	3.754937	-6.334976
H	1.765978	4.793056	-6.370268
H	0.417095	3.693789	-6.875609
H	2.098820	3.081033	-6.861878
H	1.162229	3.189623	1.321510
$end

$rem
JOBTYPE		SP
EXCHANGE	HF
CORRELATION	pRIMP2
BASIS		cc-pvtz
METHOD		rimp2
AUX_BASIS	rimp2-cc-pvtz
SOLVENT_METHOD	PCM
PURECART	11111
SYMMETRY	false
MEM_TOTAL	110000
SCF_CONVERGENCE = 6
THRESH=10
GUI = 2
$end

$solvent
dielectric 4.90
$end
--------------------------------------------------------------

             Standard Nuclear Orientation (Angstroms)
    I     Atom           X                Y                Z
 ----------------------------------------------------------------
    1      C      -0.2353060000    -8.5197410000    -0.1366470000
    2      C       0.7723340000    -7.6359670000     0.2213460000
    3      S      -1.7022860000    -7.6517400000    -0.6507460000
    4      C       0.4088070000    -6.2618940000     0.0907790000
    5      H       1.7614230000    -7.9547380000     0.5737540000
    6      C      -0.9328760000    -6.0799850000    -0.3977350000
    7      C      -1.4790690000    -4.7983820000    -0.5681660000
    8      C       1.2412040000    -5.1535420000     0.4183470000
    9      C       0.6932060000    -3.8696260000     0.2518520000
   10      C      -0.6489210000    -3.6889270000    -0.2398720000
   11      O       2.4934370000    -5.4810750000     0.8424860000
   12      O      -2.7373310000    -4.4798710000    -0.9930920000
   13      C      -3.4161100000    -5.3560260000    -1.8847520000
   14      H      -4.2844470000    -4.7904960000    -2.2731240000
   15      H      -3.7933520000    -6.2685130000    -1.3733100000
   16      H      -2.7667160000    -5.6581870000    -2.7347020000
   17      C       3.2645810000    -4.5469990000     1.5880300000
   18      H       4.1365190000    -5.1075640000     1.9749950000
   19      H       2.6904390000    -4.1314730000     2.4438430000
   20      H       3.6361770000    -3.7120850000     0.9551400000
   21      C      -1.0098480000    -2.3143260000    -0.3670680000
   22      S       1.4599360000    -2.2954870000     0.5173860000
   23      C       0.0000000000    -1.4351800000     0.0000000000
   24      H      -1.9973080000    -1.9932110000    -0.7216890000
   25      H      -0.2309450000    -9.6159850000    -0.1324440000
   26      C       0.0000000000     0.0000000000     0.0000000000
   27      S       0.3097210000     0.8444220000     1.5107320000
   28      C       0.8475020000     2.3251080000     0.7276290000
   29      C       0.3106020000     0.8534600000    -1.0646650000
   30      C       0.7841730000     2.1590140000    -0.6782870000
   31      C       0.2894510000     0.7905120000    -2.4861500000
   32      C       0.7219270000     1.9791120000    -3.1069160000
   33      S       1.1454640000     3.1525190000    -1.9657350000
   34      C       0.8133550000     2.2166420000    -4.5599720000
   35      O       0.4968840000     1.3384180000    -5.3502770000
   36      O       1.2552740000     3.4213400000    -5.0043750000
   37      F      -0.0879230000    -0.2577610000    -3.2462900000
   38      C       1.3874940000     3.7549370000    -6.3349760000
   39      H       1.7659780000     4.7930560000    -6.3702680000
   40      H       0.4170950000     3.6937890000    -6.8756090000
   41      H       2.0988200000     3.0810330000    -6.8618780000
   42      H       1.1622290000     3.1896230000     1.3215100000
 ----------------------------------------------------------------

   10   -2754.2887762677      8.43e-07  Convergence criterion met
 Total energy in the final basis set =    -2754.2887762677
        RIMP2         total energy =     -2759.3435368245 a.u.

                    Orbital Energies (a.u.)
 --------------------------------------------------------------

 Alpha MOs
 -- Occupied --
-92.0157 -91.9953 -91.9900 -91.9863 -26.3337 -20.6123 -20.5924 -20.5912
-20.5505 -11.4107 -11.3769 -11.3192 -11.3181 -11.3062 -11.2985 -11.2970
-11.2958 -11.2925 -11.2885 -11.2873 -11.2862 -11.2856 -11.2839 -11.2838
-11.2799 -11.2602 -11.2592 -11.2569 -11.2499  -9.0140  -8.9993  -8.9904
 -8.9862  -6.6947  -6.6941  -6.6937  -6.6805  -6.6799  -6.6785  -6.6713
 -6.6706  -6.6697  -6.6672  -6.6666  -6.6657  -1.6466  -1.4721  -1.4165
 -1.4140  -1.3674  -1.2338  -1.1957  -1.1683  -1.1421  -1.0836  -1.0519
 -1.0476  -1.0279  -1.0021  -0.9929  -0.9715  -0.9612  -0.9504  -0.9380
 -0.8959  -0.8696  -0.8500  -0.8038  -0.7917  -0.7878  -0.7725  -0.7698
 -0.7577  -0.7324  -0.7181  -0.7149  -0.7012  -0.6891  -0.6827  -0.6786
 -0.6714  -0.6603  -0.6591  -0.6524  -0.6305  -0.6199  -0.6171  -0.6067
 -0.6021  -0.5953  -0.5846  -0.5783  -0.5673  -0.5629  -0.5557  -0.5483
 -0.5371  -0.5262  -0.5234  -0.5160  -0.5147  -0.5079  -0.5020  -0.4932
 -0.4904  -0.4843  -0.4744  -0.4698  -0.4618  -0.4615  -0.4612  -0.4098
 -0.3977  -0.3870  -0.3572  -0.3494  -0.3152  -0.2894  -0.2575

          Ground-State Mulliken Net Atomic Charges

     Atom                 Charge (a.u.)
  ----------------------------------------
      1 C                    -0.187571
      2 C                    -0.255060
      3 S                    -0.021788
      4 C                    -0.013107
      5 H                     0.196297
      6 C                    -0.027498
      7 C                     0.244174
      8 C                     0.240174
      9 C                    -0.042859
     10 C                    -0.028068
     11 O                    -0.333168
     12 O                    -0.339804
     13 C                    -0.085572
     14 H                     0.122792
     15 H                     0.090614
     16 H                     0.094655
     17 C                    -0.086692
     18 H                     0.124995
     19 H                     0.094334
     20 H                     0.089944
     21 C                    -0.214423
     22 S                    -0.000053
     23 C                    -0.068738
     24 H                     0.196101
     25 H                     0.206519
     26 C                    -0.002302
     27 S                     0.115758
     28 C                    -0.229014
     29 C                    -0.086921
     30 C                    -0.002803
     31 C                     0.370365
     32 C                    -0.151550
     33 S                     0.041798
     34 C                     0.458764
     35 O                    -0.448798
     36 O                    -0.297764
     37 F                    -0.209994
     38 C                    -0.054839
     39 H                     0.116603
     40 H                     0.084632
     41 H                     0.084600
     42 H                     0.215269
  ----------------------------------------
  Sum of atomic charges =     0.000000

                    Cartesian Multipole Moments
 -----------------------------------------------------------------
    Charge (ESU x 10^10)
                -0.0000
    Dipole Moment (Debye)
         X       1.4449      Y       1.5988      Z       2.9814
       Tot       3.6787
    Quadrupole Moments (Debye-Ang)
        XX    -182.2116     XY       5.1073     YY    -160.4992
        XZ       7.8388     YZ      -8.5872     ZZ    -198.5871

 Total job time:  330.61s(wall), 10864.82s(cpu)
        *  Thank you very much for using Q-Chem.  Have a nice day.  *
