 Q-Chem 5.4, Q-Chem, Inc., Pleasanton, CA (2021)
 Q-Chem 5.4.0 for Intel X86 EM64T Linux

User input:
--------------------------------------------------------------
$molecule
0 1
C	-0.174379	-8.519741	-0.208886
C	0.650052	-7.635967	0.472151
S	-1.377058	-7.651740	-1.193717
C	0.353105	-6.261894	0.225125
H	1.458961	-7.954738	1.141594
C	-0.740583	-6.079985	-0.692811
C	-1.195546	-4.798382	-1.039773
C	1.023267	-5.153542	0.817634
C	0.565262	-3.869626	0.473754
C	-0.527745	-3.688927	-0.447350
O	2.054917	-5.481075	1.644483
O	-2.232592	-4.479871	-1.869424
C	-2.565470	-5.356026	-2.939466
H	-3.248608	-4.790496	-3.601405
H	-3.094885	-6.268513	-2.587892
H	-1.664539	-5.658187	-3.516052
C	2.524564	-4.546999	2.608813
H	3.211568	-5.107564	3.270661
H	1.692342	-4.131473	3.216646
H	3.090211	-3.712085	2.141184
C	-0.823402	-2.314326	-0.690319
S	1.194935	-2.295487	0.985511
C	0.000000	-1.435180	0.000000
H	-1.630024	-1.993211	-1.361286
H	-0.171719	-9.615985	-0.203444
C	0.000000	0.000000	0.000000
S	0.780044	0.447780	1.510732
C	2.143774	1.236372	0.727629
C	0.786529	0.454137	-1.064665
C	1.988499	1.149844	-0.678287
C	0.729864	0.419512	-2.486150
C	1.825177	1.052041	-3.106916
S	2.903877	1.678680	-1.965735
C	2.047896	1.175232	-4.559972
O	1.240953	0.705897	-5.350277
O	3.160791	1.814024	-5.004375
F	-0.233039	-0.140940	-3.246290
C	3.476510	1.984585	-6.334976
H	4.433735	2.536545	-6.370268
H	2.693835	2.561503	-6.875609
H	3.588239	1.011113	-6.861878
H	2.940569	1.696327	1.321510
$end

$rem
JOBTYPE		SP
EXCHANGE	HF
CORRELATION	pRIMP2
BASIS		cc-pvtz
METHOD		rimp2
AUX_BASIS	rimp2-cc-pvtz
SOLVENT_METHOD	PCM
PURECART	11111
SYMMETRY	false
MEM_TOTAL	110000
SCF_CONVERGENCE = 6
THRESH=10
GUI = 2
$end

$solvent
dielectric 4.90
$end
--------------------------------------------------------------

             Standard Nuclear Orientation (Angstroms)
    I     Atom           X                Y                Z
 ----------------------------------------------------------------
    1      C      -0.1743790000    -8.5197410000    -0.2088860000
    2      C       0.6500520000    -7.6359670000     0.4721510000
    3      S      -1.3770580000    -7.6517400000    -1.1937170000
    4      C       0.3531050000    -6.2618940000     0.2251250000
    5      H       1.4589610000    -7.9547380000     1.1415940000
    6      C      -0.7405830000    -6.0799850000    -0.6928110000
    7      C      -1.1955460000    -4.7983820000    -1.0397730000
    8      C       1.0232670000    -5.1535420000     0.8176340000
    9      C       0.5652620000    -3.8696260000     0.4737540000
   10      C      -0.5277450000    -3.6889270000    -0.4473500000
   11      O       2.0549170000    -5.4810750000     1.6444830000
   12      O      -2.2325920000    -4.4798710000    -1.8694240000
   13      C      -2.5654700000    -5.3560260000    -2.9394660000
   14      H      -3.2486080000    -4.7904960000    -3.6014050000
   15      H      -3.0948850000    -6.2685130000    -2.5878920000
   16      H      -1.6645390000    -5.6581870000    -3.5160520000
   17      C       2.5245640000    -4.5469990000     2.6088130000
   18      H       3.2115680000    -5.1075640000     3.2706610000
   19      H       1.6923420000    -4.1314730000     3.2166460000
   20      H       3.0902110000    -3.7120850000     2.1411840000
   21      C      -0.8234020000    -2.3143260000    -0.6903190000
   22      S       1.1949350000    -2.2954870000     0.9855110000
   23      C       0.0000000000    -1.4351800000     0.0000000000
   24      H      -1.6300240000    -1.9932110000    -1.3612860000
   25      H      -0.1717190000    -9.6159850000    -0.2034440000
   26      C       0.0000000000     0.0000000000     0.0000000000
   27      S       0.7800440000     0.4477800000     1.5107320000
   28      C       2.1437740000     1.2363720000     0.7276290000
   29      C       0.7865290000     0.4541370000    -1.0646650000
   30      C       1.9884990000     1.1498440000    -0.6782870000
   31      C       0.7298640000     0.4195120000    -2.4861500000
   32      C       1.8251770000     1.0520410000    -3.1069160000
   33      S       2.9038770000     1.6786800000    -1.9657350000
   34      C       2.0478960000     1.1752320000    -4.5599720000
   35      O       1.2409530000     0.7058970000    -5.3502770000
   36      O       3.1607910000     1.8140240000    -5.0043750000
   37      F      -0.2330390000    -0.1409400000    -3.2462900000
   38      C       3.4765100000     1.9845850000    -6.3349760000
   39      H       4.4337350000     2.5365450000    -6.3702680000
   40      H       2.6938350000     2.5615030000    -6.8756090000
   41      H       3.5882390000     1.0111130000    -6.8618780000
   42      H       2.9405690000     1.6963270000     1.3215100000
 ----------------------------------------------------------------

   11   -2754.2251236868      6.31e-07  Convergence criterion met
 Total energy in the final basis set =    -2754.2251236868
        RIMP2         total energy =     -2759.2999439849 a.u.

                    Orbital Energies (a.u.)
 --------------------------------------------------------------

 Alpha MOs
 -- Occupied --
-92.0166 -92.0075 -91.9843 -91.9820 -26.3347 -20.6165 -20.5904 -20.5854
-20.5580 -11.4171 -11.3766 -11.3276 -11.3154 -11.3138 -11.3081 -11.3022
-11.2992 -11.2923 -11.2908 -11.2863 -11.2824 -11.2796 -11.2753 -11.2751
-11.2739 -11.2549 -11.2510 -11.2468 -11.2343  -9.0162  -9.0109  -8.9851
 -8.9820  -6.6967  -6.6958  -6.6958  -6.6921  -6.6915  -6.6902  -6.6660
 -6.6651  -6.6642  -6.6630  -6.6623  -6.6615  -1.6477  -1.4768  -1.4142
 -1.4083  -1.3730  -1.2459  -1.1918  -1.1713  -1.1434  -1.0831  -1.0527
 -1.0464  -1.0340  -0.9975  -0.9914  -0.9770  -0.9575  -0.9476  -0.9367
 -0.8930  -0.8769  -0.8430  -0.8023  -0.7970  -0.7857  -0.7759  -0.7663
 -0.7525  -0.7283  -0.7190  -0.7163  -0.6981  -0.6934  -0.6822  -0.6786
 -0.6768  -0.6624  -0.6564  -0.6487  -0.6279  -0.6163  -0.6142  -0.6127
 -0.6079  -0.6002  -0.5898  -0.5739  -0.5635  -0.5628  -0.5519  -0.5385
 -0.5355  -0.5297  -0.5193  -0.5161  -0.5125  -0.5096  -0.5021  -0.4922
 -0.4894  -0.4843  -0.4738  -0.4670  -0.4648  -0.4591  -0.4531  -0.4162
 -0.3936  -0.3799  -0.3513  -0.3504  -0.3159  -0.2930  -0.2474

          Ground-State Mulliken Net Atomic Charges

     Atom                 Charge (a.u.)
  ----------------------------------------
      1 C                    -0.199820
      2 C                    -0.253576
      3 S                    -0.029277
      4 C                    -0.026123
      5 H                     0.194632
      6 C                    -0.024709
      7 C                     0.228521
      8 C                     0.242374
      9 C                    -0.057675
     10 C                    -0.005790
     11 O                    -0.333594
     12 O                    -0.341075
     13 C                    -0.085281
     14 H                     0.121500
     15 H                     0.089342
     16 H                     0.092287
     17 C                    -0.087062
     18 H                     0.124944
     19 H                     0.093809
     20 H                     0.088075
     21 C                    -0.293936
     22 S                    -0.026904
     23 C                    -0.000933
     24 H                     0.189071
     25 H                     0.204209
     26 C                    -0.137325
     27 S                     0.123936
     28 C                    -0.151955
     29 C                    -0.001253
     30 C                    -0.025041
     31 C                     0.356806
     32 C                    -0.115060
     33 S                     0.075460
     34 C                     0.456855
     35 O                    -0.436861
     36 O                    -0.296408
     37 F                    -0.209291
     38 C                    -0.054711
     39 H                     0.117610
     40 H                     0.085892
     41 H                     0.085987
     42 H                     0.222349
  ----------------------------------------
  Sum of atomic charges =     0.000000

                    Cartesian Multipole Moments
 -----------------------------------------------------------------
    Charge (ESU x 10^10)
                -0.0000
    Dipole Moment (Debye)
         X       5.8819      Y       3.2301      Z       2.7149
       Tot       7.2388
    Quadrupole Moments (Debye-Ang)
        XX    -177.4718     XY       7.4716     YY    -182.8875
        XZ       0.3015     YZ      -6.0496     ZZ    -185.6121

 Total job time:  305.49s(wall), 9986.06s(cpu)
        *  Thank you very much for using Q-Chem.  Have a nice day.  *
