 Q-Chem 5.4, Q-Chem, Inc., Pleasanton, CA (2021)
 Q-Chem 5.4.0 for Intel X86 EM64T Linux

User input:
--------------------------------------------------------------
$molecule
0 1
C	-0.255459	-8.519741	-0.093711
C	0.799036	-7.635967	0.083869
S	-1.789425	-7.651740	-0.345260
C	0.418360	-6.261894	0.018411
H	1.834294	-7.954738	0.259169
C	-0.987769	-6.079985	-0.229701
C	-1.555260	-4.798382	-0.302697
C	1.294992	-5.153542	0.196459
C	0.726408	-3.869626	0.127651
C	-0.680716	-3.688927	-0.123544
O	2.601852	-5.481075	0.396706
O	-2.868193	-4.479871	-0.502673
C	-3.691495	-5.356026	-1.262918
H	-4.614080	-4.790496	-1.494604
H	-3.974195	-6.268513	-0.693738
H	-3.199559	-5.658187	-2.212720
C	3.490743	-4.546999	0.997016
H	4.416630	-5.107564	1.226691
H	3.073934	-4.131473	1.939526
H	3.746794	-3.712085	0.309214
C	-1.058247	-2.314326	-0.186133
S	1.527599	-2.295487	0.256010
C	0.000000	-1.435180	0.000000
H	-2.092285	-1.993211	-0.363896
H	-0.250435	-9.615985	-0.090328
C	0.000000	0.000000	0.000000
S	0.234946	0.868203	1.510732
C	0.641630	2.390125	0.727629
C	0.235036	0.877284	-1.064665
C	0.593019	2.219143	-0.678287
C	0.219452	0.812732	-2.486150
C	0.546689	2.034501	-3.106916
S	0.866345	3.240357	-1.965735
C	0.617067	2.279095	-4.559972
O	0.378342	1.376631	-5.350277
O	0.952308	3.517725	-5.004375
F	-0.065123	-0.264443	-3.246290
C	1.054950	3.861577	-6.334976
H	1.341516	4.928732	-6.370268
H	0.093573	3.716085	-6.875609
H	1.822303	3.252232	-6.861878
H	0.879812	3.278780	1.321510
$end

$rem
JOBTYPE		SP
EXCHANGE	HF
CORRELATION	pRIMP2
BASIS		cc-pvtz
METHOD		rimp2
AUX_BASIS	rimp2-cc-pvtz
SOLVENT_METHOD	PCM
PURECART	11111
SYMMETRY	false
MEM_TOTAL	110000
SCF_CONVERGENCE = 6
THRESH=10
GUI = 2
$end

$solvent
dielectric 4.90
$end
--------------------------------------------------------------

             Standard Nuclear Orientation (Angstroms)
    I     Atom           X                Y                Z
 ----------------------------------------------------------------
    1      C      -0.2554590000    -8.5197410000    -0.0937110000
    2      C       0.7990360000    -7.6359670000     0.0838690000
    3      S      -1.7894250000    -7.6517400000    -0.3452600000
    4      C       0.4183600000    -6.2618940000     0.0184110000
    5      H       1.8342940000    -7.9547380000     0.2591690000
    6      C      -0.9877690000    -6.0799850000    -0.2297010000
    7      C      -1.5552600000    -4.7983820000    -0.3026970000
    8      C       1.2949920000    -5.1535420000     0.1964590000
    9      C       0.7264080000    -3.8696260000     0.1276510000
   10      C      -0.6807160000    -3.6889270000    -0.1235440000
   11      O       2.6018520000    -5.4810750000     0.3967060000
   12      O      -2.8681930000    -4.4798710000    -0.5026730000
   13      C      -3.6914950000    -5.3560260000    -1.2629180000
   14      H      -4.6140800000    -4.7904960000    -1.4946040000
   15      H      -3.9741950000    -6.2685130000    -0.6937380000
   16      H      -3.1995590000    -5.6581870000    -2.2127200000
   17      C       3.4907430000    -4.5469990000     0.9970160000
   18      H       4.4166300000    -5.1075640000     1.2266910000
   19      H       3.0739340000    -4.1314730000     1.9395260000
   20      H       3.7467940000    -3.7120850000     0.3092140000
   21      C      -1.0582470000    -2.3143260000    -0.1861330000
   22      S       1.5275990000    -2.2954870000     0.2560100000
   23      C       0.0000000000    -1.4351800000     0.0000000000
   24      H      -2.0922850000    -1.9932110000    -0.3638960000
   25      H      -0.2504350000    -9.6159850000    -0.0903280000
   26      C       0.0000000000     0.0000000000     0.0000000000
   27      S       0.2349460000     0.8682030000     1.5107320000
   28      C       0.6416300000     2.3901250000     0.7276290000
   29      C       0.2350360000     0.8772840000    -1.0646650000
   30      C       0.5930190000     2.2191430000    -0.6782870000
   31      C       0.2194520000     0.8127320000    -2.4861500000
   32      C       0.5466890000     2.0345010000    -3.1069160000
   33      S       0.8663450000     3.2403570000    -1.9657350000
   34      C       0.6170670000     2.2790950000    -4.5599720000
   35      O       0.3783420000     1.3766310000    -5.3502770000
   36      O       0.9523080000     3.5177250000    -5.0043750000
   37      F      -0.0651230000    -0.2644430000    -3.2462900000
   38      C       1.0549500000     3.8615770000    -6.3349760000
   39      H       1.3415160000     4.9287320000    -6.3702680000
   40      H       0.0935730000     3.7160850000    -6.8756090000
   41      H       1.8223030000     3.2522320000    -6.8618780000
   42      H       0.8798120000     3.2787800000     1.3215100000
 ----------------------------------------------------------------

   10   -2754.2914408783      8.62e-07  Convergence criterion met
 Total energy in the final basis set =    -2754.2914408783
        RIMP2         total energy =     -2759.3448384700 a.u.

                    Orbital Energies (a.u.)
 --------------------------------------------------------------

 Alpha MOs
 -- Occupied --
-92.0158 -91.9947 -91.9899 -91.9865 -26.3337 -20.6121 -20.5925 -20.5916
-20.5503 -11.4105 -11.3769 -11.3192 -11.3186 -11.3073 -11.2979 -11.2961
-11.2948 -11.2924 -11.2884 -11.2873 -11.2866 -11.2859 -11.2840 -11.2832
-11.2802 -11.2605 -11.2596 -11.2584 -11.2500  -9.0140  -8.9987  -8.9903
 -8.9864  -6.6947  -6.6941  -6.6936  -6.6800  -6.6793  -6.6780  -6.6712
 -6.6705  -6.6695  -6.6674  -6.6668  -6.6659  -1.6465  -1.4719  -1.4166
 -1.4144  -1.3672  -1.2333  -1.1959  -1.1682  -1.1418  -1.0838  -1.0521
 -1.0473  -1.0275  -1.0023  -0.9930  -0.9712  -0.9614  -0.9505  -0.9381
 -0.8959  -0.8692  -0.8503  -0.8042  -0.7910  -0.7881  -0.7731  -0.7691
 -0.7581  -0.7327  -0.7179  -0.7148  -0.7013  -0.6888  -0.6830  -0.6785
 -0.6711  -0.6603  -0.6592  -0.6527  -0.6308  -0.6201  -0.6172  -0.6065
 -0.6021  -0.5947  -0.5833  -0.5791  -0.5673  -0.5640  -0.5560  -0.5496
 -0.5365  -0.5261  -0.5239  -0.5160  -0.5145  -0.5079  -0.5015  -0.4933
 -0.4911  -0.4840  -0.4751  -0.4692  -0.4618  -0.4612  -0.4610  -0.4071
 -0.3992  -0.3874  -0.3573  -0.3490  -0.3141  -0.2898  -0.2592

          Ground-State Mulliken Net Atomic Charges

     Atom                 Charge (a.u.)
  ----------------------------------------
      1 C                    -0.187005
      2 C                    -0.254815
      3 S                    -0.021647
      4 C                    -0.012294
      5 H                     0.196463
      6 C                    -0.028005
      7 C                     0.246762
      8 C                     0.239329
      9 C                    -0.042222
     10 C                    -0.030409
     11 O                    -0.333126
     12 O                    -0.339770
     13 C                    -0.085591
     14 H                     0.122769
     15 H                     0.090788
     16 H                     0.094726
     17 C                    -0.086524
     18 H                     0.124926
     19 H                     0.094263
     20 H                     0.090107
     21 C                    -0.211114
     22 S                     0.001217
     23 C                    -0.069913
     24 H                     0.196455
     25 H                     0.206639
     26 C                    -0.000569
     27 S                     0.119224
     28 C                    -0.235274
     29 C                    -0.096205
     30 C                    -0.000917
     31 C                     0.379408
     32 C                    -0.155846
     33 S                     0.039957
     34 C                     0.459739
     35 O                    -0.449313
     36 O                    -0.297755
     37 F                    -0.210217
     38 C                    -0.054913
     39 H                     0.116550
     40 H                     0.084601
     41 H                     0.084567
     42 H                     0.214949
  ----------------------------------------
  Sum of atomic charges =     0.000000

                    Cartesian Multipole Moments
 -----------------------------------------------------------------
    Charge (ESU x 10^10)
                -0.0000
    Dipole Moment (Debye)
         X       1.0410      Y       1.5092      Z       2.9912
       Tot       3.5084
    Quadrupole Moments (Debye-Ang)
        XX    -179.2972     XY       4.2845     YY    -159.2637
        XZ       6.3556     YZ      -8.8116     ZZ    -202.4565

 Total job time:  300.53s(wall), 9580.84s(cpu)
        *  Thank you very much for using Q-Chem.  Have a nice day.  *
