 Q-Chem 5.4, Q-Chem, Inc., Pleasanton, CA (2021)
 Q-Chem 5.4.0 for Intel X86 EM64T Linux

User input:
--------------------------------------------------------------
$molecule
0 1
C	0.174379	-8.519741	0.208886
C	-0.650052	-7.635967	-0.472151
S	1.377058	-7.651740	1.193717
C	-0.353105	-6.261894	-0.225125
H	-1.458961	-7.954738	-1.141594
C	0.740583	-6.079985	0.692811
C	1.195546	-4.798382	1.039773
C	-1.023267	-5.153542	-0.817634
C	-0.565262	-3.869626	-0.473754
C	0.527745	-3.688927	0.447350
O	-2.054917	-5.481075	-1.644483
O	2.232592	-4.479871	1.869424
C	2.565470	-5.356026	2.939466
H	3.248608	-4.790496	3.601405
H	3.094885	-6.268513	2.587892
H	1.664539	-5.658187	3.516052
C	-2.524564	-4.546999	-2.608813
H	-3.211568	-5.107564	-3.270661
H	-1.692342	-4.131473	-3.216646
H	-3.090211	-3.712085	-2.141184
C	0.823402	-2.314326	0.690319
S	-1.194935	-2.295487	-0.985511
C	-0.000000	-1.435180	-0.000000
H	1.630024	-1.993211	1.361286
H	0.171719	-9.615985	0.203444
C	0.000000	0.000000	0.000000
S	0.451648	0.777811	1.510732
C	1.238377	2.142617	0.727629
C	0.454085	0.786559	-1.064665
C	1.147169	1.990043	-0.678287
C	0.422325	0.728240	-2.486150
C	1.054629	1.823683	-3.106916
S	1.675491	2.905718	-1.965735
C	1.185914	2.041729	-4.559972
O	0.721749	1.231802	-5.350277
O	1.830313	3.151386	-5.004375
F	-0.131347	-0.238577	-3.246290
C	2.018453	3.456956	-6.334976
H	2.571455	4.413580	-6.370268
H	1.052178	3.565244	-6.875609
H	2.601950	2.669768	-6.861878
H	1.698444	2.939346	1.321510
$end

$rem
JOBTYPE		SP
EXCHANGE	HF
CORRELATION	pRIMP2
BASIS		cc-pvtz
METHOD		rimp2
AUX_BASIS	rimp2-cc-pvtz
SOLVENT_METHOD	PCM
PURECART	11111
SYMMETRY	false
MEM_TOTAL	110000
SCF_CONVERGENCE = 6
THRESH=10
GUI = 2
$end

$solvent
dielectric 4.90
$end
--------------------------------------------------------------

             Standard Nuclear Orientation (Angstroms)
    I     Atom           X                Y                Z
 ----------------------------------------------------------------
    1      C       0.1743790000    -8.5197410000     0.2088860000
    2      C      -0.6500520000    -7.6359670000    -0.4721510000
    3      S       1.3770580000    -7.6517400000     1.1937170000
    4      C      -0.3531050000    -6.2618940000    -0.2251250000
    5      H      -1.4589610000    -7.9547380000    -1.1415940000
    6      C       0.7405830000    -6.0799850000     0.6928110000
    7      C       1.1955460000    -4.7983820000     1.0397730000
    8      C      -1.0232670000    -5.1535420000    -0.8176340000
    9      C      -0.5652620000    -3.8696260000    -0.4737540000
   10      C       0.5277450000    -3.6889270000     0.4473500000
   11      O      -2.0549170000    -5.4810750000    -1.6444830000
   12      O       2.2325920000    -4.4798710000     1.8694240000
   13      C       2.5654700000    -5.3560260000     2.9394660000
   14      H       3.2486080000    -4.7904960000     3.6014050000
   15      H       3.0948850000    -6.2685130000     2.5878920000
   16      H       1.6645390000    -5.6581870000     3.5160520000
   17      C      -2.5245640000    -4.5469990000    -2.6088130000
   18      H      -3.2115680000    -5.1075640000    -3.2706610000
   19      H      -1.6923420000    -4.1314730000    -3.2166460000
   20      H      -3.0902110000    -3.7120850000    -2.1411840000
   21      C       0.8234020000    -2.3143260000     0.6903190000
   22      S      -1.1949350000    -2.2954870000    -0.9855110000
   23      C       0.0000000000    -1.4351800000     0.0000000000
   24      H       1.6300240000    -1.9932110000     1.3612860000
   25      H       0.1717190000    -9.6159850000     0.2034440000
   26      C       0.0000000000     0.0000000000     0.0000000000
   27      S       0.4516480000     0.7778110000     1.5107320000
   28      C       1.2383770000     2.1426170000     0.7276290000
   29      C       0.4540850000     0.7865590000    -1.0646650000
   30      C       1.1471690000     1.9900430000    -0.6782870000
   31      C       0.4223250000     0.7282400000    -2.4861500000
   32      C       1.0546290000     1.8236830000    -3.1069160000
   33      S       1.6754910000     2.9057180000    -1.9657350000
   34      C       1.1859140000     2.0417290000    -4.5599720000
   35      O       0.7217490000     1.2318020000    -5.3502770000
   36      O       1.8303130000     3.1513860000    -5.0043750000
   37      F      -0.1313470000    -0.2385770000    -3.2462900000
   38      C       2.0184530000     3.4569560000    -6.3349760000
   39      H       2.5714550000     4.4135800000    -6.3702680000
   40      H       1.0521780000     3.5652440000    -6.8756090000
   41      H       2.6019500000     2.6697680000    -6.8618780000
   42      H       1.6984440000     2.9393460000     1.3215100000
 ----------------------------------------------------------------

   10   -2754.2811107555      8.98e-07  Convergence criterion met
 Total energy in the final basis set =    -2754.2811107555
        RIMP2         total energy =     -2759.3404549050 a.u.

                    Orbital Energies (a.u.)
 --------------------------------------------------------------

 Alpha MOs
 -- Occupied --
-92.0169 -91.9972 -91.9859 -91.9855 -26.3337 -20.6128 -20.5912 -20.5908
-20.5514 -11.4115 -11.3769 -11.3179 -11.3165 -11.3032 -11.3009 -11.3002
-11.2976 -11.2958 -11.2888 -11.2860 -11.2859 -11.2856 -11.2841 -11.2830
-11.2787 -11.2599 -11.2575 -11.2545 -11.2492  -9.0151  -9.0011  -8.9865
 -8.9855  -6.6958  -6.6951  -6.6947  -6.6823  -6.6817  -6.6803  -6.6674
 -6.6667  -6.6665  -6.6658  -6.6658  -6.6650  -1.6471  -1.4726  -1.4153
 -1.4135  -1.3681  -1.2356  -1.1948  -1.1683  -1.1426  -1.0836  -1.0509
 -1.0485  -1.0292  -1.0008  -0.9927  -0.9725  -0.9599  -0.9494  -0.9386
 -0.8944  -0.8708  -0.8486  -0.8074  -0.7914  -0.7870  -0.7751  -0.7657
 -0.7567  -0.7314  -0.7184  -0.7154  -0.7001  -0.6893  -0.6822  -0.6791
 -0.6727  -0.6608  -0.6579  -0.6519  -0.6291  -0.6192  -0.6157  -0.6074
 -0.6022  -0.5976  -0.5875  -0.5724  -0.5694  -0.5666  -0.5546  -0.5525
 -0.5282  -0.5278  -0.5220  -0.5161  -0.5138  -0.5082  -0.5018  -0.4933
 -0.4884  -0.4857  -0.4757  -0.4651  -0.4621  -0.4620  -0.4585  -0.4160
 -0.3960  -0.3852  -0.3575  -0.3487  -0.3194  -0.2875  -0.2528

          Ground-State Mulliken Net Atomic Charges

     Atom                 Charge (a.u.)
  ----------------------------------------
      1 C                    -0.190289
      2 C                    -0.253946
      3 S                    -0.024364
      4 C                    -0.016171
      5 H                     0.196330
      6 C                    -0.029238
      7 C                     0.240323
      8 C                     0.243997
      9 C                    -0.046064
     10 C                    -0.020715
     11 O                    -0.333863
     12 O                    -0.340641
     13 C                    -0.085569
     14 H                     0.122056
     15 H                     0.091007
     16 H                     0.093712
     17 C                    -0.086958
     18 H                     0.124389
     19 H                     0.095968
     20 H                     0.089398
     21 C                    -0.246648
     22 S                    -0.005441
     23 C                    -0.018977
     24 H                     0.199774
     25 H                     0.206085
     26 C                    -0.042459
     27 S                     0.108858
     28 C                    -0.212665
     29 C                    -0.066215
     30 C                    -0.014353
     31 C                     0.362496
     32 C                    -0.139101
     33 S                     0.047839
     34 C                     0.457361
     35 O                    -0.447762
     36 O                    -0.297756
     37 F                    -0.208040
     38 C                    -0.054883
     39 H                     0.116775
     40 H                     0.084667
     41 H                     0.084824
     42 H                     0.216258
  ----------------------------------------
  Sum of atomic charges =     0.000000

                    Cartesian Multipole Moments
 -----------------------------------------------------------------
    Charge (ESU x 10^10)
                -0.0000
    Dipole Moment (Debye)
         X       1.7480      Y       2.0500      Z       3.1178
       Tot       4.1205
    Quadrupole Moments (Debye-Ang)
        XX    -188.7757     XY       8.2953     YY    -165.1378
        XZ       6.3803     YZ     -10.3992     ZZ    -189.4597

 Total job time:  336.74s(wall), 10163.02s(cpu)
        *  Thank you very much for using Q-Chem.  Have a nice day.  *
