 Q-Chem 5.4, Q-Chem, Inc., Pleasanton, CA (2021)
 Q-Chem 5.4.0 for Intel X86 EM64T Linux

User input:
--------------------------------------------------------------
$molecule
0 1
C	0.255929	-8.519741	-0.092419
C	-0.666007	-7.635967	0.449364
S	1.592708	-7.651740	-0.885736
C	-0.332317	-6.261894	0.254813
H	-1.571741	-7.954738	0.980526
C	0.904324	-6.079985	-0.458965
C	1.385968	-4.798382	-0.767823
C	-1.118303	-5.153542	0.681909
C	-0.638514	-3.869626	0.369139
C	0.600871	-3.688927	-0.342916
O	-2.248132	-5.481075	1.368544
O	2.520275	-4.479871	-1.458570
C	3.639637	-5.356026	-1.405396
H	4.495304	-4.790496	-1.820940
H	3.490336	-6.268513	-2.023129
H	3.873314	-5.658187	-0.361595
C	-3.314934	-4.546999	1.480048
H	-4.171837	-5.107564	1.899255
H	-3.601473	-4.131473	0.490123
H	-3.068969	-3.712085	2.171521
C	0.930308	-2.314326	-0.537642
S	-1.334769	-2.295487	0.785807
C	-0.000000	-1.435180	-0.000000
H	1.836691	-1.993211	-1.066134
H	0.249906	-9.615985	-0.091781
C	0.000000	0.000000	0.000000
S	0.158383	0.885376	1.510732
C	0.430876	2.436951	0.727629
C	0.157682	0.894430	-1.064665
C	0.397351	2.262384	-0.678287
C	0.147783	0.828765	-2.486150
C	0.367291	2.074406	-3.106916
S	0.580633	3.303533	-1.965735
C	0.416083	2.324204	-4.559972
O	0.256921	1.404367	-5.350277
O	0.642094	3.587338	-5.004375
F	-0.041828	-0.269113	-3.246290
C	0.714377	3.938827	-6.334976
H	0.906844	5.026898	-6.370268
H	-0.230661	3.710099	-6.875609
H	1.531918	3.398681	-6.861878
H	0.590699	3.342984	1.321510
$end

$rem
JOBTYPE		SP
EXCHANGE	HF
CORRELATION	pRIMP2
BASIS		cc-pvtz
METHOD		rimp2
AUX_BASIS	rimp2-cc-pvtz
SOLVENT_METHOD	PCM
PURECART	11111
SYMMETRY	false
MEM_TOTAL	110000
SCF_CONVERGENCE = 6
THRESH=10
GUI = 2
$end

$solvent
dielectric 4.90
$end
--------------------------------------------------------------

             Standard Nuclear Orientation (Angstroms)
    I     Atom           X                Y                Z
 ----------------------------------------------------------------
    1      C       0.2559290000    -8.5197410000    -0.0924190000
    2      C      -0.6660070000    -7.6359670000     0.4493640000
    3      S       1.5927080000    -7.6517400000    -0.8857360000
    4      C      -0.3323170000    -6.2618940000     0.2548130000
    5      H      -1.5717410000    -7.9547380000     0.9805260000
    6      C       0.9043240000    -6.0799850000    -0.4589650000
    7      C       1.3859680000    -4.7983820000    -0.7678230000
    8      C      -1.1183030000    -5.1535420000     0.6819090000
    9      C      -0.6385140000    -3.8696260000     0.3691390000
   10      C       0.6008710000    -3.6889270000    -0.3429160000
   11      O      -2.2481320000    -5.4810750000     1.3685440000
   12      O       2.5202750000    -4.4798710000    -1.4585700000
   13      C       3.6396370000    -5.3560260000    -1.4053960000
   14      H       4.4953040000    -4.7904960000    -1.8209400000
   15      H       3.4903360000    -6.2685130000    -2.0231290000
   16      H       3.8733140000    -5.6581870000    -0.3615950000
   17      C      -3.3149340000    -4.5469990000     1.4800480000
   18      H      -4.1718370000    -5.1075640000     1.8992550000
   19      H      -3.6014730000    -4.1314730000     0.4901230000
   20      H      -3.0689690000    -3.7120850000     2.1715210000
   21      C       0.9303080000    -2.3143260000    -0.5376420000
   22      S      -1.3347690000    -2.2954870000     0.7858070000
   23      C       0.0000000000    -1.4351800000     0.0000000000
   24      H       1.8366910000    -1.9932110000    -1.0661340000
   25      H       0.2499060000    -9.6159850000    -0.0917810000
   26      C       0.0000000000     0.0000000000     0.0000000000
   27      S       0.1583830000     0.8853760000     1.5107320000
   28      C       0.4308760000     2.4369510000     0.7276290000
   29      C       0.1576820000     0.8944300000    -1.0646650000
   30      C       0.3973510000     2.2623840000    -0.6782870000
   31      C       0.1477830000     0.8287650000    -2.4861500000
   32      C       0.3672910000     2.0744060000    -3.1069160000
   33      S       0.5806330000     3.3035330000    -1.9657350000
   34      C       0.4160830000     2.3242040000    -4.5599720000
   35      O       0.2569210000     1.4043670000    -5.3502770000
   36      O       0.6420940000     3.5873380000    -5.0043750000
   37      F      -0.0418280000    -0.2691130000    -3.2462900000
   38      C       0.7143770000     3.9388270000    -6.3349760000
   39      H       0.9068440000     5.0268980000    -6.3702680000
   40      H      -0.2306610000     3.7100990000    -6.8756090000
   41      H       1.5319180000     3.3986810000    -6.8618780000
   42      H       0.5906990000     3.3429840000     1.3215100000
 ----------------------------------------------------------------

   10   -2754.2952861594      8.29e-07  Convergence criterion met
 Total energy in the final basis set =    -2754.2952861594
        RIMP2         total energy =     -2759.3482141181 a.u.

                    Orbital Energies (a.u.)
 --------------------------------------------------------------

 Alpha MOs
 -- Occupied --
-92.0159 -91.9944 -91.9904 -91.9867 -26.3337 -20.6118 -20.5927 -20.5918
-20.5497 -11.4100 -11.3773 -11.3196 -11.3189 -11.3100 -11.2969 -11.2963
-11.2944 -11.2940 -11.2883 -11.2873 -11.2870 -11.2861 -11.2844 -11.2826
-11.2804 -11.2616 -11.2598 -11.2595 -11.2502  -9.0141  -8.9985  -8.9908
 -8.9866  -6.6948  -6.6943  -6.6938  -6.6797  -6.6791  -6.6777  -6.6717
 -6.6710  -6.6701  -6.6676  -6.6670  -6.6661  -1.6466  -1.4716  -1.4168
 -1.4145  -1.3668  -1.2332  -1.1965  -1.1687  -1.1419  -1.0843  -1.0525
 -1.0474  -1.0275  -1.0028  -0.9935  -0.9713  -0.9615  -0.9507  -0.9385
 -0.8963  -0.8690  -0.8508  -0.8038  -0.7923  -0.7881  -0.7730  -0.7699
 -0.7582  -0.7330  -0.7182  -0.7148  -0.7018  -0.6887  -0.6834  -0.6783
 -0.6709  -0.6609  -0.6592  -0.6528  -0.6304  -0.6203  -0.6170  -0.6062
 -0.6020  -0.5942  -0.5837  -0.5769  -0.5711  -0.5648  -0.5531  -0.5512
 -0.5357  -0.5262  -0.5251  -0.5165  -0.5145  -0.5079  -0.5021  -0.4962
 -0.4898  -0.4840  -0.4760  -0.4690  -0.4616  -0.4611  -0.4602  -0.4121
 -0.3981  -0.3875  -0.3588  -0.3488  -0.3191  -0.2871  -0.2562

          Ground-State Mulliken Net Atomic Charges

     Atom                 Charge (a.u.)
  ----------------------------------------
      1 C                    -0.187039
      2 C                    -0.254145
      3 S                    -0.020786
      4 C                    -0.014008
      5 H                     0.196475
      6 C                    -0.028548
      7 C                     0.244408
      8 C                     0.241025
      9 C                    -0.049496
     10 C                    -0.028095
     11 O                    -0.333315
     12 O                    -0.339166
     13 C                    -0.085684
     14 H                     0.122970
     15 H                     0.091256
     16 H                     0.093831
     17 C                    -0.086713
     18 H                     0.125043
     19 H                     0.095410
     20 H                     0.089278
     21 C                    -0.205999
     22 S                    -0.004900
     23 C                    -0.019293
     24 H                     0.198721
     25 H                     0.206696
     26 C                    -0.048114
     27 S                     0.116185
     28 C                    -0.239004
     29 C                    -0.100933
     30 C                    -0.007587
     31 C                     0.401256
     32 C                    -0.154669
     33 S                     0.037138
     34 C                     0.461277
     35 O                    -0.450325
     36 O                    -0.297921
     37 F                    -0.211196
     38 C                    -0.054990
     39 H                     0.116497
     40 H                     0.084616
     41 H                     0.084440
     42 H                     0.215405
  ----------------------------------------
  Sum of atomic charges =     0.000000

                    Cartesian Multipole Moments
 -----------------------------------------------------------------
    Charge (ESU x 10^10)
                 0.0000
    Dipole Moment (Debye)
         X       0.7443      Y       1.3998      Z       3.4872
       Tot       3.8306
    Quadrupole Moments (Debye-Ang)
        XX    -177.9691     XY       1.5291     YY    -158.3116
        XZ      -8.9384     YZ     -11.4541     ZZ    -204.6685

 Total job time:  311.24s(wall), 9213.63s(cpu)
        *  Thank you very much for using Q-Chem.  Have a nice day.  *
