 Q-Chem 5.4, Q-Chem, Inc., Pleasanton, CA (2021)
 Q-Chem 5.4.0 for Intel X86 EM64T Linux

User input:
--------------------------------------------------------------
$molecule
0 1
C	-0.093711	-8.519741	0.255459
C	0.083869	-7.635967	-0.799036
S	-0.345260	-7.651740	1.789425
C	0.018411	-6.261894	-0.418360
H	0.259169	-7.954738	-1.834294
C	-0.229701	-6.079985	0.987769
C	-0.302697	-4.798382	1.555260
C	0.196459	-5.153542	-1.294992
C	0.127651	-3.869626	-0.726408
C	-0.123544	-3.688927	0.680716
O	0.396706	-5.481075	-2.601852
O	-0.502673	-4.479871	2.868193
C	-1.262918	-5.356026	3.691495
H	-1.494604	-4.790496	4.614080
H	-0.693738	-6.268513	3.974195
H	-2.212720	-5.658187	3.199559
C	0.997016	-4.546999	-3.490743
H	1.226691	-5.107564	-4.416630
H	1.939526	-4.131473	-3.073934
H	0.309214	-3.712085	-3.746794
C	-0.186133	-2.314326	1.058247
S	0.256010	-2.295487	-1.527599
C	0.000000	-1.435180	0.000000
H	-0.363896	-1.993211	2.092285
H	-0.090328	-9.615985	0.250435
C	0.000000	0.000000	0.000000
S	0.579852	0.687566	1.510732
C	1.591625	1.895024	0.727629
C	0.583771	0.695758	-1.064665
C	1.475308	1.760606	-0.678287
C	0.542366	0.643841	-2.486150
C	1.355286	1.612843	-3.106916
S	2.154609	2.570627	-1.965735
C	1.522440	1.804778	-4.559972
O	0.924684	1.087757	-5.350277
O	2.349739	2.785679	-5.004375
F	-0.170780	-0.212144	-3.246290
C	2.588082	3.053936	-6.334976
H	3.298799	3.899999	-6.370268
H	1.655291	3.328371	-6.875609
H	3.026021	2.177385	-6.861878
H	2.183053	2.599759	1.321510
$end

$rem
JOBTYPE		SP
EXCHANGE	HF
CORRELATION	pRIMP2
BASIS		cc-pvtz
METHOD		rimp2
AUX_BASIS	rimp2-cc-pvtz
SOLVENT_METHOD	PCM
PURECART	11111
SYMMETRY	false
MEM_TOTAL	110000
SCF_CONVERGENCE = 6
THRESH=10
GUI = 2
$end

$solvent
dielectric 4.90
$end
--------------------------------------------------------------

             Standard Nuclear Orientation (Angstroms)
    I     Atom           X                Y                Z
 ----------------------------------------------------------------
    1      C      -0.0937110000    -8.5197410000     0.2554590000
    2      C       0.0838690000    -7.6359670000    -0.7990360000
    3      S      -0.3452600000    -7.6517400000     1.7894250000
    4      C       0.0184110000    -6.2618940000    -0.4183600000
    5      H       0.2591690000    -7.9547380000    -1.8342940000
    6      C      -0.2297010000    -6.0799850000     0.9877690000
    7      C      -0.3026970000    -4.7983820000     1.5552600000
    8      C       0.1964590000    -5.1535420000    -1.2949920000
    9      C       0.1276510000    -3.8696260000    -0.7264080000
   10      C      -0.1235440000    -3.6889270000     0.6807160000
   11      O       0.3967060000    -5.4810750000    -2.6018520000
   12      O      -0.5026730000    -4.4798710000     2.8681930000
   13      C      -1.2629180000    -5.3560260000     3.6914950000
   14      H      -1.4946040000    -4.7904960000     4.6140800000
   15      H      -0.6937380000    -6.2685130000     3.9741950000
   16      H      -2.2127200000    -5.6581870000     3.1995590000
   17      C       0.9970160000    -4.5469990000    -3.4907430000
   18      H       1.2266910000    -5.1075640000    -4.4166300000
   19      H       1.9395260000    -4.1314730000    -3.0739340000
   20      H       0.3092140000    -3.7120850000    -3.7467940000
   21      C      -0.1861330000    -2.3143260000     1.0582470000
   22      S       0.2560100000    -2.2954870000    -1.5275990000
   23      C       0.0000000000    -1.4351800000     0.0000000000
   24      H      -0.3638960000    -1.9932110000     2.0922850000
   25      H      -0.0903280000    -9.6159850000     0.2504350000
   26      C       0.0000000000     0.0000000000     0.0000000000
   27      S       0.5798520000     0.6875660000     1.5107320000
   28      C       1.5916250000     1.8950240000     0.7276290000
   29      C       0.5837710000     0.6957580000    -1.0646650000
   30      C       1.4753080000     1.7606060000    -0.6782870000
   31      C       0.5423660000     0.6438410000    -2.4861500000
   32      C       1.3552860000     1.6128430000    -3.1069160000
   33      S       2.1546090000     2.5706270000    -1.9657350000
   34      C       1.5224400000     1.8047780000    -4.5599720000
   35      O       0.9246840000     1.0877570000    -5.3502770000
   36      O       2.3497390000     2.7856790000    -5.0043750000
   37      F      -0.1707800000    -0.2121440000    -3.2462900000
   38      C       2.5880820000     3.0539360000    -6.3349760000
   39      H       3.2987990000     3.8999990000    -6.3702680000
   40      H       1.6552910000     3.3283710000    -6.8756090000
   41      H       3.0260210000     2.1773850000    -6.8618780000
   42      H       2.1830530000     2.5997590000     1.3215100000
 ----------------------------------------------------------------

   10   -2754.2630432881      9.47e-07  Convergence criterion met
 Total energy in the final basis set =    -2754.2630432881
        RIMP2         total energy =     -2759.3298718520 a.u.

                    Orbital Energies (a.u.)
 --------------------------------------------------------------

 Alpha MOs
 -- Occupied --
-92.0153 -92.0015 -91.9840 -91.9833 -26.3360 -20.6147 -20.5903 -20.5888
-20.5545 -11.4143 -11.3786 -11.3170 -11.3126 -11.3100 -11.3064 -11.3001
-11.2986 -11.2963 -11.2900 -11.2899 -11.2850 -11.2848 -11.2817 -11.2803
-11.2763 -11.2588 -11.2544 -11.2481 -11.2462  -9.0142  -9.0053  -8.9845
 -8.9840  -6.6949  -6.6942  -6.6938  -6.6865  -6.6859  -6.6845  -6.6653
 -6.6650  -6.6647  -6.6643  -6.6636  -6.6635  -1.6514  -1.4748  -1.4143
 -1.4116  -1.3706  -1.2399  -1.1933  -1.1687  -1.1437  -1.0842  -1.0514
 -1.0481  -1.0321  -0.9998  -0.9924  -0.9749  -0.9583  -0.9484  -0.9389
 -0.8935  -0.8738  -0.8476  -0.8099  -0.7960  -0.7865  -0.7758  -0.7627
 -0.7558  -0.7305  -0.7227  -0.7182  -0.6987  -0.6908  -0.6816  -0.6803
 -0.6764  -0.6625  -0.6569  -0.6507  -0.6260  -0.6175  -0.6147  -0.6097
 -0.6054  -0.6009  -0.5854  -0.5703  -0.5671  -0.5618  -0.5577  -0.5520
 -0.5324  -0.5256  -0.5228  -0.5180  -0.5132  -0.5072  -0.5031  -0.4943
 -0.4873  -0.4832  -0.4779  -0.4648  -0.4635  -0.4628  -0.4551  -0.4239
 -0.3910  -0.3854  -0.3610  -0.3493  -0.3233  -0.2859  -0.2433

          Ground-State Mulliken Net Atomic Charges

     Atom                 Charge (a.u.)
  ----------------------------------------
      1 C                    -0.195423
      2 C                    -0.253334
      3 S                    -0.026993
      4 C                    -0.021555
      5 H                     0.195816
      6 C                    -0.026250
      7 C                     0.232078
      8 C                     0.243516
      9 C                    -0.046354
     10 C                    -0.011035
     11 O                    -0.333473
     12 O                    -0.341526
     13 C                    -0.085443
     14 H                     0.121292
     15 H                     0.090432
     16 H                     0.093375
     17 C                    -0.089261
     18 H                     0.125254
     19 H                     0.093518
     20 H                     0.091925
     21 C                    -0.268113
     22 S                    -0.027846
     23 C                     0.001993
     24 H                     0.185281
     25 H                     0.205275
     26 C                    -0.018618
     27 S                     0.115563
     28 C                    -0.191633
     29 C                    -0.060248
     30 C                    -0.032633
     31 C                     0.329265
     32 C                    -0.117662
     33 S                     0.061103
     34 C                     0.457309
     35 O                    -0.443725
     36 O                    -0.297156
     37 F                    -0.207452
     38 C                    -0.054507
     39 H                     0.117331
     40 H                     0.085344
     41 H                     0.084977
     42 H                     0.219594
  ----------------------------------------
  Sum of atomic charges =     0.000000

                    Cartesian Multipole Moments
 -----------------------------------------------------------------
    Charge (ESU x 10^10)
                -0.0000
    Dipole Moment (Debye)
         X       2.8882      Y       2.9725      Z       2.3400
       Tot       4.7595
    Quadrupole Moments (Debye-Ang)
        XX    -190.1943     XY      10.5168     YY    -171.8355
        XZ     -16.6611     YZ      -7.7748     ZZ    -183.0457

 Total job time:  282.01s(wall), 9294.33s(cpu)
        *  Thank you very much for using Q-Chem.  Have a nice day.  *
