 Q-Chem 5.4, Q-Chem, Inc., Pleasanton, CA (2021)
 Q-Chem 5.4.0 for Intel X86 EM64T Linux

User input:
--------------------------------------------------------------
$molecule
0 1
C	0.255459	-8.519741	0.093711
C	-0.799036	-7.635967	-0.083869
S	1.789425	-7.651740	0.345260
C	-0.418360	-6.261894	-0.018411
H	-1.834294	-7.954738	-0.259169
C	0.987769	-6.079985	0.229701
C	1.555260	-4.798382	0.302697
C	-1.294992	-5.153542	-0.196459
C	-0.726408	-3.869626	-0.127651
C	0.680716	-3.688927	0.123544
O	-2.601852	-5.481075	-0.396706
O	2.868193	-4.479871	0.502673
C	3.691495	-5.356026	1.262918
H	4.614080	-4.790496	1.494604
H	3.974195	-6.268513	0.693738
H	3.199559	-5.658187	2.212720
C	-3.490743	-4.546999	-0.997016
H	-4.416630	-5.107564	-1.226691
H	-3.073934	-4.131473	-1.939526
H	-3.746794	-3.712085	-0.309214
C	1.058247	-2.314326	0.186133
S	-1.527599	-2.295487	-0.256010
C	0.000000	-1.435180	0.000000
H	2.092285	-1.993211	0.363896
H	0.250435	-9.615985	0.090328
C	0.000000	0.000000	0.000000
S	0.780044	0.447780	1.510732
C	2.143774	1.236372	0.727629
C	0.786529	0.454137	-1.064665
C	1.988499	1.149844	-0.678287
C	0.729864	0.419512	-2.486150
C	1.825177	1.052041	-3.106916
S	2.903877	1.678680	-1.965735
C	2.047896	1.175232	-4.559972
O	1.240953	0.705897	-5.350277
O	3.160791	1.814024	-5.004375
F	-0.233039	-0.140940	-3.246290
C	3.476510	1.984585	-6.334976
H	4.433735	2.536545	-6.370268
H	2.693835	2.561503	-6.875609
H	3.588239	1.011113	-6.861878
H	2.940569	1.696327	1.321510
$end

$rem
JOBTYPE		SP
EXCHANGE	HF
CORRELATION	pRIMP2
BASIS		cc-pvtz
METHOD		rimp2
AUX_BASIS	rimp2-cc-pvtz
SOLVENT_METHOD	PCM
PURECART	11111
SYMMETRY	false
MEM_TOTAL	110000
SCF_CONVERGENCE = 6
THRESH=10
GUI = 2
$end

$solvent
dielectric 4.90
$end
--------------------------------------------------------------

             Standard Nuclear Orientation (Angstroms)
    I     Atom           X                Y                Z
 ----------------------------------------------------------------
    1      C       0.2554590000    -8.5197410000     0.0937110000
    2      C      -0.7990360000    -7.6359670000    -0.0838690000
    3      S       1.7894250000    -7.6517400000     0.3452600000
    4      C      -0.4183600000    -6.2618940000    -0.0184110000
    5      H      -1.8342940000    -7.9547380000    -0.2591690000
    6      C       0.9877690000    -6.0799850000     0.2297010000
    7      C       1.5552600000    -4.7983820000     0.3026970000
    8      C      -1.2949920000    -5.1535420000    -0.1964590000
    9      C      -0.7264080000    -3.8696260000    -0.1276510000
   10      C       0.6807160000    -3.6889270000     0.1235440000
   11      O      -2.6018520000    -5.4810750000    -0.3967060000
   12      O       2.8681930000    -4.4798710000     0.5026730000
   13      C       3.6914950000    -5.3560260000     1.2629180000
   14      H       4.6140800000    -4.7904960000     1.4946040000
   15      H       3.9741950000    -6.2685130000     0.6937380000
   16      H       3.1995590000    -5.6581870000     2.2127200000
   17      C      -3.4907430000    -4.5469990000    -0.9970160000
   18      H      -4.4166300000    -5.1075640000    -1.2266910000
   19      H      -3.0739340000    -4.1314730000    -1.9395260000
   20      H      -3.7467940000    -3.7120850000    -0.3092140000
   21      C       1.0582470000    -2.3143260000     0.1861330000
   22      S      -1.5275990000    -2.2954870000    -0.2560100000
   23      C       0.0000000000    -1.4351800000     0.0000000000
   24      H       2.0922850000    -1.9932110000     0.3638960000
   25      H       0.2504350000    -9.6159850000     0.0903280000
   26      C       0.0000000000     0.0000000000     0.0000000000
   27      S       0.7800440000     0.4477800000     1.5107320000
   28      C       2.1437740000     1.2363720000     0.7276290000
   29      C       0.7865290000     0.4541370000    -1.0646650000
   30      C       1.9884990000     1.1498440000    -0.6782870000
   31      C       0.7298640000     0.4195120000    -2.4861500000
   32      C       1.8251770000     1.0520410000    -3.1069160000
   33      S       2.9038770000     1.6786800000    -1.9657350000
   34      C       2.0478960000     1.1752320000    -4.5599720000
   35      O       1.2409530000     0.7058970000    -5.3502770000
   36      O       3.1607910000     1.8140240000    -5.0043750000
   37      F      -0.2330390000    -0.1409400000    -3.2462900000
   38      C       3.4765100000     1.9845850000    -6.3349760000
   39      H       4.4337350000     2.5365450000    -6.3702680000
   40      H       2.6938350000     2.5615030000    -6.8756090000
   41      H       3.5882390000     1.0111130000    -6.8618780000
   42      H       2.9405690000     1.6963270000     1.3215100000
 ----------------------------------------------------------------

   11   -2754.2298605027      7.12e-07  Convergence criterion met
 Total energy in the final basis set =    -2754.2298605027
        RIMP2         total energy =     -2759.3015790420 a.u.

                    Orbital Energies (a.u.)
 --------------------------------------------------------------

 Alpha MOs
 -- Occupied --
-92.0159 -92.0062 -91.9831 -91.9793 -26.3338 -20.6160 -20.5896 -20.5882
-20.5573 -11.4165 -11.3753 -11.3261 -11.3154 -11.3126 -11.3114 -11.2996
-11.2967 -11.2916 -11.2904 -11.2848 -11.2844 -11.2805 -11.2780 -11.2755
-11.2693 -11.2566 -11.2530 -11.2475 -11.2430  -9.0148  -9.0096  -8.9831
 -8.9801  -6.6954  -6.6944  -6.6944  -6.6908  -6.6902  -6.6889  -6.6641
 -6.6635  -6.6626  -6.6610  -6.6602  -6.6594  -1.6469  -1.4763  -1.4135
 -1.4111  -1.3725  -1.2433  -1.1916  -1.1697  -1.1436  -1.0830  -1.0511
 -1.0473  -1.0328  -0.9972  -0.9912  -0.9754  -0.9573  -0.9477  -0.9386
 -0.8914  -0.8758  -0.8413  -0.8059  -0.7937  -0.7844  -0.7782  -0.7665
 -0.7527  -0.7298  -0.7176  -0.7155  -0.6992  -0.6923  -0.6818  -0.6792
 -0.6770  -0.6609  -0.6562  -0.6502  -0.6281  -0.6174  -0.6140  -0.6118
 -0.6075  -0.6010  -0.5865  -0.5720  -0.5669  -0.5632  -0.5527  -0.5488
 -0.5317  -0.5228  -0.5213  -0.5142  -0.5117  -0.5083  -0.5001  -0.4915
 -0.4905  -0.4875  -0.4680  -0.4666  -0.4644  -0.4600  -0.4536  -0.4050
 -0.3939  -0.3836  -0.3627  -0.3380  -0.3077  -0.3018  -0.2511

          Ground-State Mulliken Net Atomic Charges

     Atom                 Charge (a.u.)
  ----------------------------------------
      1 C                    -0.196203
      2 C                    -0.254190
      3 S                    -0.029568
      4 C                    -0.020323
      5 H                     0.195442
      6 C                    -0.025838
      7 C                     0.228403
      8 C                     0.243089
      9 C                    -0.046755
     10 C                    -0.018139
     11 O                    -0.333891
     12 O                    -0.342736
     13 C                    -0.085689
     14 H                     0.120637
     15 H                     0.090817
     16 H                     0.092838
     17 C                    -0.086283
     18 H                     0.123925
     19 H                     0.094830
     20 H                     0.089460
     21 C                    -0.269494
     22 S                    -0.023182
     23 C                     0.004421
     24 H                     0.194200
     25 H                     0.204825
     26 C                    -0.172306
     27 S                     0.144427
     28 C                    -0.152608
     29 C                    -0.023312
     30 C                    -0.029189
     31 C                     0.363667
     32 C                    -0.126853
     33 S                     0.073964
     34 C                     0.458094
     35 O                    -0.437374
     36 O                    -0.296427
     37 F                    -0.208690
     38 C                    -0.054726
     39 H                     0.117465
     40 H                     0.085804
     41 H                     0.085915
     42 H                     0.221553
  ----------------------------------------
  Sum of atomic charges =     0.000000

                    Cartesian Multipole Moments
 -----------------------------------------------------------------
    Charge (ESU x 10^10)
                -0.0000
    Dipole Moment (Debye)
         X       4.9096      Y       2.5950      Z       2.7944
       Tot       6.2166
    Quadrupole Moments (Debye-Ang)
        XX    -166.0472     XY      10.0177     YY    -180.0137
        XZ      -2.1268     YZ      -7.4668     ZZ    -197.9562

 Total job time:  315.47s(wall), 10114.28s(cpu)
        *  Thank you very much for using Q-Chem.  Have a nice day.  *
