 Q-Chem 5.4, Q-Chem, Inc., Pleasanton, CA (2021)
 Q-Chem 5.4.0 for Intel X86 EM64T Linux

User input:
--------------------------------------------------------------
$molecule
0 1
C	0.208002	-8.519741	0.175432
C	-0.722164	-7.635967	-0.352097
S	1.563424	-7.651740	0.936458
C	-0.386833	-6.261894	-0.160388
H	-1.635031	-7.954738	-0.870905
C	0.849637	-6.079985	0.553685
C	1.357938	-4.798382	0.816372
C	-1.149702	-5.153542	-0.627524
C	-0.638941	-3.869626	-0.368399
C	0.597409	-3.688927	0.348912
O	-2.309260	-5.481075	-1.262667
O	2.523296	-4.479871	1.453338
C	3.036927	-5.356026	2.449320
H	3.824632	-4.790496	2.982577
H	3.497250	-6.268513	2.011155
H	2.249807	-5.658187	3.173591
C	-2.939226	-4.546999	-2.130793
H	-3.730721	-5.107564	-2.663289
H	-2.225196	-4.131473	-2.873906
H	-3.415077	-3.712085	-1.572045
C	0.930765	-2.314326	0.536849
S	-1.347913	-2.295487	-0.763041
C	0.000000	-1.435180	0.000000
H	1.841645	-1.993211	1.057554
H	0.204438	-9.615985	0.170535
C	0.000000	0.000000	0.000000
S	0.309721	0.844422	1.510732
C	0.847502	2.325108	0.727629
C	0.310602	0.853460	-1.064665
C	0.784173	2.159014	-0.678287
C	0.289451	0.790512	-2.486150
C	0.721927	1.979112	-3.106916
S	1.145464	3.152519	-1.965735
C	0.813355	2.216642	-4.559972
O	0.496884	1.338418	-5.350277
O	1.255274	3.421340	-5.004375
F	-0.087923	-0.257761	-3.246290
C	1.387494	3.754937	-6.334976
H	1.765978	4.793056	-6.370268
H	0.417095	3.693789	-6.875609
H	2.098820	3.081033	-6.861878
H	1.162229	3.189623	1.321510
$end

$rem
JOBTYPE		SP
EXCHANGE	HF
CORRELATION	pRIMP2
BASIS		cc-pvtz
METHOD		rimp2
AUX_BASIS	rimp2-cc-pvtz
SOLVENT_METHOD	PCM
PURECART	11111
SYMMETRY	false
MEM_TOTAL	110000
SCF_CONVERGENCE = 6
THRESH=10
GUI = 2
$end

$solvent
dielectric 4.90
$end
--------------------------------------------------------------

             Standard Nuclear Orientation (Angstroms)
    I     Atom           X                Y                Z
 ----------------------------------------------------------------
    1      C       0.2080020000    -8.5197410000     0.1754320000
    2      C      -0.7221640000    -7.6359670000    -0.3520970000
    3      S       1.5634240000    -7.6517400000     0.9364580000
    4      C      -0.3868330000    -6.2618940000    -0.1603880000
    5      H      -1.6350310000    -7.9547380000    -0.8709050000
    6      C       0.8496370000    -6.0799850000     0.5536850000
    7      C       1.3579380000    -4.7983820000     0.8163720000
    8      C      -1.1497020000    -5.1535420000    -0.6275240000
    9      C      -0.6389410000    -3.8696260000    -0.3683990000
   10      C       0.5974090000    -3.6889270000     0.3489120000
   11      O      -2.3092600000    -5.4810750000    -1.2626670000
   12      O       2.5232960000    -4.4798710000     1.4533380000
   13      C       3.0369270000    -5.3560260000     2.4493200000
   14      H       3.8246320000    -4.7904960000     2.9825770000
   15      H       3.4972500000    -6.2685130000     2.0111550000
   16      H       2.2498070000    -5.6581870000     3.1735910000
   17      C      -2.9392260000    -4.5469990000    -2.1307930000
   18      H      -3.7307210000    -5.1075640000    -2.6632890000
   19      H      -2.2251960000    -4.1314730000    -2.8739060000
   20      H      -3.4150770000    -3.7120850000    -1.5720450000
   21      C       0.9307650000    -2.3143260000     0.5368490000
   22      S      -1.3479130000    -2.2954870000    -0.7630410000
   23      C       0.0000000000    -1.4351800000     0.0000000000
   24      H       1.8416450000    -1.9932110000     1.0575540000
   25      H       0.2044380000    -9.6159850000     0.1705350000
   26      C       0.0000000000     0.0000000000     0.0000000000
   27      S       0.3097210000     0.8444220000     1.5107320000
   28      C       0.8475020000     2.3251080000     0.7276290000
   29      C       0.3106020000     0.8534600000    -1.0646650000
   30      C       0.7841730000     2.1590140000    -0.6782870000
   31      C       0.2894510000     0.7905120000    -2.4861500000
   32      C       0.7219270000     1.9791120000    -3.1069160000
   33      S       1.1454640000     3.1525190000    -1.9657350000
   34      C       0.8133550000     2.2166420000    -4.5599720000
   35      O       0.4968840000     1.3384180000    -5.3502770000
   36      O       1.2552740000     3.4213400000    -5.0043750000
   37      F      -0.0879230000    -0.2577610000    -3.2462900000
   38      C       1.3874940000     3.7549370000    -6.3349760000
   39      H       1.7659780000     4.7930560000    -6.3702680000
   40      H       0.4170950000     3.6937890000    -6.8756090000
   41      H       2.0988200000     3.0810330000    -6.8618780000
   42      H       1.1622290000     3.1896230000     1.3215100000
 ----------------------------------------------------------------

   10   -2754.2895208914      8.78e-07  Convergence criterion met
 Total energy in the final basis set =    -2754.2895208914
        RIMP2         total energy =     -2759.3451299964 a.u.

                    Orbital Energies (a.u.)
 --------------------------------------------------------------

 Alpha MOs
 -- Occupied --
-92.0169 -91.9955 -91.9879 -91.9862 -26.3338 -20.6122 -20.5917 -20.5916
-20.5504 -11.4106 -11.3769 -11.3187 -11.3180 -11.3072 -11.2982 -11.2970
-11.2958 -11.2950 -11.2885 -11.2863 -11.2861 -11.2856 -11.2838 -11.2837
-11.2797 -11.2607 -11.2588 -11.2579 -11.2498  -9.0150  -8.9995  -8.9883
 -8.9861  -6.6957  -6.6951  -6.6947  -6.6807  -6.6800  -6.6787  -6.6692
 -6.6685  -6.6676  -6.6671  -6.6665  -6.6656  -1.6469  -1.4720  -1.4159
 -1.4143  -1.3673  -1.2340  -1.1956  -1.1683  -1.1420  -1.0839  -1.0517
 -1.0477  -1.0281  -1.0017  -0.9931  -0.9716  -0.9607  -0.9500  -0.9386
 -0.8952  -0.8696  -0.8499  -0.8067  -0.7905  -0.7877  -0.7748  -0.7665
 -0.7578  -0.7323  -0.7181  -0.7151  -0.7007  -0.6887  -0.6829  -0.6786
 -0.6716  -0.6607  -0.6584  -0.6524  -0.6301  -0.6198  -0.6164  -0.6066
 -0.6017  -0.5956  -0.5859  -0.5744  -0.5703  -0.5670  -0.5551  -0.5524
 -0.5302  -0.5270  -0.5230  -0.5164  -0.5143  -0.5078  -0.5017  -0.4932
 -0.4898  -0.4849  -0.4768  -0.4663  -0.4616  -0.4613  -0.4599  -0.4121
 -0.3979  -0.3863  -0.3580  -0.3484  -0.3178  -0.2881  -0.2556

          Ground-State Mulliken Net Atomic Charges

     Atom                 Charge (a.u.)
  ----------------------------------------
      1 C                    -0.188373
      2 C                    -0.254103
      3 S                    -0.022616
      4 C                    -0.014929
      5 H                     0.196486
      6 C                    -0.029133
      7 C                     0.242193
      8 C                     0.244113
      9 C                    -0.048636
     10 C                    -0.025859
     11 O                    -0.333725
     12 O                    -0.340272
     13 C                    -0.085587
     14 H                     0.122350
     15 H                     0.091222
     16 H                     0.093925
     17 C                    -0.086711
     18 H                     0.124449
     19 H                     0.096163
     20 H                     0.089343
     21 C                    -0.222655
     22 S                    -0.000065
     23 C                    -0.026963
     24 H                     0.200988
     25 H                     0.206423
     26 C                    -0.037210
     27 S                     0.114640
     28 C                    -0.229649
     29 C                    -0.083113
     30 C                    -0.007951
     31 C                     0.373809
     32 C                    -0.148776
     33 S                     0.042427
     34 C                     0.458494
     35 O                    -0.449264
     36 O                    -0.297833
     37 F                    -0.209619
     38 C                    -0.054856
     39 H                     0.116577
     40 H                     0.084565
     41 H                     0.084570
     42 H                     0.215162
  ----------------------------------------
  Sum of atomic charges =     0.000000

                    Cartesian Multipole Moments
 -----------------------------------------------------------------
    Charge (ESU x 10^10)
                -0.0000
    Dipole Moment (Debye)
         X       1.0699      Y       1.7007      Z       3.3460
       Tot       3.9029
    Quadrupole Moments (Debye-Ang)
        XX    -186.6168     XY       5.7091     YY    -161.2647
        XZ       8.8599     YZ     -11.4193     ZZ    -194.3712

 Total job time:  320.86s(wall), 10958.93s(cpu)
        *  Thank you very much for using Q-Chem.  Have a nice day.  *
