 Q-Chem 5.4, Q-Chem, Inc., Pleasanton, CA (2021)
 Q-Chem 5.4.0 for Intel X86 EM64T Linux

User input:
--------------------------------------------------------------
$molecule
0 1
C	0.694800	-8.491498	0.267851
C	0.609575	-7.611804	-0.801461
S	0.637720	-7.625175	1.822194
C	0.491451	-6.242817	-0.415201
H	0.630252	-7.929984	-1.851431
C	0.475427	-6.061615	1.012650
C	0.390283	-4.782565	1.584194
C	0.417881	-5.136668	-1.309433
C	0.336834	-3.854939	-0.737539
C	0.318062	-3.675191	0.691828
O	0.416812	-5.465546	-2.631211
O	0.393456	-4.462560	2.911907
C	-0.133608	-5.388174	3.854716
H	-0.250600	-4.830719	4.803517
H	0.553224	-6.244057	4.034285
H	-1.124185	-5.778154	3.535185
C	0.770575	-4.496951	-3.610841
H	0.884590	-5.049682	-4.562544
H	1.731122	-3.995801	-3.364029
H	-0.021261	-3.728125	-3.743566
C	0.202163	-2.305480	1.074491
S	0.186971	-2.287897	-1.548848
C	0.125084	-1.429719	0.000000
H	0.178654	-1.985194	2.123688
H	0.792793	-9.583356	0.262315
C	0.000000	0.000000	0.000000
S	0.309721	0.844422	1.510732
C	0.847502	2.325108	0.727629
C	0.310602	0.853460	-1.064665
C	0.784173	2.159014	-0.678287
C	0.289451	0.790512	-2.486150
C	0.721927	1.979112	-3.106916
S	1.145464	3.152519	-1.965735
C	0.813355	2.216642	-4.559972
O	0.496884	1.338418	-5.350277
O	1.255274	3.421340	-5.004375
F	-0.087923	-0.257761	-3.246290
C	1.387494	3.754937	-6.334976
H	1.765978	4.793056	-6.370268
H	0.417095	3.693789	-6.875609
H	2.098820	3.081033	-6.861878
H	1.162229	3.189623	1.321510
$end

$rem
JOBTYPE		SP
EXCHANGE	HF
CORRELATION	pRIMP2
BASIS		cc-pvtz
METHOD		rimp2
AUX_BASIS	rimp2-cc-pvtz
SOLVENT_METHOD	PCM
PURECART	11111
SYMMETRY	false
MEM_TOTAL	110000
SCF_CONVERGENCE = 6
THRESH=10
GUI = 2
$end

$solvent
dielectric 4.90
$end
--------------------------------------------------------------

             Standard Nuclear Orientation (Angstroms)
    I     Atom           X                Y                Z
 ----------------------------------------------------------------
    1      C       0.6948000000    -8.4914980000     0.2678510000
    2      C       0.6095750000    -7.6118040000    -0.8014610000
    3      S       0.6377200000    -7.6251750000     1.8221940000
    4      C       0.4914510000    -6.2428170000    -0.4152010000
    5      H       0.6302520000    -7.9299840000    -1.8514310000
    6      C       0.4754270000    -6.0616150000     1.0126500000
    7      C       0.3902830000    -4.7825650000     1.5841940000
    8      C       0.4178810000    -5.1366680000    -1.3094330000
    9      C       0.3368340000    -3.8549390000    -0.7375390000
   10      C       0.3180620000    -3.6751910000     0.6918280000
   11      O       0.4168120000    -5.4655460000    -2.6312110000
   12      O       0.3934560000    -4.4625600000     2.9119070000
   13      C      -0.1336080000    -5.3881740000     3.8547160000
   14      H      -0.2506000000    -4.8307190000     4.8035170000
   15      H       0.5532240000    -6.2440570000     4.0342850000
   16      H      -1.1241850000    -5.7781540000     3.5351850000
   17      C       0.7705750000    -4.4969510000    -3.6108410000
   18      H       0.8845900000    -5.0496820000    -4.5625440000
   19      H       1.7311220000    -3.9958010000    -3.3640290000
   20      H      -0.0212610000    -3.7281250000    -3.7435660000
   21      C       0.2021630000    -2.3054800000     1.0744910000
   22      S       0.1869710000    -2.2878970000    -1.5488480000
   23      C       0.1250840000    -1.4297190000     0.0000000000
   24      H       0.1786540000    -1.9851940000     2.1236880000
   25      H       0.7927930000    -9.5833560000     0.2623150000
   26      C       0.0000000000     0.0000000000     0.0000000000
   27      S       0.3097210000     0.8444220000     1.5107320000
   28      C       0.8475020000     2.3251080000     0.7276290000
   29      C       0.3106020000     0.8534600000    -1.0646650000
   30      C       0.7841730000     2.1590140000    -0.6782870000
   31      C       0.2894510000     0.7905120000    -2.4861500000
   32      C       0.7219270000     1.9791120000    -3.1069160000
   33      S       1.1454640000     3.1525190000    -1.9657350000
   34      C       0.8133550000     2.2166420000    -4.5599720000
   35      O       0.4968840000     1.3384180000    -5.3502770000
   36      O       1.2552740000     3.4213400000    -5.0043750000
   37      F      -0.0879230000    -0.2577610000    -3.2462900000
   38      C       1.3874940000     3.7549370000    -6.3349760000
   39      H       1.7659780000     4.7930560000    -6.3702680000
   40      H       0.4170950000     3.6937890000    -6.8756090000
   41      H       2.0988200000     3.0810330000    -6.8618780000
   42      H       1.1622290000     3.1896230000     1.3215100000
 ----------------------------------------------------------------

   10   -2754.2809192458      8.38e-07  Convergence criterion met
 Total energy in the final basis set =    -2754.2809192458
        RIMP2         total energy =     -2759.3416447818 a.u.

                    Orbital Energies (a.u.)
 --------------------------------------------------------------

 Alpha MOs
 -- Occupied --
-92.0146 -91.9973 -91.9856 -91.9841 -26.3365 -20.6130 -20.5908 -20.5908
-20.5516 -11.4118 -11.3790 -11.3179 -11.3162 -11.3088 -11.3006 -11.2995
-11.2981 -11.2971 -11.2891 -11.2859 -11.2854 -11.2852 -11.2831 -11.2825
-11.2786 -11.2605 -11.2574 -11.2546 -11.2492  -9.0133  -9.0012  -8.9855
 -8.9852  -6.6940  -6.6934  -6.6929  -6.6825  -6.6818  -6.6805  -6.6665
 -6.6660  -6.6658  -6.6653  -6.6650  -6.6642  -1.6524  -1.4729  -1.4150
 -1.4135  -1.3684  -1.2363  -1.1951  -1.1688  -1.1427  -1.0843  -1.0514
 -1.0488  -1.0300  -1.0012  -0.9934  -0.9734  -0.9598  -0.9493  -0.9384
 -0.8950  -0.8712  -0.8507  -0.8102  -0.7964  -0.7870  -0.7752  -0.7630
 -0.7573  -0.7317  -0.7221  -0.7192  -0.6998  -0.6895  -0.6833  -0.6795
 -0.6750  -0.6622  -0.6578  -0.6517  -0.6276  -0.6188  -0.6156  -0.6077
 -0.6032  -0.5978  -0.5877  -0.5695  -0.5688  -0.5644  -0.5586  -0.5526
 -0.5308  -0.5259  -0.5233  -0.5189  -0.5141  -0.5083  -0.5022  -0.4947
 -0.4858  -0.4835  -0.4794  -0.4637  -0.4623  -0.4620  -0.4561  -0.4251
 -0.3940  -0.3861  -0.3605  -0.3499  -0.3246  -0.2842  -0.2454

          Ground-State Mulliken Net Atomic Charges

     Atom                 Charge (a.u.)
  ----------------------------------------
      1 C                    -0.190492
      2 C                    -0.254230
      3 S                    -0.024605
      4 C                    -0.016134
      5 H                     0.196409
      6 C                    -0.027921
      7 C                     0.238509
      8 C                     0.243027
      9 C                    -0.041728
     10 C                    -0.021124
     11 O                    -0.333693
     12 O                    -0.340950
     13 C                    -0.085538
     14 H                     0.121979
     15 H                     0.090891
     16 H                     0.093905
     17 C                    -0.088701
     18 H                     0.125350
     19 H                     0.094095
     20 H                     0.091612
     21 C                    -0.247951
     22 S                    -0.026586
     23 C                    -0.011755
     24 H                     0.186736
     25 H                     0.206106
     26 C                     0.034034
     27 S                     0.099152
     28 C                    -0.218887
     29 C                    -0.086573
     30 C                    -0.031107
     31 C                     0.350892
     32 C                    -0.124804
     33 S                     0.047884
     34 C                     0.456878
     35 O                    -0.448476
     36 O                    -0.297607
     37 F                    -0.207973
     38 C                    -0.054723
     39 H                     0.116961
     40 H                     0.084797
     41 H                     0.084551
     42 H                     0.217790
  ----------------------------------------
  Sum of atomic charges =     0.000000

                    Cartesian Multipole Moments
 -----------------------------------------------------------------
    Charge (ESU x 10^10)
                 0.0000
    Dipole Moment (Debye)
         X       1.2219      Y       2.2609      Z       2.7185
       Tot       3.7409
    Quadrupole Moments (Debye-Ang)
        XX    -198.6917     XY       4.9481     YY    -163.1275
        XZ      -9.5006     YZ     -10.5438     ZZ    -181.5490

 Total job time:  312.69s(wall), 10412.74s(cpu)
        *  Thank you very much for using Q-Chem.  Have a nice day.  *
