 Q-Chem 5.4, Q-Chem, Inc., Pleasanton, CA (2021)
 Q-Chem 5.4.0 for Intel X86 EM64T Linux

User input:
--------------------------------------------------------------
$molecule
0 1
C	-0.255459	-8.519741	-0.093711
C	0.799036	-7.635967	0.083869
S	-1.789425	-7.651740	-0.345260
C	0.418360	-6.261894	0.018411
H	1.834294	-7.954738	0.259169
C	-0.987769	-6.079985	-0.229701
C	-1.555260	-4.798382	-0.302697
C	1.294992	-5.153542	0.196459
C	0.726408	-3.869626	0.127651
C	-0.680716	-3.688927	-0.123544
O	2.601852	-5.481075	0.396706
O	-2.868193	-4.479871	-0.502673
C	-3.691495	-5.356026	-1.262918
H	-4.614080	-4.790496	-1.494604
H	-3.974195	-6.268513	-0.693738
H	-3.199559	-5.658187	-2.212720
C	3.490743	-4.546999	0.997016
H	4.416630	-5.107564	1.226691
H	3.073934	-4.131473	1.939526
H	3.746794	-3.712085	0.309214
C	-1.058247	-2.314326	-0.186133
S	1.527599	-2.295487	0.256010
C	0.000000	-1.435180	0.000000
H	-2.092285	-1.993211	-0.363896
H	-0.250435	-9.615985	-0.090328
C	0.000000	0.000000	0.000000
S	0.780044	0.447780	1.510732
C	2.143774	1.236372	0.727629
C	0.786529	0.454137	-1.064665
C	1.988499	1.149844	-0.678287
C	0.729864	0.419512	-2.486150
C	1.825177	1.052041	-3.106916
S	2.903877	1.678680	-1.965735
C	2.047896	1.175232	-4.559972
O	1.240953	0.705897	-5.350277
O	3.160791	1.814024	-5.004375
F	-0.233039	-0.140940	-3.246290
C	3.476510	1.984585	-6.334976
H	4.433735	2.536545	-6.370268
H	2.693835	2.561503	-6.875609
H	3.588239	1.011113	-6.861878
H	2.940569	1.696327	1.321510
$end

$rem
JOBTYPE		SP
EXCHANGE	HF
CORRELATION	pRIMP2
BASIS		cc-pvtz
METHOD		rimp2
AUX_BASIS	rimp2-cc-pvtz
SOLVENT_METHOD	PCM
PURECART	11111
SYMMETRY	false
MEM_TOTAL	110000
SCF_CONVERGENCE = 6
THRESH=10
GUI = 2
$end

$solvent
dielectric 4.90
$end
--------------------------------------------------------------

             Standard Nuclear Orientation (Angstroms)
    I     Atom           X                Y                Z
 ----------------------------------------------------------------
    1      C      -0.2554590000    -8.5197410000    -0.0937110000
    2      C       0.7990360000    -7.6359670000     0.0838690000
    3      S      -1.7894250000    -7.6517400000    -0.3452600000
    4      C       0.4183600000    -6.2618940000     0.0184110000
    5      H       1.8342940000    -7.9547380000     0.2591690000
    6      C      -0.9877690000    -6.0799850000    -0.2297010000
    7      C      -1.5552600000    -4.7983820000    -0.3026970000
    8      C       1.2949920000    -5.1535420000     0.1964590000
    9      C       0.7264080000    -3.8696260000     0.1276510000
   10      C      -0.6807160000    -3.6889270000    -0.1235440000
   11      O       2.6018520000    -5.4810750000     0.3967060000
   12      O      -2.8681930000    -4.4798710000    -0.5026730000
   13      C      -3.6914950000    -5.3560260000    -1.2629180000
   14      H      -4.6140800000    -4.7904960000    -1.4946040000
   15      H      -3.9741950000    -6.2685130000    -0.6937380000
   16      H      -3.1995590000    -5.6581870000    -2.2127200000
   17      C       3.4907430000    -4.5469990000     0.9970160000
   18      H       4.4166300000    -5.1075640000     1.2266910000
   19      H       3.0739340000    -4.1314730000     1.9395260000
   20      H       3.7467940000    -3.7120850000     0.3092140000
   21      C      -1.0582470000    -2.3143260000    -0.1861330000
   22      S       1.5275990000    -2.2954870000     0.2560100000
   23      C       0.0000000000    -1.4351800000     0.0000000000
   24      H      -2.0922850000    -1.9932110000    -0.3638960000
   25      H      -0.2504350000    -9.6159850000    -0.0903280000
   26      C       0.0000000000     0.0000000000     0.0000000000
   27      S       0.7800440000     0.4477800000     1.5107320000
   28      C       2.1437740000     1.2363720000     0.7276290000
   29      C       0.7865290000     0.4541370000    -1.0646650000
   30      C       1.9884990000     1.1498440000    -0.6782870000
   31      C       0.7298640000     0.4195120000    -2.4861500000
   32      C       1.8251770000     1.0520410000    -3.1069160000
   33      S       2.9038770000     1.6786800000    -1.9657350000
   34      C       2.0478960000     1.1752320000    -4.5599720000
   35      O       1.2409530000     0.7058970000    -5.3502770000
   36      O       3.1607910000     1.8140240000    -5.0043750000
   37      F      -0.2330390000    -0.1409400000    -3.2462900000
   38      C       3.4765100000     1.9845850000    -6.3349760000
   39      H       4.4337350000     2.5365450000    -6.3702680000
   40      H       2.6938350000     2.5615030000    -6.8756090000
   41      H       3.5882390000     1.0111130000    -6.8618780000
   42      H       2.9405690000     1.6963270000     1.3215100000
 ----------------------------------------------------------------

   11   -2754.2283563689      6.11e-07  Convergence criterion met
 Total energy in the final basis set =    -2754.2283563689
        RIMP2         total energy =     -2759.3010060713 a.u.

                    Orbital Energies (a.u.)
 --------------------------------------------------------------

 Alpha MOs
 -- Occupied --
-92.0150 -92.0067 -91.9837 -91.9789 -26.3339 -20.6162 -20.5904 -20.5879
-20.5575 -11.4167 -11.3760 -11.3263 -11.3157 -11.3129 -11.3125 -11.3007
-11.2959 -11.2905 -11.2878 -11.2861 -11.2837 -11.2805 -11.2804 -11.2765
-11.2701 -11.2548 -11.2546 -11.2479 -11.2427  -9.0143  -9.0101  -8.9836
 -8.9804  -6.6948  -6.6939  -6.6938  -6.6913  -6.6907  -6.6894  -6.6646
 -6.6640  -6.6631  -6.6613  -6.6606  -6.6596  -1.6469  -1.4764  -1.4144
 -1.4107  -1.3726  -1.2445  -1.1921  -1.1706  -1.1439  -1.0829  -1.0515
 -1.0478  -1.0331  -0.9978  -0.9914  -0.9758  -0.9585  -0.9486  -0.9374
 -0.8927  -0.8762  -0.8427  -0.8036  -0.7948  -0.7850  -0.7778  -0.7663
 -0.7528  -0.7300  -0.7177  -0.7154  -0.6988  -0.6927  -0.6819  -0.6787
 -0.6773  -0.6626  -0.6570  -0.6501  -0.6289  -0.6173  -0.6157  -0.6121
 -0.6077  -0.5992  -0.5867  -0.5749  -0.5639  -0.5638  -0.5531  -0.5386
 -0.5358  -0.5282  -0.5210  -0.5141  -0.5125  -0.5087  -0.5014  -0.4910
 -0.4909  -0.4869  -0.4713  -0.4673  -0.4645  -0.4599  -0.4561  -0.4087
 -0.3920  -0.3830  -0.3530  -0.3510  -0.3042  -0.2994  -0.2551

          Ground-State Mulliken Net Atomic Charges

     Atom                 Charge (a.u.)
  ----------------------------------------
      1 C                    -0.194242
      2 C                    -0.254255
      3 S                    -0.026135
      4 C                    -0.020136
      5 H                     0.195289
      6 C                    -0.028105
      7 C                     0.240843
      8 C                     0.240962
      9 C                    -0.045344
     10 C                    -0.016052
     11 O                    -0.334028
     12 O                    -0.339988
     13 C                    -0.085455
     14 H                     0.121796
     15 H                     0.089908
     16 H                     0.093397
     17 C                    -0.086314
     18 H                     0.124614
     19 H                     0.093261
     20 H                     0.088789
     21 C                    -0.241155
     22 S                    -0.038451
     23 C                    -0.058348
     24 H                     0.192856
     25 H                     0.205213
     26 C                    -0.144827
     27 S                     0.143323
     28 C                    -0.148506
     29 C                    -0.030369
     30 C                    -0.027063
     31 C                     0.366748
     32 C                    -0.124934
     33 S                     0.075479
     34 C                     0.457994
     35 O                    -0.437118
     36 O                    -0.296457
     37 F                    -0.208526
     38 C                    -0.054736
     39 H                     0.117486
     40 H                     0.085890
     41 H                     0.085922
     42 H                     0.220775
  ----------------------------------------
  Sum of atomic charges =     0.000000

                    Cartesian Multipole Moments
 -----------------------------------------------------------------
    Charge (ESU x 10^10)
                -0.0000
    Dipole Moment (Debye)
         X       5.4447      Y       2.3584      Z       2.3911
       Tot       6.3972
    Quadrupole Moments (Debye-Ang)
        XX    -165.7072     XY       9.0541     YY    -177.6058
        XZ      -2.0908     YZ      -4.8833     ZZ    -197.6997

 Total job time:  308.41s(wall), 10110.63s(cpu)
        *  Thank you very much for using Q-Chem.  Have a nice day.  *
