 Q-Chem 5.4, Q-Chem, Inc., Pleasanton, CA (2021)
 Q-Chem 5.4.0 for Intel X86 EM64T Linux

User input:
--------------------------------------------------------------
$molecule
0 1
C	-0.268090	-8.519741	0.046574
C	0.733920	-7.635967	-0.326886
S	-1.722318	-7.651740	0.595708
C	0.371516	-6.261894	-0.193236
H	1.718130	-7.954738	-0.692700
C	-0.970283	-6.079985	0.294958
C	-1.498243	-4.798382	0.515487
C	1.219725	-5.153542	-0.477358
C	0.692914	-3.869626	-0.252655
C	-0.651289	-3.688927	0.233366
O	2.451623	-5.481075	-0.957369
O	-2.735264	-4.479871	0.998769
C	-3.828387	-5.356026	0.752029
H	-4.743213	-4.790496	1.012675
H	-3.788623	-6.268513	1.386303
H	-3.877260	-5.658187	-0.316492
C	3.521580	-4.546999	-0.881930
H	4.438260	-5.107564	-1.145969
H	3.631868	-4.131473	0.142712
H	3.399425	-3.712085	-1.605610
C	-1.009535	-2.314326	0.367928
S	1.450945	-2.295487	-0.542088
C	0.000000	-1.435180	0.000000
H	-1.993920	-1.993211	0.730999
H	-0.262047	-9.615985	0.046991
C	0.000000	0.000000	0.000000
S	0.234946	0.868203	1.510732
C	0.641630	2.390125	0.727629
C	0.235036	0.877284	-1.064665
C	0.593019	2.219143	-0.678287
C	0.219452	0.812732	-2.486150
C	0.546689	2.034501	-3.106916
S	0.866345	3.240357	-1.965735
C	0.617067	2.279095	-4.559972
O	0.378342	1.376631	-5.350277
O	0.952308	3.517725	-5.004375
F	-0.065123	-0.264443	-3.246290
C	1.054950	3.861577	-6.334976
H	1.341516	4.928732	-6.370268
H	0.093573	3.716085	-6.875609
H	1.822303	3.252232	-6.861878
H	0.879812	3.278780	1.321510
$end

$rem
JOBTYPE		SP
EXCHANGE	HF
CORRELATION	pRIMP2
BASIS		cc-pvtz
METHOD		rimp2
AUX_BASIS	rimp2-cc-pvtz
SOLVENT_METHOD	PCM
PURECART	11111
SYMMETRY	false
MEM_TOTAL	110000
SCF_CONVERGENCE = 6
THRESH=10
GUI = 2
$end

$solvent
dielectric 4.90
$end
--------------------------------------------------------------

             Standard Nuclear Orientation (Angstroms)
    I     Atom           X                Y                Z
 ----------------------------------------------------------------
    1      C      -0.2680900000    -8.5197410000     0.0465740000
    2      C       0.7339200000    -7.6359670000    -0.3268860000
    3      S      -1.7223180000    -7.6517400000     0.5957080000
    4      C       0.3715160000    -6.2618940000    -0.1932360000
    5      H       1.7181300000    -7.9547380000    -0.6927000000
    6      C      -0.9702830000    -6.0799850000     0.2949580000
    7      C      -1.4982430000    -4.7983820000     0.5154870000
    8      C       1.2197250000    -5.1535420000    -0.4773580000
    9      C       0.6929140000    -3.8696260000    -0.2526550000
   10      C      -0.6512890000    -3.6889270000     0.2333660000
   11      O       2.4516230000    -5.4810750000    -0.9573690000
   12      O      -2.7352640000    -4.4798710000     0.9987690000
   13      C      -3.8283870000    -5.3560260000     0.7520290000
   14      H      -4.7432130000    -4.7904960000     1.0126750000
   15      H      -3.7886230000    -6.2685130000     1.3863030000
   16      H      -3.8772600000    -5.6581870000    -0.3164920000
   17      C       3.5215800000    -4.5469990000    -0.8819300000
   18      H       4.4382600000    -5.1075640000    -1.1459690000
   19      H       3.6318680000    -4.1314730000     0.1427120000
   20      H       3.3994250000    -3.7120850000    -1.6056100000
   21      C      -1.0095350000    -2.3143260000     0.3679280000
   22      S       1.4509450000    -2.2954870000    -0.5420880000
   23      C       0.0000000000    -1.4351800000     0.0000000000
   24      H      -1.9939200000    -1.9932110000     0.7309990000
   25      H      -0.2620470000    -9.6159850000     0.0469910000
   26      C       0.0000000000     0.0000000000     0.0000000000
   27      S       0.2349460000     0.8682030000     1.5107320000
   28      C       0.6416300000     2.3901250000     0.7276290000
   29      C       0.2350360000     0.8772840000    -1.0646650000
   30      C       0.5930190000     2.2191430000    -0.6782870000
   31      C       0.2194520000     0.8127320000    -2.4861500000
   32      C       0.5466890000     2.0345010000    -3.1069160000
   33      S       0.8663450000     3.2403570000    -1.9657350000
   34      C       0.6170670000     2.2790950000    -4.5599720000
   35      O       0.3783420000     1.3766310000    -5.3502770000
   36      O       0.9523080000     3.5177250000    -5.0043750000
   37      F      -0.0651230000    -0.2644430000    -3.2462900000
   38      C       1.0549500000     3.8615770000    -6.3349760000
   39      H       1.3415160000     4.9287320000    -6.3702680000
   40      H       0.0935730000     3.7160850000    -6.8756090000
   41      H       1.8223030000     3.2522320000    -6.8618780000
   42      H       0.8798120000     3.2787800000     1.3215100000
 ----------------------------------------------------------------

   10   -2754.2926397512      8.73e-07  Convergence criterion met
 Total energy in the final basis set =    -2754.2926397512
        RIMP2         total energy =     -2759.3462507561 a.u.

                    Orbital Energies (a.u.)
 --------------------------------------------------------------

 Alpha MOs
 -- Occupied --
-92.0164 -91.9949 -91.9900 -91.9866 -26.3338 -20.6120 -20.5923 -20.5919
-20.5501 -11.4103 -11.3772 -11.3193 -11.3188 -11.3081 -11.2976 -11.2964
-11.2945 -11.2933 -11.2884 -11.2870 -11.2867 -11.2863 -11.2842 -11.2827
-11.2803 -11.2608 -11.2597 -11.2586 -11.2501  -9.0145  -8.9989  -8.9903
 -8.9865  -6.6951  -6.6945  -6.6941  -6.6802  -6.6795  -6.6782  -6.6712
 -6.6705  -6.6696  -6.6675  -6.6669  -6.6660  -1.6467  -1.4718  -1.4165
 -1.4146  -1.3671  -1.2335  -1.1961  -1.1684  -1.1419  -1.0841  -1.0523
 -1.0474  -1.0277  -1.0025  -0.9932  -0.9713  -0.9614  -0.9505  -0.9384
 -0.8960  -0.8692  -0.8505  -0.8059  -0.7902  -0.7884  -0.7744  -0.7671
 -0.7583  -0.7328  -0.7179  -0.7150  -0.7011  -0.6886  -0.6833  -0.6784
 -0.6711  -0.6607  -0.6592  -0.6528  -0.6306  -0.6202  -0.6172  -0.6064
 -0.6024  -0.5947  -0.5826  -0.5785  -0.5673  -0.5659  -0.5566  -0.5510
 -0.5346  -0.5264  -0.5246  -0.5161  -0.5140  -0.5083  -0.5012  -0.4955
 -0.4902  -0.4841  -0.4756  -0.4684  -0.4617  -0.4612  -0.4603  -0.4077
 -0.4009  -0.3870  -0.3572  -0.3497  -0.3164  -0.2882  -0.2582

          Ground-State Mulliken Net Atomic Charges

     Atom                 Charge (a.u.)
  ----------------------------------------
      1 C                    -0.186951
      2 C                    -0.254694
      3 S                    -0.021918
      4 C                    -0.012505
      5 H                     0.196557
      6 C                    -0.027375
      7 C                     0.245773
      8 C                     0.239969
      9 C                    -0.041407
     10 C                    -0.022843
     11 O                    -0.333117
     12 O                    -0.339826
     13 C                    -0.085674
     14 H                     0.122617
     15 H                     0.091029
     16 H                     0.094641
     17 C                    -0.086754
     18 H                     0.125064
     19 H                     0.094317
     20 H                     0.090507
     21 C                    -0.231122
     22 S                    -0.001167
     23 C                    -0.048178
     24 H                     0.196700
     25 H                     0.206661
     26 C                     0.007744
     27 S                     0.121416
     28 C                    -0.238178
     29 C                    -0.128812
     30 C                     0.000124
     31 C                     0.394374
     32 C                    -0.155768
     33 S                     0.040190
     34 C                     0.460853
     35 O                    -0.449557
     36 O                    -0.297868
     37 F                    -0.210427
     38 C                    -0.054923
     39 H                     0.116532
     40 H                     0.084676
     41 H                     0.084485
     42 H                     0.214834
  ----------------------------------------
  Sum of atomic charges =     0.000000

                    Cartesian Multipole Moments
 -----------------------------------------------------------------
    Charge (ESU x 10^10)
                 0.0000
    Dipole Moment (Debye)
         X       0.9396      Y       1.4821      Z       3.0020
       Tot       3.4773
    Quadrupole Moments (Debye-Ang)
        XX    -175.6561     XY       4.9397     YY    -159.1507
        XZ      -5.8686     YZ      -9.1017     ZZ    -206.1282

 Total job time:  295.15s(wall), 9278.46s(cpu)
        *  Thank you very much for using Q-Chem.  Have a nice day.  *
