 Q-Chem 5.4, Q-Chem, Inc., Pleasanton, CA (2021)
 Q-Chem 5.4.0 for Intel X86 EM64T Linux

User input:
--------------------------------------------------------------
$molecule
0 1
C	-8.181783	-2.383936	0.187882
C	-7.593449	-1.128518	0.139491
S	-6.952775	-3.671698	0.218911
C	-6.166465	-1.159226	0.132628
H	-8.164612	-0.192063	0.109019
C	-5.633289	-2.495091	0.187743
C	-4.249617	-2.729199	0.164777
C	-5.317053	-0.018460	0.056590
C	-3.931075	-0.252514	0.029292
C	-3.398678	-1.590024	0.087348
O	-5.964564	1.179721	0.037841
O	-3.609364	-3.935430	0.182582
C	-4.219143	-5.040218	0.839133
H	-3.434018	-5.813979	0.936800
H	-5.060520	-5.467889	0.251170
H	-4.586929	-4.762728	1.850647
C	-5.307138	2.341837	-0.452339
H	-6.088170	3.119755	-0.547647
H	-4.847682	2.163863	-1.448302
H	-4.528642	2.709642	0.250781
C	-1.972092	-1.617219	0.078055
S	-2.609779	0.925851	-0.014657
C	-1.389570	-0.358280	0.021760
H	-1.398841	-2.552228	0.111095
H	-9.244584	-2.652354	0.201823
C	0.000000	0.000000	0.000000
S	1.248606	-1.237024	0.045184
C	2.578046	-0.086149	-0.009273
C	0.613130	1.256674	-0.056766
C	2.054408	1.229661	-0.060695
C	0.193391	2.615156	-0.114857
C	1.262800	3.531437	-0.158991
S	2.756033	2.739044	-0.128456
C	1.145817	5.000431	-0.226240
O	0.044347	5.531794	-0.247006
O	2.277086	5.750539	-0.266889
F	-1.075424	3.072206	-0.132595
C	2.291612	7.126856	-0.336240
H	3.352630	7.436815	-0.355020
H	1.783518	7.590897	0.537948
H	1.778157	7.500639	-1.249699
H	3.617334	-0.430990	0.000713
$end

$rem
JOBTYPE		SP
EXCHANGE	HF
CORRELATION	pRIMP2
BASIS		cc-pvtz
METHOD		rimp2
AUX_BASIS	rimp2-cc-pvtz
SOLVENT_METHOD	PCM
PURECART	11111
SYMMETRY	false
MEM_TOTAL	110000
SCF_CONVERGENCE = 6
THRESH=10
GUI = 2
$end

$solvent
dielectric 4.90
$end
--------------------------------------------------------------

             Standard Nuclear Orientation (Angstroms)
    I     Atom           X                Y                Z
 ----------------------------------------------------------------
    1      C      -8.1817830000    -2.3839360000     0.1878820000
    2      C      -7.5934490000    -1.1285180000     0.1394910000
    3      S      -6.9527750000    -3.6716980000     0.2189110000
    4      C      -6.1664650000    -1.1592260000     0.1326280000
    5      H      -8.1646120000    -0.1920630000     0.1090190000
    6      C      -5.6332890000    -2.4950910000     0.1877430000
    7      C      -4.2496170000    -2.7291990000     0.1647770000
    8      C      -5.3170530000    -0.0184600000     0.0565900000
    9      C      -3.9310750000    -0.2525140000     0.0292920000
   10      C      -3.3986780000    -1.5900240000     0.0873480000
   11      O      -5.9645640000     1.1797210000     0.0378410000
   12      O      -3.6093640000    -3.9354300000     0.1825820000
   13      C      -4.2191430000    -5.0402180000     0.8391330000
   14      H      -3.4340180000    -5.8139790000     0.9368000000
   15      H      -5.0605200000    -5.4678890000     0.2511700000
   16      H      -4.5869290000    -4.7627280000     1.8506470000
   17      C      -5.3071380000     2.3418370000    -0.4523390000
   18      H      -6.0881700000     3.1197550000    -0.5476470000
   19      H      -4.8476820000     2.1638630000    -1.4483020000
   20      H      -4.5286420000     2.7096420000     0.2507810000
   21      C      -1.9720920000    -1.6172190000     0.0780550000
   22      S      -2.6097790000     0.9258510000    -0.0146570000
   23      C      -1.3895700000    -0.3582800000     0.0217600000
   24      H      -1.3988410000    -2.5522280000     0.1110950000
   25      H      -9.2445840000    -2.6523540000     0.2018230000
   26      C       0.0000000000     0.0000000000     0.0000000000
   27      S       1.2486060000    -1.2370240000     0.0451840000
   28      C       2.5780460000    -0.0861490000    -0.0092730000
   29      C       0.6131300000     1.2566740000    -0.0567660000
   30      C       2.0544080000     1.2296610000    -0.0606950000
   31      C       0.1933910000     2.6151560000    -0.1148570000
   32      C       1.2628000000     3.5314370000    -0.1589910000
   33      S       2.7560330000     2.7390440000    -0.1284560000
   34      C       1.1458170000     5.0004310000    -0.2262400000
   35      O       0.0443470000     5.5317940000    -0.2470060000
   36      O       2.2770860000     5.7505390000    -0.2668890000
   37      F      -1.0754240000     3.0722060000    -0.1325950000
   38      C       2.2916120000     7.1268560000    -0.3362400000
   39      H       3.3526300000     7.4368150000    -0.3550200000
   40      H       1.7835180000     7.5908970000     0.5379480000
   41      H       1.7781570000     7.5006390000    -1.2496990000
   42      H       3.6173340000    -0.4309900000     0.0007130000
 ----------------------------------------------------------------

   10   -2754.2923971449      8.57e-07  Convergence criterion met
 Total energy in the final basis set =    -2754.2923971449
        RIMP2         total energy =     -2759.3487273217 a.u.

                    Orbital Energies (a.u.)
 --------------------------------------------------------------

 Alpha MOs
 -- Occupied --
-92.0145 -91.9948 -91.9865 -91.9853 -26.3365 -20.6120 -20.5922 -20.5913
-20.5498 -11.4102 -11.3792 -11.3185 -11.3185 -11.3148 -11.2974 -11.2973
-11.2969 -11.2925 -11.2885 -11.2866 -11.2854 -11.2844 -11.2840 -11.2823
-11.2801 -11.2618 -11.2598 -11.2594 -11.2500  -9.0130  -8.9989  -8.9864
 -8.9863  -6.6938  -6.6932  -6.6927  -6.6801  -6.6794  -6.6781  -6.6674
 -6.6671  -6.6668  -6.6664  -6.6659  -6.6653  -1.6526  -1.4718  -1.4157
 -1.4146  -1.3671  -1.2342  -1.1964  -1.1692  -1.1420  -1.0848  -1.0523
 -1.0483  -1.0287  -1.0024  -0.9941  -0.9726  -0.9607  -0.9500  -0.9380
 -0.8961  -0.8697  -0.8527  -0.8104  -0.7965  -0.7872  -0.7752  -0.7631
 -0.7584  -0.7327  -0.7211  -0.7196  -0.7007  -0.6887  -0.6845  -0.6786
 -0.6741  -0.6622  -0.6586  -0.6524  -0.6288  -0.6197  -0.6163  -0.6066
 -0.6015  -0.5954  -0.5889  -0.5714  -0.5690  -0.5650  -0.5598  -0.5526
 -0.5301  -0.5270  -0.5237  -0.5192  -0.5148  -0.5090  -0.5016  -0.4952
 -0.4861  -0.4826  -0.4803  -0.4643  -0.4615  -0.4606  -0.4580  -0.4249
 -0.3958  -0.3868  -0.3607  -0.3499  -0.3254  -0.2835  -0.2467

          Ground-State Mulliken Net Atomic Charges

     Atom                 Charge (a.u.)
  ----------------------------------------
      1 C                    -0.187174
      2 C                    -0.254601
      3 S                    -0.022833
      4 C                    -0.013492
      5 H                     0.196680
      6 C                    -0.029755
      7 C                     0.245840
      8 C                     0.242726
      9 C                    -0.038220
     10 C                    -0.024688
     11 O                    -0.333754
     12 O                    -0.340469
     13 C                    -0.085772
     14 H                     0.122379
     15 H                     0.091479
     16 H                     0.094340
     17 C                    -0.089361
     18 H                     0.125762
     19 H                     0.094709
     20 H                     0.091653
     21 C                    -0.249516
     22 S                    -0.028932
     23 C                     0.026381
     24 H                     0.186023
     25 H                     0.206635
     26 C                     0.009578
     27 S                     0.088484
     28 C                    -0.238839
     29 C                    -0.092037
     30 C                    -0.023727
     31 C                     0.380913
     32 C                    -0.133689
     33 S                     0.034363
     34 C                     0.462000
     35 O                    -0.451897
     36 O                    -0.297747
     37 F                    -0.210696
     38 C                    -0.055184
     39 H                     0.116777
     40 H                     0.084513
     41 H                     0.084329
     42 H                     0.216820
  ----------------------------------------
  Sum of atomic charges =     0.000000

                    Cartesian Multipole Moments
 -----------------------------------------------------------------
    Charge (ESU x 10^10)
                -0.0000
    Dipole Moment (Debye)
         X       2.2030      Y      -2.4783      Z       0.3391
       Tot       3.3332
    Quadrupole Moments (Debye-Ang)
        XX    -165.7312     XY      14.9235     YY    -176.1453
        XZ      -0.8760     YZ      -7.0492     ZZ    -200.1072

 Total job time:  302.26s(wall), 9982.64s(cpu)
        *  Thank you very much for using Q-Chem.  Have a nice day.  *
