 Q-Chem 5.4, Q-Chem, Inc., Pleasanton, CA (2021)
 Q-Chem 5.4.0 for Intel X86 EM64T Linux

User input:
--------------------------------------------------------------
$molecule
0 1
C	-0.255929	-8.519741	0.092419
C	0.666007	-7.635967	-0.449364
S	-1.592708	-7.651740	0.885736
C	0.332317	-6.261894	-0.254813
H	1.571741	-7.954738	-0.980526
C	-0.904324	-6.079985	0.458965
C	-1.385968	-4.798382	0.767823
C	1.118303	-5.153542	-0.681909
C	0.638514	-3.869626	-0.369139
C	-0.600871	-3.688927	0.342916
O	2.248132	-5.481075	-1.368544
O	-2.520275	-4.479871	1.458570
C	-3.639637	-5.356026	1.405396
H	-4.495304	-4.790496	1.820940
H	-3.490336	-6.268513	2.023129
H	-3.873314	-5.658187	0.361595
C	3.314934	-4.546999	-1.480048
H	4.171837	-5.107564	-1.899255
H	3.601473	-4.131473	-0.490123
H	3.068969	-3.712085	-2.171521
C	-0.930308	-2.314326	0.537642
S	1.334769	-2.295487	-0.785807
C	0.000000	-1.435180	0.000000
H	-1.836691	-1.993211	1.066134
H	-0.249906	-9.615985	0.091781
C	0.000000	0.000000	0.000000
S	0.780044	0.447780	1.510732
C	2.143774	1.236372	0.727629
C	0.786529	0.454137	-1.064665
C	1.988499	1.149844	-0.678287
C	0.729864	0.419512	-2.486150
C	1.825177	1.052041	-3.106916
S	2.903877	1.678680	-1.965735
C	2.047896	1.175232	-4.559972
O	1.240953	0.705897	-5.350277
O	3.160791	1.814024	-5.004375
F	-0.233039	-0.140940	-3.246290
C	3.476510	1.984585	-6.334976
H	4.433735	2.536545	-6.370268
H	2.693835	2.561503	-6.875609
H	3.588239	1.011113	-6.861878
H	2.940569	1.696327	1.321510
$end

$rem
JOBTYPE		SP
EXCHANGE	HF
CORRELATION	pRIMP2
BASIS		cc-pvtz
METHOD		rimp2
AUX_BASIS	rimp2-cc-pvtz
SOLVENT_METHOD	PCM
PURECART	11111
SYMMETRY	false
MEM_TOTAL	110000
SCF_CONVERGENCE = 6
THRESH=10
GUI = 2
$end

$solvent
dielectric 4.90
$end
--------------------------------------------------------------

             Standard Nuclear Orientation (Angstroms)
    I     Atom           X                Y                Z
 ----------------------------------------------------------------
    1      C      -0.2559290000    -8.5197410000     0.0924190000
    2      C       0.6660070000    -7.6359670000    -0.4493640000
    3      S      -1.5927080000    -7.6517400000     0.8857360000
    4      C       0.3323170000    -6.2618940000    -0.2548130000
    5      H       1.5717410000    -7.9547380000    -0.9805260000
    6      C      -0.9043240000    -6.0799850000     0.4589650000
    7      C      -1.3859680000    -4.7983820000     0.7678230000
    8      C       1.1183030000    -5.1535420000    -0.6819090000
    9      C       0.6385140000    -3.8696260000    -0.3691390000
   10      C      -0.6008710000    -3.6889270000     0.3429160000
   11      O       2.2481320000    -5.4810750000    -1.3685440000
   12      O      -2.5202750000    -4.4798710000     1.4585700000
   13      C      -3.6396370000    -5.3560260000     1.4053960000
   14      H      -4.4953040000    -4.7904960000     1.8209400000
   15      H      -3.4903360000    -6.2685130000     2.0231290000
   16      H      -3.8733140000    -5.6581870000     0.3615950000
   17      C       3.3149340000    -4.5469990000    -1.4800480000
   18      H       4.1718370000    -5.1075640000    -1.8992550000
   19      H       3.6014730000    -4.1314730000    -0.4901230000
   20      H       3.0689690000    -3.7120850000    -2.1715210000
   21      C      -0.9303080000    -2.3143260000     0.5376420000
   22      S       1.3347690000    -2.2954870000    -0.7858070000
   23      C       0.0000000000    -1.4351800000     0.0000000000
   24      H      -1.8366910000    -1.9932110000     1.0661340000
   25      H      -0.2499060000    -9.6159850000     0.0917810000
   26      C       0.0000000000     0.0000000000     0.0000000000
   27      S       0.7800440000     0.4477800000     1.5107320000
   28      C       2.1437740000     1.2363720000     0.7276290000
   29      C       0.7865290000     0.4541370000    -1.0646650000
   30      C       1.9884990000     1.1498440000    -0.6782870000
   31      C       0.7298640000     0.4195120000    -2.4861500000
   32      C       1.8251770000     1.0520410000    -3.1069160000
   33      S       2.9038770000     1.6786800000    -1.9657350000
   34      C       2.0478960000     1.1752320000    -4.5599720000
   35      O       1.2409530000     0.7058970000    -5.3502770000
   36      O       3.1607910000     1.8140240000    -5.0043750000
   37      F      -0.2330390000    -0.1409400000    -3.2462900000
   38      C       3.4765100000     1.9845850000    -6.3349760000
   39      H       4.4337350000     2.5365450000    -6.3702680000
   40      H       2.6938350000     2.5615030000    -6.8756090000
   41      H       3.5882390000     1.0111130000    -6.8618780000
   42      H       2.9405690000     1.6963270000     1.3215100000
 ----------------------------------------------------------------

   11   -2754.2309859408      5.78e-07  Convergence criterion met
 Total energy in the final basis set =    -2754.2309859408
        RIMP2         total energy =     -2759.3052576199 a.u.

                    Orbital Energies (a.u.)
 --------------------------------------------------------------

 Alpha MOs
 -- Occupied --
-92.0185 -92.0077 -91.9837 -91.9831 -26.3349 -20.6164 -20.5907 -20.5872
-20.5575 -11.4168 -11.3777 -11.3273 -11.3164 -11.3126 -11.3106 -11.3027
-11.2951 -11.2909 -11.2908 -11.2862 -11.2837 -11.2808 -11.2789 -11.2753
-11.2728 -11.2560 -11.2530 -11.2476 -11.2382  -9.0173  -9.0111  -8.9847
 -8.9831  -6.6978  -6.6969  -6.6968  -6.6922  -6.6916  -6.6904  -6.6657
 -6.6649  -6.6641  -6.6640  -6.6635  -6.6626  -1.6478  -1.4766  -1.4146
 -1.4101  -1.3727  -1.2462  -1.1919  -1.1704  -1.1445  -1.0846  -1.0519
 -1.0471  -1.0343  -0.9984  -0.9915  -0.9764  -0.9578  -0.9483  -0.9389
 -0.8923  -0.8768  -0.8428  -0.8067  -0.7945  -0.7858  -0.7788  -0.7643
 -0.7526  -0.7300  -0.7186  -0.7155  -0.6986  -0.6921  -0.6821  -0.6786
 -0.6778  -0.6644  -0.6569  -0.6500  -0.6276  -0.6171  -0.6156  -0.6124
 -0.6097  -0.5998  -0.5808  -0.5761  -0.5653  -0.5619  -0.5533  -0.5442
 -0.5326  -0.5301  -0.5216  -0.5163  -0.5131  -0.5074  -0.5022  -0.4951
 -0.4910  -0.4851  -0.4678  -0.4664  -0.4653  -0.4638  -0.4573  -0.4032
 -0.4006  -0.3815  -0.3589  -0.3466  -0.3171  -0.2927  -0.2502

          Ground-State Mulliken Net Atomic Charges

     Atom                 Charge (a.u.)
  ----------------------------------------
      1 C                    -0.197284
      2 C                    -0.253119
      3 S                    -0.027734
      4 C                    -0.024553
      5 H                     0.195184
      6 C                    -0.023894
      7 C                     0.229669
      8 C                     0.244800
      9 C                    -0.047290
     10 C                     0.003071
     11 O                    -0.333130
     12 O                    -0.340907
     13 C                    -0.085387
     14 H                     0.121238
     15 H                     0.089868
     16 H                     0.093127
     17 C                    -0.087861
     18 H                     0.125172
     19 H                     0.093318
     20 H                     0.089396
     21 C                    -0.296908
     22 S                    -0.042904
     23 C                     0.018535
     24 H                     0.190552
     25 H                     0.204801
     26 C                    -0.167302
     27 S                     0.153330
     28 C                    -0.140466
     29 C                    -0.076167
     30 C                    -0.027324
     31 C                     0.396455
     32 C                    -0.127015
     33 S                     0.079185
     34 C                     0.459176
     35 O                    -0.437393
     36 O                    -0.296738
     37 F                    -0.209570
     38 C                    -0.054720
     39 H                     0.117516
     40 H                     0.086025
     41 H                     0.085832
     42 H                     0.221416
  ----------------------------------------
  Sum of atomic charges =     0.000000

                    Cartesian Multipole Moments
 -----------------------------------------------------------------
    Charge (ESU x 10^10)
                -0.0000
    Dipole Moment (Debye)
         X       5.4752      Y       2.7137      Z       2.2843
       Tot       6.5238
    Quadrupole Moments (Debye-Ang)
        XX    -163.6275     XY       9.2958     YY    -179.3856
        XZ     -17.5574     YZ      -4.5898     ZZ    -199.7972

 Total job time:  310.20s(wall), 10076.66s(cpu)
        *  Thank you very much for using Q-Chem.  Have a nice day.  *
