 Q-Chem 5.4, Q-Chem, Inc., Pleasanton, CA (2021)
 Q-Chem 5.4.0 for Intel X86 EM64T Linux

User input:
--------------------------------------------------------------
$molecule
0 1
C	-0.175432	-8.519741	0.208002
C	0.352097	-7.635967	-0.722164
S	-0.936458	-7.651740	1.563424
C	0.160388	-6.261894	-0.386833
H	0.870905	-7.954738	-1.635031
C	-0.553685	-6.079985	0.849637
C	-0.816372	-4.798382	1.357938
C	0.627524	-5.153542	-1.149702
C	0.368399	-3.869626	-0.638941
C	-0.348912	-3.688927	0.597409
O	1.262667	-5.481075	-2.309260
O	-1.453338	-4.479871	2.523296
C	-2.449320	-5.356026	3.036927
H	-2.982577	-4.790496	3.824632
H	-2.011155	-6.268513	3.497250
H	-3.173591	-5.658187	2.249807
C	2.130793	-4.546999	-2.939226
H	2.663289	-5.107564	-3.730721
H	2.873906	-4.131473	-2.225196
H	1.572045	-3.712085	-3.415077
C	-0.536849	-2.314326	0.930765
S	0.763041	-2.295487	-1.347913
C	0.000000	-1.435180	0.000000
H	-1.057554	-1.993211	1.841645
H	-0.170535	-9.615985	0.204438
C	0.000000	0.000000	0.000000
S	0.080615	0.895811	1.510732
C	0.216842	2.465231	0.727629
C	0.079127	0.904769	-1.064665
C	0.198659	2.288406	-0.678287
C	0.074988	0.838492	-2.486150
C	0.185097	2.098524	-3.106916
S	0.290501	3.341568	-1.965735
C	0.211932	2.351623	-4.559972
O	0.133545	1.421416	-5.350277
O	0.326994	3.629649	-5.004375
F	-0.018214	-0.271734	-3.246290
C	0.368367	3.986101	-6.334976
H	0.465270	5.086806	-6.370268
H	-0.553140	3.675878	-6.875609
H	1.229874	3.519263	-6.861878
H	0.297091	3.381746	1.321510
$end

$rem
JOBTYPE		SP
EXCHANGE	HF
CORRELATION	pRIMP2
BASIS		cc-pvtz
METHOD		rimp2
AUX_BASIS	rimp2-cc-pvtz
SOLVENT_METHOD	PCM
PURECART	11111
SYMMETRY	false
MEM_TOTAL	110000
SCF_CONVERGENCE = 6
THRESH=10
GUI = 2
$end

$solvent
dielectric 4.90
$end
--------------------------------------------------------------

             Standard Nuclear Orientation (Angstroms)
    I     Atom           X                Y                Z
 ----------------------------------------------------------------
    1      C      -0.1754320000    -8.5197410000     0.2080020000
    2      C       0.3520970000    -7.6359670000    -0.7221640000
    3      S      -0.9364580000    -7.6517400000     1.5634240000
    4      C       0.1603880000    -6.2618940000    -0.3868330000
    5      H       0.8709050000    -7.9547380000    -1.6350310000
    6      C      -0.5536850000    -6.0799850000     0.8496370000
    7      C      -0.8163720000    -4.7983820000     1.3579380000
    8      C       0.6275240000    -5.1535420000    -1.1497020000
    9      C       0.3683990000    -3.8696260000    -0.6389410000
   10      C      -0.3489120000    -3.6889270000     0.5974090000
   11      O       1.2626670000    -5.4810750000    -2.3092600000
   12      O      -1.4533380000    -4.4798710000     2.5232960000
   13      C      -2.4493200000    -5.3560260000     3.0369270000
   14      H      -2.9825770000    -4.7904960000     3.8246320000
   15      H      -2.0111550000    -6.2685130000     3.4972500000
   16      H      -3.1735910000    -5.6581870000     2.2498070000
   17      C       2.1307930000    -4.5469990000    -2.9392260000
   18      H       2.6632890000    -5.1075640000    -3.7307210000
   19      H       2.8739060000    -4.1314730000    -2.2251960000
   20      H       1.5720450000    -3.7120850000    -3.4150770000
   21      C      -0.5368490000    -2.3143260000     0.9307650000
   22      S       0.7630410000    -2.2954870000    -1.3479130000
   23      C       0.0000000000    -1.4351800000     0.0000000000
   24      H      -1.0575540000    -1.9932110000     1.8416450000
   25      H      -0.1705350000    -9.6159850000     0.2044380000
   26      C       0.0000000000     0.0000000000     0.0000000000
   27      S       0.0806150000     0.8958110000     1.5107320000
   28      C       0.2168420000     2.4652310000     0.7276290000
   29      C       0.0791270000     0.9047690000    -1.0646650000
   30      C       0.1986590000     2.2884060000    -0.6782870000
   31      C       0.0749880000     0.8384920000    -2.4861500000
   32      C       0.1850970000     2.0985240000    -3.1069160000
   33      S       0.2905010000     3.3415680000    -1.9657350000
   34      C       0.2119320000     2.3516230000    -4.5599720000
   35      O       0.1335450000     1.4214160000    -5.3502770000
   36      O       0.3269940000     3.6296490000    -5.0043750000
   37      F      -0.0182140000    -0.2717340000    -3.2462900000
   38      C       0.3683670000     3.9861010000    -6.3349760000
   39      H       0.4652700000     5.0868060000    -6.3702680000
   40      H      -0.5531400000     3.6758780000    -6.8756090000
   41      H       1.2298740000     3.5192630000    -6.8618780000
   42      H       0.2970910000     3.3817460000     1.3215100000
 ----------------------------------------------------------------

   10   -2754.2954585416      8.21e-07  Convergence criterion met
 Total energy in the final basis set =    -2754.2954585416
        RIMP2         total energy =     -2759.3506383998 a.u.

                    Orbital Energies (a.u.)
 --------------------------------------------------------------

 Alpha MOs
 -- Occupied --
-92.0155 -91.9947 -91.9877 -91.9865 -26.3344 -20.6118 -20.5922 -20.5917
-20.5496 -11.4100 -11.3781 -11.3189 -11.3187 -11.3136 -11.2971 -11.2968
-11.2965 -11.2925 -11.2884 -11.2865 -11.2864 -11.2861 -11.2841 -11.2818
-11.2802 -11.2617 -11.2596 -11.2593 -11.2501  -9.0138  -8.9987  -8.9884
 -8.9865  -6.6946  -6.6940  -6.6935  -6.6800  -6.6793  -6.6780  -6.6693
 -6.6686  -6.6676  -6.6674  -6.6668  -6.6660  -1.6488  -1.4716  -1.4160
 -1.4147  -1.3668  -1.2338  -1.1965  -1.1690  -1.1420  -1.0848  -1.0524
 -1.0477  -1.0282  -1.0026  -0.9937  -0.9720  -0.9610  -0.9502  -0.9383
 -0.8961  -0.8693  -0.8518  -0.8088  -0.7934  -0.7871  -0.7751  -0.7642
 -0.7584  -0.7328  -0.7194  -0.7165  -0.7007  -0.6884  -0.6839  -0.6784
 -0.6722  -0.6617  -0.6589  -0.6526  -0.6292  -0.6200  -0.6166  -0.6063
 -0.6018  -0.5946  -0.5874  -0.5731  -0.5701  -0.5647  -0.5584  -0.5526
 -0.5310  -0.5264  -0.5253  -0.5165  -0.5152  -0.5083  -0.5017  -0.4962
 -0.4878  -0.4835  -0.4785  -0.4668  -0.4613  -0.4612  -0.4593  -0.4213
 -0.3957  -0.3870  -0.3596  -0.3501  -0.3235  -0.2844  -0.2495

          Ground-State Mulliken Net Atomic Charges

     Atom                 Charge (a.u.)
  ----------------------------------------
      1 C                    -0.187153
      2 C                    -0.254369
      3 S                    -0.022622
      4 C                    -0.014238
      5 H                     0.196712
      6 C                    -0.029479
      7 C                     0.246318
      8 C                     0.240446
      9 C                    -0.042794
     10 C                    -0.019664
     11 O                    -0.333409
     12 O                    -0.339992
     13 C                    -0.085682
     14 H                     0.122443
     15 H                     0.091261
     16 H                     0.094505
     17 C                    -0.088713
     18 H                     0.125444
     19 H                     0.094133
     20 H                     0.091802
     21 C                    -0.255805
     22 S                    -0.009684
     23 C                     0.013297
     24 H                     0.192392
     25 H                     0.206657
     26 C                     0.009764
     27 S                     0.106842
     28 C                    -0.243302
     29 C                    -0.117295
     30 C                    -0.011255
     31 C                     0.382172
     32 C                    -0.144029
     33 S                     0.036450
     34 C                     0.461372
     35 O                    -0.451520
     36 O                    -0.298015
     37 F                    -0.208635
     38 C                    -0.055096
     39 H                     0.116627
     40 H                     0.084601
     41 H                     0.084276
     42 H                     0.215239
  ----------------------------------------
  Sum of atomic charges =     0.000000

                    Cartesian Multipole Moments
 -----------------------------------------------------------------
    Charge (ESU x 10^10)
                -0.0000
    Dipole Moment (Debye)
         X       0.1364      Y       1.4366      Z       2.9323
       Tot       3.2681
    Quadrupole Moments (Debye-Ang)
        XX    -189.9150     XY       2.8767     YY    -158.8496
        XZ     -13.7208     YZ      -9.7835     ZZ    -193.0219

 Total job time:  279.80s(wall), 9224.23s(cpu)
        *  Thank you very much for using Q-Chem.  Have a nice day.  *
