 Q-Chem 5.4, Q-Chem, Inc., Pleasanton, CA (2021)
 Q-Chem 5.4.0 for Intel X86 EM64T Linux

User input:
--------------------------------------------------------------
$molecule
0 1
C	-0.208886	-8.519741	0.174379
C	0.472151	-7.635967	-0.650052
S	-1.193717	-7.651740	1.377058
C	0.225125	-6.261894	-0.353105
H	1.141594	-7.954738	-1.458961
C	-0.692811	-6.079985	0.740583
C	-1.039773	-4.798382	1.195546
C	0.817634	-5.153542	-1.023267
C	0.473754	-3.869626	-0.565262
C	-0.447350	-3.688927	0.527745
O	1.644483	-5.481075	-2.054917
O	-1.869424	-4.479871	2.232592
C	-2.939466	-5.356026	2.565470
H	-3.601405	-4.790496	3.248608
H	-2.587892	-6.268513	3.094885
H	-3.516052	-5.658187	1.664539
C	2.608813	-4.546999	-2.524564
H	3.270661	-5.107564	-3.211568
H	3.216646	-4.131473	-1.692342
H	2.141184	-3.712085	-3.090211
C	-0.690319	-2.314326	0.823402
S	0.985511	-2.295487	-1.194935
C	0.000000	-1.435180	0.000000
H	-1.361286	-1.993211	1.630024
H	-0.203444	-9.615985	0.171719
C	0.000000	0.000000	0.000000
S	0.309721	0.844422	1.510732
C	0.847502	2.325108	0.727629
C	0.310602	0.853460	-1.064665
C	0.784173	2.159014	-0.678287
C	0.289451	0.790512	-2.486150
C	0.721927	1.979112	-3.106916
S	1.145464	3.152519	-1.965735
C	0.813355	2.216642	-4.559972
O	0.496884	1.338418	-5.350277
O	1.255274	3.421340	-5.004375
F	-0.087923	-0.257761	-3.246290
C	1.387494	3.754937	-6.334976
H	1.765978	4.793056	-6.370268
H	0.417095	3.693789	-6.875609
H	2.098820	3.081033	-6.861878
H	1.162229	3.189623	1.321510
$end

$rem
JOBTYPE		SP
EXCHANGE	HF
CORRELATION	pRIMP2
BASIS		cc-pvtz
METHOD		rimp2
AUX_BASIS	rimp2-cc-pvtz
SOLVENT_METHOD	PCM
PURECART	11111
SYMMETRY	false
MEM_TOTAL	110000
SCF_CONVERGENCE = 6
THRESH=10
GUI = 2
$end

$solvent
dielectric 4.90
$end
--------------------------------------------------------------

             Standard Nuclear Orientation (Angstroms)
    I     Atom           X                Y                Z
 ----------------------------------------------------------------
    1      C      -0.2088860000    -8.5197410000     0.1743790000
    2      C       0.4721510000    -7.6359670000    -0.6500520000
    3      S      -1.1937170000    -7.6517400000     1.3770580000
    4      C       0.2251250000    -6.2618940000    -0.3531050000
    5      H       1.1415940000    -7.9547380000    -1.4589610000
    6      C      -0.6928110000    -6.0799850000     0.7405830000
    7      C      -1.0397730000    -4.7983820000     1.1955460000
    8      C       0.8176340000    -5.1535420000    -1.0232670000
    9      C       0.4737540000    -3.8696260000    -0.5652620000
   10      C      -0.4473500000    -3.6889270000     0.5277450000
   11      O       1.6444830000    -5.4810750000    -2.0549170000
   12      O      -1.8694240000    -4.4798710000     2.2325920000
   13      C      -2.9394660000    -5.3560260000     2.5654700000
   14      H      -3.6014050000    -4.7904960000     3.2486080000
   15      H      -2.5878920000    -6.2685130000     3.0948850000
   16      H      -3.5160520000    -5.6581870000     1.6645390000
   17      C       2.6088130000    -4.5469990000    -2.5245640000
   18      H       3.2706610000    -5.1075640000    -3.2115680000
   19      H       3.2166460000    -4.1314730000    -1.6923420000
   20      H       2.1411840000    -3.7120850000    -3.0902110000
   21      C      -0.6903190000    -2.3143260000     0.8234020000
   22      S       0.9855110000    -2.2954870000    -1.1949350000
   23      C       0.0000000000    -1.4351800000     0.0000000000
   24      H      -1.3612860000    -1.9932110000     1.6300240000
   25      H      -0.2034440000    -9.6159850000     0.1717190000
   26      C       0.0000000000     0.0000000000     0.0000000000
   27      S       0.3097210000     0.8444220000     1.5107320000
   28      C       0.8475020000     2.3251080000     0.7276290000
   29      C       0.3106020000     0.8534600000    -1.0646650000
   30      C       0.7841730000     2.1590140000    -0.6782870000
   31      C       0.2894510000     0.7905120000    -2.4861500000
   32      C       0.7219270000     1.9791120000    -3.1069160000
   33      S       1.1454640000     3.1525190000    -1.9657350000
   34      C       0.8133550000     2.2166420000    -4.5599720000
   35      O       0.4968840000     1.3384180000    -5.3502770000
   36      O       1.2552740000     3.4213400000    -5.0043750000
   37      F      -0.0879230000    -0.2577610000    -3.2462900000
   38      C       1.3874940000     3.7549370000    -6.3349760000
   39      H       1.7659780000     4.7930560000    -6.3702680000
   40      H       0.4170950000     3.6937890000    -6.8756090000
   41      H       2.0988200000     3.0810330000    -6.8618780000
   42      H       1.1622290000     3.1896230000     1.3215100000
 ----------------------------------------------------------------

   10   -2754.2899711719      8.33e-07  Convergence criterion met
 Total energy in the final basis set =    -2754.2899711719
        RIMP2         total energy =     -2759.3468084475 a.u.

                    Orbital Energies (a.u.)
 --------------------------------------------------------------

 Alpha MOs
 -- Occupied --
-92.0161 -91.9959 -91.9888 -91.9862 -26.3338 -20.6123 -20.5918 -20.5916
-20.5504 -11.4107 -11.3778 -11.3189 -11.3178 -11.3092 -11.2982 -11.2976
-11.2958 -11.2956 -11.2886 -11.2864 -11.2862 -11.2860 -11.2838 -11.2830
-11.2796 -11.2612 -11.2588 -11.2565 -11.2498  -9.0144  -8.9998  -8.9893
 -8.9861  -6.6951  -6.6945  -6.6940  -6.6811  -6.6804  -6.6791  -6.6702
 -6.6695  -6.6686  -6.6671  -6.6665  -6.6656  -1.6475  -1.4720  -1.4160
 -1.4143  -1.3674  -1.2347  -1.1959  -1.1687  -1.1424  -1.0845  -1.0521
 -1.0479  -1.0286  -1.0023  -0.9932  -0.9721  -0.9608  -0.9501  -0.9386
 -0.8957  -0.8699  -0.8504  -0.8079  -0.7922  -0.7872  -0.7750  -0.7649
 -0.7579  -0.7324  -0.7188  -0.7158  -0.7004  -0.6888  -0.6831  -0.6787
 -0.6721  -0.6615  -0.6588  -0.6525  -0.6290  -0.6198  -0.6167  -0.6067
 -0.6031  -0.5954  -0.5847  -0.5749  -0.5685  -0.5646  -0.5576  -0.5520
 -0.5322  -0.5269  -0.5248  -0.5161  -0.5147  -0.5083  -0.5018  -0.4963
 -0.4882  -0.4844  -0.4774  -0.4676  -0.4618  -0.4615  -0.4594  -0.4175
 -0.3965  -0.3867  -0.3592  -0.3499  -0.3219  -0.2857  -0.2507

          Ground-State Mulliken Net Atomic Charges

     Atom                 Charge (a.u.)
  ----------------------------------------
      1 C                    -0.188388
      2 C                    -0.254405
      3 S                    -0.023391
      4 C                    -0.015215
      5 H                     0.196552
      6 C                    -0.026392
      7 C                     0.238628
      8 C                     0.240865
      9 C                    -0.043108
     10 C                    -0.007469
     11 O                    -0.333222
     12 O                    -0.340045
     13 C                    -0.085600
     14 H                     0.122348
     15 H                     0.090986
     16 H                     0.094369
     17 C                    -0.088696
     18 H                     0.125545
     19 H                     0.094163
     20 H                     0.091264
     21 C                    -0.264195
     22 S                    -0.008847
     23 C                     0.000477
     24 H                     0.194447
     25 H                     0.206464
     26 C                     0.021277
     27 S                     0.123131
     28 C                    -0.237385
     29 C                    -0.141962
     30 C                    -0.005045
     31 C                     0.374241
     32 C                    -0.145446
     33 S                     0.043143
     34 C                     0.460668
     35 O                    -0.449431
     36 O                    -0.297988
     37 F                    -0.208260
     38 C                    -0.054826
     39 H                     0.116682
     40 H                     0.084770
     41 H                     0.084386
     42 H                     0.214912
  ----------------------------------------
  Sum of atomic charges =     0.000000

                    Cartesian Multipole Moments
 -----------------------------------------------------------------
    Charge (ESU x 10^10)
                -0.0000
    Dipole Moment (Debye)
         X       1.1908      Y       1.6619      Z       2.8858
       Tot       3.5366
    Quadrupole Moments (Debye-Ang)
        XX    -183.7288     XY       6.4316     YY    -161.1039
        XZ     -15.9923     YZ      -9.0554     ZZ    -197.0927

 Total job time:  321.94s(wall), 11187.39s(cpu)
        *  Thank you very much for using Q-Chem.  Have a nice day.  *
