 Q-Chem 5.4, Q-Chem, Inc., Pleasanton, CA (2021)
 Q-Chem 5.4.0 for Intel X86 EM64T Linux

User input:
--------------------------------------------------------------
$molecule
0 1
C	-0.093711	-8.519741	0.255459
C	0.083869	-7.635967	-0.799036
S	-0.345260	-7.651740	1.789425
C	0.018411	-6.261894	-0.418360
H	0.259169	-7.954738	-1.834294
C	-0.229701	-6.079985	0.987769
C	-0.302697	-4.798382	1.555260
C	0.196459	-5.153542	-1.294992
C	0.127651	-3.869626	-0.726408
C	-0.123544	-3.688927	0.680716
O	0.396706	-5.481075	-2.601852
O	-0.502673	-4.479871	2.868193
C	-1.262918	-5.356026	3.691495
H	-1.494604	-4.790496	4.614080
H	-0.693738	-6.268513	3.974195
H	-2.212720	-5.658187	3.199559
C	0.997016	-4.546999	-3.490743
H	1.226691	-5.107564	-4.416630
H	1.939526	-4.131473	-3.073934
H	0.309214	-3.712085	-3.746794
C	-0.186133	-2.314326	1.058247
S	0.256010	-2.295487	-1.527599
C	0.000000	-1.435180	0.000000
H	-0.363896	-1.993211	2.092285
H	-0.090328	-9.615985	0.250435
C	0.000000	0.000000	0.000000
S	0.690437	0.576430	1.510732
C	1.896512	1.589852	0.727629
C	0.695720	0.583817	-1.064665
C	1.758621	1.477674	-0.678287
C	0.645928	0.539878	-2.486150
C	1.614763	1.352997	-3.106916
S	2.568261	2.157430	-1.965735
C	1.812707	1.512991	-4.559972
O	1.099523	0.910662	-5.350277
O	2.797769	2.335330	-5.004375
F	-0.205024	-0.179266	-3.246290
C	3.079074	2.558124	-6.334976
H	3.925910	3.267919	-6.370268
H	2.208109	2.990367	-6.875609
H	3.358147	1.618843	-6.861878
H	2.601331	2.181180	1.321510
$end

$rem
JOBTYPE		SP
EXCHANGE	HF
CORRELATION	pRIMP2
BASIS		cc-pvtz
METHOD		rimp2
AUX_BASIS	rimp2-cc-pvtz
SOLVENT_METHOD	PCM
PURECART	11111
SYMMETRY	false
MEM_TOTAL	110000
SCF_CONVERGENCE = 6
THRESH=10
GUI = 2
$end

$solvent
dielectric 4.90
$end
--------------------------------------------------------------

             Standard Nuclear Orientation (Angstroms)
    I     Atom           X                Y                Z
 ----------------------------------------------------------------
    1      C      -0.0937110000    -8.5197410000     0.2554590000
    2      C       0.0838690000    -7.6359670000    -0.7990360000
    3      S      -0.3452600000    -7.6517400000     1.7894250000
    4      C       0.0184110000    -6.2618940000    -0.4183600000
    5      H       0.2591690000    -7.9547380000    -1.8342940000
    6      C      -0.2297010000    -6.0799850000     0.9877690000
    7      C      -0.3026970000    -4.7983820000     1.5552600000
    8      C       0.1964590000    -5.1535420000    -1.2949920000
    9      C       0.1276510000    -3.8696260000    -0.7264080000
   10      C      -0.1235440000    -3.6889270000     0.6807160000
   11      O       0.3967060000    -5.4810750000    -2.6018520000
   12      O      -0.5026730000    -4.4798710000     2.8681930000
   13      C      -1.2629180000    -5.3560260000     3.6914950000
   14      H      -1.4946040000    -4.7904960000     4.6140800000
   15      H      -0.6937380000    -6.2685130000     3.9741950000
   16      H      -2.2127200000    -5.6581870000     3.1995590000
   17      C       0.9970160000    -4.5469990000    -3.4907430000
   18      H       1.2266910000    -5.1075640000    -4.4166300000
   19      H       1.9395260000    -4.1314730000    -3.0739340000
   20      H       0.3092140000    -3.7120850000    -3.7467940000
   21      C      -0.1861330000    -2.3143260000     1.0582470000
   22      S       0.2560100000    -2.2954870000    -1.5275990000
   23      C       0.0000000000    -1.4351800000     0.0000000000
   24      H      -0.3638960000    -1.9932110000     2.0922850000
   25      H      -0.0903280000    -9.6159850000     0.2504350000
   26      C       0.0000000000     0.0000000000     0.0000000000
   27      S       0.6904370000     0.5764300000     1.5107320000
   28      C       1.8965120000     1.5898520000     0.7276290000
   29      C       0.6957200000     0.5838170000    -1.0646650000
   30      C       1.7586210000     1.4776740000    -0.6782870000
   31      C       0.6459280000     0.5398780000    -2.4861500000
   32      C       1.6147630000     1.3529970000    -3.1069160000
   33      S       2.5682610000     2.1574300000    -1.9657350000
   34      C       1.8127070000     1.5129910000    -4.5599720000
   35      O       1.0995230000     0.9106620000    -5.3502770000
   36      O       2.7977690000     2.3353300000    -5.0043750000
   37      F      -0.2050240000    -0.1792660000    -3.2462900000
   38      C       3.0790740000     2.5581240000    -6.3349760000
   39      H       3.9259100000     3.2679190000    -6.3702680000
   40      H       2.2081090000     2.9903670000    -6.8756090000
   41      H       3.3581470000     1.6188430000    -6.8618780000
   42      H       2.6013310000     2.1811800000     1.3215100000
 ----------------------------------------------------------------

   11   -2754.2454930192      5.46e-07  Convergence criterion met
 Total energy in the final basis set =    -2754.2454930192
        RIMP2         total energy =     -2759.3168801792 a.u.

                    Orbital Energies (a.u.)
 --------------------------------------------------------------

 Alpha MOs
 -- Occupied --
-92.0159 -92.0056 -91.9826 -91.9819 -26.3361 -20.6163 -20.5898 -20.5870
-20.5572 -11.4166 -11.3786 -11.3202 -11.3161 -11.3117 -11.3094 -11.3019
-11.2964 -11.2948 -11.2908 -11.2887 -11.2848 -11.2838 -11.2804 -11.2776
-11.2742 -11.2572 -11.2516 -11.2471 -11.2390  -9.0150  -9.0091  -8.9832
 -8.9826  -6.6956  -6.6948  -6.6945  -6.6903  -6.6897  -6.6884  -6.6641
 -6.6636  -6.6634  -6.6630  -6.6623  -6.6621  -1.6513  -1.4765  -1.4137
 -1.4098  -1.3726  -1.2436  -1.1919  -1.1693  -1.1441  -1.0847  -1.0522
 -1.0467  -1.0342  -0.9988  -0.9918  -0.9763  -0.9570  -0.9475  -0.9392
 -0.8921  -0.8764  -0.8452  -0.8103  -0.7966  -0.7864  -0.7766  -0.7619
 -0.7546  -0.7295  -0.7232  -0.7176  -0.6982  -0.6916  -0.6824  -0.6795
 -0.6777  -0.6632  -0.6560  -0.6496  -0.6252  -0.6164  -0.6142  -0.6117
 -0.6072  -0.6030  -0.5843  -0.5705  -0.5663  -0.5603  -0.5563  -0.5511
 -0.5339  -0.5254  -0.5215  -0.5181  -0.5122  -0.5066  -0.5038  -0.4940
 -0.4882  -0.4823  -0.4762  -0.4671  -0.4647  -0.4617  -0.4535  -0.4236
 -0.3888  -0.3842  -0.3614  -0.3486  -0.3229  -0.2870  -0.2417

          Ground-State Mulliken Net Atomic Charges

     Atom                 Charge (a.u.)
  ----------------------------------------
      1 C                    -0.199756
      2 C                    -0.252602
      3 S                    -0.029363
      4 C                    -0.025691
      5 H                     0.195297
      6 C                    -0.024191
      7 C                     0.226157
      8 C                     0.244692
      9 C                    -0.048418
     10 C                    -0.004468
     11 O                    -0.333464
     12 O                    -0.342239
     13 C                    -0.085397
     14 H                     0.120706
     15 H                     0.090001
     16 H                     0.092833
     17 C                    -0.088917
     18 H                     0.125066
     19 H                     0.093050
     20 H                     0.091812
     21 C                    -0.287829
     22 S                    -0.034780
     23 C                     0.015049
     24 H                     0.182212
     25 H                     0.204502
     26 C                    -0.078640
     27 S                     0.123367
     28 C                    -0.160605
     29 C                    -0.021823
     30 C                    -0.038287
     31 C                     0.318982
     32 C                    -0.108550
     33 S                     0.072055
     34 C                     0.457883
     35 O                    -0.439451
     36 O                    -0.296639
     37 F                    -0.208615
     38 C                    -0.054463
     39 H                     0.117679
     40 H                     0.085771
     41 H                     0.085465
     42 H                     0.221607
  ----------------------------------------
  Sum of atomic charges =     0.000000

                    Cartesian Multipole Moments
 -----------------------------------------------------------------
    Charge (ESU x 10^10)
                 0.0000
    Dipole Moment (Debye)
         X       4.1193      Y       3.5901      Z       1.9964
       Tot       5.8175
    Quadrupole Moments (Debye-Ang)
        XX    -185.8832     XY      11.2764     YY    -178.7465
        XZ     -18.5202     YZ      -6.1976     ZZ    -181.9431

 Total job time:  308.78s(wall), 9996.09s(cpu)
        *  Thank you very much for using Q-Chem.  Have a nice day.  *
