 Q-Chem 5.4, Q-Chem, Inc., Pleasanton, CA (2021)
 Q-Chem 5.4.0 for Intel X86 EM64T Linux

User input:
--------------------------------------------------------------
$molecule
0 1
C	-0.135457	-8.519741	-0.235993
C	0.558188	-7.635967	0.577858
S	-1.148850	-7.651740	-1.414705
C	0.308648	-6.261894	0.283020
H	1.238560	-7.954738	1.377597
C	-0.609026	-6.079985	-0.810887
C	-0.996828	-4.798382	-1.231581
C	0.865740	-5.153542	0.982901
C	0.474408	-3.869626	0.564713
C	-0.442046	-3.688927	-0.532196
O	1.738137	-5.481075	1.976332
O	-1.874052	-4.479871	-2.228709
C	-2.016062	-5.356026	-3.340298
H	-2.573877	-4.790496	-4.110807
H	-2.598484	-6.268513	-3.085998
H	-1.028695	-5.658187	-3.751679
C	2.033195	-4.546999	3.007565
H	2.594833	-5.107564	3.778655
H	1.108067	-4.131473	3.461650
H	2.671451	-3.712085	2.645264
C	-0.691020	-2.314326	-0.822814
S	1.005649	-2.295487	1.178037
C	-0.000000	-1.435180	-0.000000
H	-1.368875	-1.993211	-1.623656
H	-0.133782	-9.615985	-0.230172
C	0.000000	0.000000	0.000000
S	0.690437	0.576430	1.510732
C	1.896512	1.589852	0.727629
C	0.695720	0.583817	-1.064665
C	1.758621	1.477674	-0.678287
C	0.645928	0.539878	-2.486150
C	1.614763	1.352997	-3.106916
S	2.568261	2.157430	-1.965735
C	1.812707	1.512991	-4.559972
O	1.099523	0.910662	-5.350277
O	2.797769	2.335330	-5.004375
F	-0.205024	-0.179266	-3.246290
C	3.079074	2.558124	-6.334976
H	3.925910	3.267919	-6.370268
H	2.208109	2.990367	-6.875609
H	3.358147	1.618843	-6.861878
H	2.601331	2.181180	1.321510
$end

$rem
JOBTYPE		SP
EXCHANGE	HF
CORRELATION	pRIMP2
BASIS		cc-pvtz
METHOD		rimp2
AUX_BASIS	rimp2-cc-pvtz
SOLVENT_METHOD	PCM
PURECART	11111
SYMMETRY	false
MEM_TOTAL	110000
SCF_CONVERGENCE = 6
THRESH=10
GUI = 2
$end

$solvent
dielectric 4.90
$end
--------------------------------------------------------------

             Standard Nuclear Orientation (Angstroms)
    I     Atom           X                Y                Z
 ----------------------------------------------------------------
    1      C      -0.1354570000    -8.5197410000    -0.2359930000
    2      C       0.5581880000    -7.6359670000     0.5778580000
    3      S      -1.1488500000    -7.6517400000    -1.4147050000
    4      C       0.3086480000    -6.2618940000     0.2830200000
    5      H       1.2385600000    -7.9547380000     1.3775970000
    6      C      -0.6090260000    -6.0799850000    -0.8108870000
    7      C      -0.9968280000    -4.7983820000    -1.2315810000
    8      C       0.8657400000    -5.1535420000     0.9829010000
    9      C       0.4744080000    -3.8696260000     0.5647130000
   10      C      -0.4420460000    -3.6889270000    -0.5321960000
   11      O       1.7381370000    -5.4810750000     1.9763320000
   12      O      -1.8740520000    -4.4798710000    -2.2287090000
   13      C      -2.0160620000    -5.3560260000    -3.3402980000
   14      H      -2.5738770000    -4.7904960000    -4.1108070000
   15      H      -2.5984840000    -6.2685130000    -3.0859980000
   16      H      -1.0286950000    -5.6581870000    -3.7516790000
   17      C       2.0331950000    -4.5469990000     3.0075650000
   18      H       2.5948330000    -5.1075640000     3.7786550000
   19      H       1.1080670000    -4.1314730000     3.4616500000
   20      H       2.6714510000    -3.7120850000     2.6452640000
   21      C      -0.6910200000    -2.3143260000    -0.8228140000
   22      S       1.0056490000    -2.2954870000     1.1780370000
   23      C       0.0000000000    -1.4351800000     0.0000000000
   24      H      -1.3688750000    -1.9932110000    -1.6236560000
   25      H      -0.1337820000    -9.6159850000    -0.2301720000
   26      C       0.0000000000     0.0000000000     0.0000000000
   27      S       0.6904370000     0.5764300000     1.5107320000
   28      C       1.8965120000     1.5898520000     0.7276290000
   29      C       0.6957200000     0.5838170000    -1.0646650000
   30      C       1.7586210000     1.4776740000    -0.6782870000
   31      C       0.6459280000     0.5398780000    -2.4861500000
   32      C       1.6147630000     1.3529970000    -3.1069160000
   33      S       2.5682610000     2.1574300000    -1.9657350000
   34      C       1.8127070000     1.5129910000    -4.5599720000
   35      O       1.0995230000     0.9106620000    -5.3502770000
   36      O       2.7977690000     2.3353300000    -5.0043750000
   37      F      -0.2050240000    -0.1792660000    -3.2462900000
   38      C       3.0790740000     2.5581240000    -6.3349760000
   39      H       3.9259100000     3.2679190000    -6.3702680000
   40      H       2.2081090000     2.9903670000    -6.8756090000
   41      H       3.3581470000     1.6188430000    -6.8618780000
   42      H       2.6013310000     2.1811800000     1.3215100000
 ----------------------------------------------------------------

   11   -2754.2483618642      5.52e-07  Convergence criterion met
 Total energy in the final basis set =    -2754.2483618642
        RIMP2         total energy =     -2759.3181329979 a.u.

                    Orbital Energies (a.u.)
 --------------------------------------------------------------

 Alpha MOs
 -- Occupied --
-92.0166 -92.0038 -91.9876 -91.9829 -26.3353 -20.6153 -20.5910 -20.5865
-20.5558 -11.4153 -11.3773 -11.3171 -11.3167 -11.3101 -11.3091 -11.3012
-11.2946 -11.2941 -11.2902 -11.2884 -11.2867 -11.2829 -11.2808 -11.2775
-11.2751 -11.2568 -11.2527 -11.2475 -11.2388  -9.0158  -9.0074  -8.9881
 -8.9829  -6.6965  -6.6957  -6.6954  -6.6886  -6.6880  -6.6867  -6.6690
 -6.6682  -6.6672  -6.6639  -6.6632  -6.6624  -1.6484  -1.4754  -1.4149
 -1.4094  -1.3714  -1.2421  -1.1925  -1.1699  -1.1437  -1.0829  -1.0517
 -1.0477  -1.0325  -0.9988  -0.9918  -0.9757  -0.9583  -0.9482  -0.9372
 -0.8938  -0.8748  -0.8453  -0.8025  -0.7966  -0.7863  -0.7740  -0.7679
 -0.7539  -0.7287  -0.7200  -0.7169  -0.6986  -0.6925  -0.6813  -0.6793
 -0.6760  -0.6614  -0.6571  -0.6495  -0.6273  -0.6170  -0.6145  -0.6108
 -0.6050  -0.6007  -0.5891  -0.5743  -0.5648  -0.5621  -0.5529  -0.5400
 -0.5365  -0.5297  -0.5197  -0.5165  -0.5141  -0.5094  -0.5029  -0.4933
 -0.4887  -0.4841  -0.4722  -0.4657  -0.4638  -0.4618  -0.4580  -0.4191
 -0.3943  -0.3814  -0.3540  -0.3505  -0.3196  -0.2901  -0.2465

          Ground-State Mulliken Net Atomic Charges

     Atom                 Charge (a.u.)
  ----------------------------------------
      1 C                    -0.197553
      2 C                    -0.253909
      3 S                    -0.027302
      4 C                    -0.023117
      5 H                     0.195001
      6 C                    -0.025146
      7 C                     0.229787
      8 C                     0.241953
      9 C                    -0.055431
     10 C                    -0.010391
     11 O                    -0.333294
     12 O                    -0.340888
     13 C                    -0.085382
     14 H                     0.122030
     15 H                     0.089751
     16 H                     0.092546
     17 C                    -0.087495
     18 H                     0.125157
     19 H                     0.094116
     20 H                     0.088597
     21 C                    -0.283501
     22 S                    -0.021062
     23 C                    -0.001456
     24 H                     0.191525
     25 H                     0.204673
     26 C                    -0.079997
     27 S                     0.107614
     28 C                    -0.171820
     29 C                    -0.027807
     30 C                    -0.023893
     31 C                     0.357576
     32 C                    -0.119584
     33 S                     0.065510
     34 C                     0.456274
     35 O                    -0.440803
     36 O                    -0.296937
     37 F                    -0.209557
     38 C                    -0.054592
     39 H                     0.117352
     40 H                     0.085423
     41 H                     0.085556
     42 H                     0.220478
  ----------------------------------------
  Sum of atomic charges =     0.000000

                    Cartesian Multipole Moments
 -----------------------------------------------------------------
    Charge (ESU x 10^10)
                 0.0000
    Dipole Moment (Debye)
         X       4.5953      Y       3.1350      Z       2.9048
       Tot       6.2756
    Quadrupole Moments (Debye-Ang)
        XX    -185.4885     XY       7.9925     YY    -177.0938
        XZ       0.2301     YZ      -7.6201     ZZ    -183.2870

 Total job time:  303.98s(wall), 9800.92s(cpu)
        *  Thank you very much for using Q-Chem.  Have a nice day.  *
