 Q-Chem 5.4, Q-Chem, Inc., Pleasanton, CA (2021)
 Q-Chem 5.4.0 for Intel X86 EM64T Linux

User input:
--------------------------------------------------------------
$molecule
0 1
C	-0.046574	-8.519741	-0.268090
C	0.326886	-7.635967	0.733920
S	-0.595708	-7.651740	-1.722318
C	0.193236	-6.261894	0.371516
H	0.692700	-7.954738	1.718130
C	-0.294958	-6.079985	-0.970283
C	-0.515487	-4.798382	-1.498243
C	0.477358	-5.153542	1.219725
C	0.252655	-3.869626	0.692914
C	-0.233366	-3.688927	-0.651289
O	0.957369	-5.481075	2.451623
O	-0.998769	-4.479871	-2.735264
C	-0.752029	-5.356026	-3.828387
H	-1.012675	-4.790496	-4.743213
H	-1.386303	-6.268513	-3.788623
H	0.316492	-5.658187	-3.877260
C	0.881930	-4.546999	3.521580
H	1.145969	-5.107564	4.438260
H	-0.142712	-4.131473	3.631868
H	1.605610	-3.712085	3.399425
C	-0.367928	-2.314326	-1.009535
S	0.542088	-2.295487	1.450945
C	-0.000000	-1.435180	-0.000000
H	-0.730999	-1.993211	-1.993920
H	-0.046991	-9.615985	-0.262047
C	0.000000	0.000000	0.000000
S	0.579852	0.687566	1.510732
C	1.591625	1.895024	0.727629
C	0.583771	0.695758	-1.064665
C	1.475308	1.760606	-0.678287
C	0.542366	0.643841	-2.486150
C	1.355286	1.612843	-3.106916
S	2.154609	2.570627	-1.965735
C	1.522440	1.804778	-4.559972
O	0.924684	1.087757	-5.350277
O	2.349739	2.785679	-5.004375
F	-0.170780	-0.212144	-3.246290
C	2.588082	3.053936	-6.334976
H	3.298799	3.899999	-6.370268
H	1.655291	3.328371	-6.875609
H	3.026021	2.177385	-6.861878
H	2.183053	2.599759	1.321510
$end

$rem
JOBTYPE		SP
EXCHANGE	HF
CORRELATION	pRIMP2
BASIS		cc-pvtz
METHOD		rimp2
AUX_BASIS	rimp2-cc-pvtz
SOLVENT_METHOD	PCM
PURECART	11111
SYMMETRY	false
MEM_TOTAL	110000
SCF_CONVERGENCE = 6
THRESH=10
GUI = 2
$end

$solvent
dielectric 4.90
$end
--------------------------------------------------------------

             Standard Nuclear Orientation (Angstroms)
    I     Atom           X                Y                Z
 ----------------------------------------------------------------
    1      C      -0.0465740000    -8.5197410000    -0.2680900000
    2      C       0.3268860000    -7.6359670000     0.7339200000
    3      S      -0.5957080000    -7.6517400000    -1.7223180000
    4      C       0.1932360000    -6.2618940000     0.3715160000
    5      H       0.6927000000    -7.9547380000     1.7181300000
    6      C      -0.2949580000    -6.0799850000    -0.9702830000
    7      C      -0.5154870000    -4.7983820000    -1.4982430000
    8      C       0.4773580000    -5.1535420000     1.2197250000
    9      C       0.2526550000    -3.8696260000     0.6929140000
   10      C      -0.2333660000    -3.6889270000    -0.6512890000
   11      O       0.9573690000    -5.4810750000     2.4516230000
   12      O      -0.9987690000    -4.4798710000    -2.7352640000
   13      C      -0.7520290000    -5.3560260000    -3.8283870000
   14      H      -1.0126750000    -4.7904960000    -4.7432130000
   15      H      -1.3863030000    -6.2685130000    -3.7886230000
   16      H       0.3164920000    -5.6581870000    -3.8772600000
   17      C       0.8819300000    -4.5469990000     3.5215800000
   18      H       1.1459690000    -5.1075640000     4.4382600000
   19      H      -0.1427120000    -4.1314730000     3.6318680000
   20      H       1.6056100000    -3.7120850000     3.3994250000
   21      C      -0.3679280000    -2.3143260000    -1.0095350000
   22      S       0.5420880000    -2.2954870000     1.4509450000
   23      C       0.0000000000    -1.4351800000     0.0000000000
   24      H      -0.7309990000    -1.9932110000    -1.9939200000
   25      H      -0.0469910000    -9.6159850000    -0.2620470000
   26      C       0.0000000000     0.0000000000     0.0000000000
   27      S       0.5798520000     0.6875660000     1.5107320000
   28      C       1.5916250000     1.8950240000     0.7276290000
   29      C       0.5837710000     0.6957580000    -1.0646650000
   30      C       1.4753080000     1.7606060000    -0.6782870000
   31      C       0.5423660000     0.6438410000    -2.4861500000
   32      C       1.3552860000     1.6128430000    -3.1069160000
   33      S       2.1546090000     2.5706270000    -1.9657350000
   34      C       1.5224400000     1.8047780000    -4.5599720000
   35      O       0.9246840000     1.0877570000    -5.3502770000
   36      O       2.3497390000     2.7856790000    -5.0043750000
   37      F      -0.1707800000    -0.2121440000    -3.2462900000
   38      C       2.5880820000     3.0539360000    -6.3349760000
   39      H       3.2987990000     3.8999990000    -6.3702680000
   40      H       1.6552910000     3.3283710000    -6.8756090000
   41      H       3.0260210000     2.1773850000    -6.8618780000
   42      H       2.1830530000     2.5997590000     1.3215100000
 ----------------------------------------------------------------

   10   -2754.2656914339      9.80e-07  Convergence criterion met
 Total energy in the final basis set =    -2754.2656914339
        RIMP2         total energy =     -2759.3315762161 a.u.

                    Orbital Energies (a.u.)
 --------------------------------------------------------------

 Alpha MOs
 -- Occupied --
-92.0168 -92.0010 -91.9886 -91.9843 -26.3373 -20.6142 -20.5917 -20.5880
-20.5537 -11.4135 -11.3781 -11.3179 -11.3131 -11.3081 -11.3049 -11.3004
-11.2995 -11.2957 -11.2896 -11.2894 -11.2870 -11.2837 -11.2821 -11.2813
-11.2768 -11.2588 -11.2552 -11.2485 -11.2444  -9.0158  -9.0048  -8.9893
 -8.9843  -6.6965  -6.6958  -6.6954  -6.6860  -6.6854  -6.6841  -6.6702
 -6.6695  -6.6685  -6.6653  -6.6646  -6.6638  -1.6512  -1.4742  -1.4157
 -1.4109  -1.3699  -1.2392  -1.1940  -1.1695  -1.1438  -1.0835  -1.0512
 -1.0492  -1.0313  -1.0006  -0.9926  -0.9748  -0.9591  -0.9491  -0.9379
 -0.8950  -0.8732  -0.8480  -0.8045  -0.7974  -0.7874  -0.7725  -0.7693
 -0.7554  -0.7301  -0.7222  -0.7187  -0.6996  -0.6916  -0.6824  -0.6803
 -0.6745  -0.6618  -0.6579  -0.6505  -0.6272  -0.6180  -0.6145  -0.6093
 -0.6030  -0.5998  -0.5881  -0.5746  -0.5666  -0.5608  -0.5543  -0.5427
 -0.5367  -0.5294  -0.5202  -0.5183  -0.5170  -0.5094  -0.5046  -0.4951
 -0.4875  -0.4836  -0.4740  -0.4673  -0.4631  -0.4609  -0.4586  -0.4236
 -0.3963  -0.3828  -0.3576  -0.3498  -0.3238  -0.2867  -0.2450

          Ground-State Mulliken Net Atomic Charges

     Atom                 Charge (a.u.)
  ----------------------------------------
      1 C                    -0.194187
      2 C                    -0.254316
      3 S                    -0.024708
      4 C                    -0.019945
      5 H                     0.195469
      6 C                    -0.026791
      7 C                     0.237266
      8 C                     0.243028
      9 C                    -0.050895
     10 C                    -0.014970
     11 O                    -0.333248
     12 O                    -0.340532
     13 C                    -0.085847
     14 H                     0.123175
     15 H                     0.090408
     16 H                     0.092825
     17 C                    -0.088290
     18 H                     0.125587
     19 H                     0.094539
     20 H                     0.089137
     21 C                    -0.266539
     22 S                    -0.029968
     23 C                    -0.018422
     24 H                     0.202618
     25 H                     0.205402
     26 C                    -0.030428
     27 S                     0.099524
     28 C                    -0.193235
     29 C                    -0.047528
     30 C                    -0.026397
     31 C                     0.356852
     32 C                    -0.122698
     33 S                     0.058741
     34 C                     0.455709
     35 O                    -0.444775
     36 O                    -0.297396
     37 F                    -0.211515
     38 C                    -0.054585
     39 H                     0.117145
     40 H                     0.085119
     41 H                     0.085034
     42 H                     0.219639
  ----------------------------------------
  Sum of atomic charges =     0.000000

                    Cartesian Multipole Moments
 -----------------------------------------------------------------
    Charge (ESU x 10^10)
                -0.0000
    Dipole Moment (Debye)
         X       3.3544      Y       2.6701      Z       3.0602
       Tot       5.2675
    Quadrupole Moments (Debye-Ang)
        XX    -193.9213     XY       7.5493     YY    -170.4444
        XZ      -4.8576     YZ      -8.7686     ZZ    -179.8493

 Total job time:  282.46s(wall), 9329.23s(cpu)
        *  Thank you very much for using Q-Chem.  Have a nice day.  *
