 Q-Chem 5.4, Q-Chem, Inc., Pleasanton, CA (2021)
 Q-Chem 5.4.0 for Intel X86 EM64T Linux

User input:
--------------------------------------------------------------
$molecule
0 1
C	-0.235306	-8.519741	-0.136647
C	0.772334	-7.635967	0.221346
S	-1.702286	-7.651740	-0.650746
C	0.408807	-6.261894	0.090779
H	1.761423	-7.954738	0.573754
C	-0.932876	-6.079985	-0.397735
C	-1.479069	-4.798382	-0.568166
C	1.241204	-5.153542	0.418347
C	0.693206	-3.869626	0.251852
C	-0.648921	-3.688927	-0.239872
O	2.493437	-5.481075	0.842486
O	-2.737331	-4.479871	-0.993092
C	-3.416110	-5.356026	-1.884752
H	-4.284447	-4.790496	-2.273124
H	-3.793352	-6.268513	-1.373310
H	-2.766716	-5.658187	-2.734702
C	3.264581	-4.546999	1.588030
H	4.136519	-5.107564	1.974995
H	2.690439	-4.131473	2.443843
H	3.636177	-3.712085	0.955140
C	-1.009848	-2.314326	-0.367068
S	1.459936	-2.295487	0.517386
C	-0.000000	-1.435180	-0.000000
H	-1.997308	-1.993211	-0.721689
H	-0.230945	-9.615985	-0.132444
C	0.000000	0.000000	0.000000
S	0.382139	0.814215	1.510732
C	1.046923	2.242395	0.727629
C	0.383804	0.823142	-1.064665
C	0.969360	2.082453	-0.678287
C	0.357247	0.762277	-2.486150
C	0.891671	1.908660	-3.106916
S	1.415865	3.040689	-1.965735
C	1.003453	2.137318	-4.559972
O	0.611644	1.290019	-5.350277
O	1.548687	3.298916	-5.004375
F	-0.110054	-0.249117	-3.246290
C	1.709479	3.619721	-6.334976
H	2.177001	4.620902	-6.370268
H	0.737443	3.643380	-6.875609
H	2.359363	2.886384	-6.861878
H	1.435800	3.076190	1.321510
$end

$rem
JOBTYPE		SP
EXCHANGE	HF
CORRELATION	pRIMP2
BASIS		cc-pvtz
METHOD		rimp2
AUX_BASIS	rimp2-cc-pvtz
SOLVENT_METHOD	PCM
PURECART	11111
SYMMETRY	false
MEM_TOTAL	110000
SCF_CONVERGENCE = 6
THRESH=10
GUI = 2
$end

$solvent
dielectric 4.90
$end
--------------------------------------------------------------

             Standard Nuclear Orientation (Angstroms)
    I     Atom           X                Y                Z
 ----------------------------------------------------------------
    1      C      -0.2353060000    -8.5197410000    -0.1366470000
    2      C       0.7723340000    -7.6359670000     0.2213460000
    3      S      -1.7022860000    -7.6517400000    -0.6507460000
    4      C       0.4088070000    -6.2618940000     0.0907790000
    5      H       1.7614230000    -7.9547380000     0.5737540000
    6      C      -0.9328760000    -6.0799850000    -0.3977350000
    7      C      -1.4790690000    -4.7983820000    -0.5681660000
    8      C       1.2412040000    -5.1535420000     0.4183470000
    9      C       0.6932060000    -3.8696260000     0.2518520000
   10      C      -0.6489210000    -3.6889270000    -0.2398720000
   11      O       2.4934370000    -5.4810750000     0.8424860000
   12      O      -2.7373310000    -4.4798710000    -0.9930920000
   13      C      -3.4161100000    -5.3560260000    -1.8847520000
   14      H      -4.2844470000    -4.7904960000    -2.2731240000
   15      H      -3.7933520000    -6.2685130000    -1.3733100000
   16      H      -2.7667160000    -5.6581870000    -2.7347020000
   17      C       3.2645810000    -4.5469990000     1.5880300000
   18      H       4.1365190000    -5.1075640000     1.9749950000
   19      H       2.6904390000    -4.1314730000     2.4438430000
   20      H       3.6361770000    -3.7120850000     0.9551400000
   21      C      -1.0098480000    -2.3143260000    -0.3670680000
   22      S       1.4599360000    -2.2954870000     0.5173860000
   23      C       0.0000000000    -1.4351800000     0.0000000000
   24      H      -1.9973080000    -1.9932110000    -0.7216890000
   25      H      -0.2309450000    -9.6159850000    -0.1324440000
   26      C       0.0000000000     0.0000000000     0.0000000000
   27      S       0.3821390000     0.8142150000     1.5107320000
   28      C       1.0469230000     2.2423950000     0.7276290000
   29      C       0.3838040000     0.8231420000    -1.0646650000
   30      C       0.9693600000     2.0824530000    -0.6782870000
   31      C       0.3572470000     0.7622770000    -2.4861500000
   32      C       0.8916710000     1.9086600000    -3.1069160000
   33      S       1.4158650000     3.0406890000    -1.9657350000
   34      C       1.0034530000     2.1373180000    -4.5599720000
   35      O       0.6116440000     1.2900190000    -5.3502770000
   36      O       1.5486870000     3.2989160000    -5.0043750000
   37      F      -0.1100540000    -0.2491170000    -3.2462900000
   38      C       1.7094790000     3.6197210000    -6.3349760000
   39      H       2.1770010000     4.6209020000    -6.3702680000
   40      H       0.7374430000     3.6433800000    -6.8756090000
   41      H       2.3593630000     2.8863840000    -6.8618780000
   42      H       1.4358000000     3.0761900000     1.3215100000
 ----------------------------------------------------------------

   10   -2754.2847449380      8.44e-07  Convergence criterion met
 Total energy in the final basis set =    -2754.2847449380
        RIMP2         total energy =     -2759.3409988897 a.u.

                    Orbital Energies (a.u.)
 --------------------------------------------------------------

 Alpha MOs
 -- Occupied --
-92.0157 -91.9960 -91.9895 -91.9861 -26.3337 -20.6125 -20.5923 -20.5909
-20.5510 -11.4111 -11.3768 -11.3189 -11.3175 -11.3038 -11.2994 -11.2987
-11.2964 -11.2921 -11.2887 -11.2872 -11.2856 -11.2854 -11.2847 -11.2835
-11.2796 -11.2598 -11.2588 -11.2556 -11.2497  -9.0140  -8.9999  -8.9899
 -8.9860  -6.6947  -6.6941  -6.6937  -6.6812  -6.6805  -6.6792  -6.6708
 -6.6701  -6.6691  -6.6670  -6.6663  -6.6655  -1.6466  -1.4724  -1.4164
 -1.4137  -1.3678  -1.2345  -1.1953  -1.1683  -1.1423  -1.0834  -1.0515
 -1.0479  -1.0282  -1.0018  -0.9927  -0.9718  -0.9610  -0.9503  -0.9379
 -0.8956  -0.8700  -0.8494  -0.8036  -0.7919  -0.7876  -0.7725  -0.7698
 -0.7573  -0.7321  -0.7181  -0.7150  -0.7009  -0.6893  -0.6824  -0.6789
 -0.6718  -0.6603  -0.6589  -0.6522  -0.6302  -0.6196  -0.6169  -0.6070
 -0.6023  -0.5960  -0.5849  -0.5779  -0.5670  -0.5627  -0.5555  -0.5472
 -0.5371  -0.5265  -0.5231  -0.5157  -0.5145  -0.5079  -0.5021  -0.4930
 -0.4902  -0.4847  -0.4733  -0.4698  -0.4619  -0.4617  -0.4612  -0.4100
 -0.3972  -0.3866  -0.3568  -0.3496  -0.3145  -0.2900  -0.2572

          Ground-State Mulliken Net Atomic Charges

     Atom                 Charge (a.u.)
  ----------------------------------------
      1 C                    -0.188148
      2 C                    -0.255065
      3 S                    -0.022184
      4 C                    -0.013588
      5 H                     0.196195
      6 C                    -0.027512
      7 C                     0.242629
      8 C                     0.240420
      9 C                    -0.043038
     10 C                    -0.026832
     11 O                    -0.333246
     12 O                    -0.339824
     13 C                    -0.085538
     14 H                     0.122705
     15 H                     0.090531
     16 H                     0.094546
     17 C                    -0.086664
     18 H                     0.124998
     19 H                     0.094285
     20 H                     0.089843
     21 C                    -0.214971
     22 S                    -0.000991
     23 C                    -0.070667
     24 H                     0.195968
     25 H                     0.206400
     26 C                    -0.006072
     27 S                     0.116298
     28 C                    -0.223073
     29 C                    -0.084933
     30 C                    -0.003113
     31 C                     0.365410
     32 C                    -0.149015
     33 S                     0.044346
     34 C                     0.458376
     35 O                    -0.447945
     36 O                    -0.297717
     37 F                    -0.209679
     38 C                    -0.054809
     39 H                     0.116680
     40 H                     0.084676
     41 H                     0.084728
     42 H                     0.215590
  ----------------------------------------
  Sum of atomic charges =     0.000000

                    Cartesian Multipole Moments
 -----------------------------------------------------------------
    Charge (ESU x 10^10)
                -0.0000
    Dipole Moment (Debye)
         X       1.8347      Y       1.7155      Z       2.9457
       Tot       3.8712
    Quadrupole Moments (Debye-Ang)
        XX    -181.2215     XY       6.1546     YY    -161.9510
        XZ       6.8679     YZ      -8.3519     ZZ    -198.2901

 Total job time:  313.49s(wall), 10376.65s(cpu)
        *  Thank you very much for using Q-Chem.  Have a nice day.  *
