 Q-Chem 5.4, Q-Chem, Inc., Pleasanton, CA (2021)
 Q-Chem 5.4.0 for Intel X86 EM64T Linux

User input:
--------------------------------------------------------------
$molecule
0 1
C	0.268090	-8.519741	-0.046574
C	-0.733920	-7.635967	0.326886
S	1.722318	-7.651740	-0.595708
C	-0.371516	-6.261894	0.193236
H	-1.718130	-7.954738	0.692700
C	0.970283	-6.079985	-0.294958
C	1.498243	-4.798382	-0.515487
C	-1.219725	-5.153542	0.477358
C	-0.692914	-3.869626	0.252655
C	0.651289	-3.688927	-0.233366
O	-2.451623	-5.481075	0.957369
O	2.735264	-4.479871	-0.998769
C	3.828387	-5.356026	-0.752029
H	4.743213	-4.790496	-1.012675
H	3.788623	-6.268513	-1.386303
H	3.877260	-5.658187	0.316492
C	-3.521580	-4.546999	0.881930
H	-4.438260	-5.107564	1.145969
H	-3.631868	-4.131473	-0.142712
H	-3.399425	-3.712085	1.605610
C	1.009535	-2.314326	-0.367928
S	-1.450945	-2.295487	0.542088
C	0.000000	-1.435180	0.000000
H	1.993920	-1.993211	-0.730999
H	0.262047	-9.615985	-0.046991
C	0.000000	0.000000	0.000000
S	0.234946	0.868203	1.510732
C	0.641630	2.390125	0.727629
C	0.235036	0.877284	-1.064665
C	0.593019	2.219143	-0.678287
C	0.219452	0.812732	-2.486150
C	0.546689	2.034501	-3.106916
S	0.866345	3.240357	-1.965735
C	0.617067	2.279095	-4.559972
O	0.378342	1.376631	-5.350277
O	0.952308	3.517725	-5.004375
F	-0.065123	-0.264443	-3.246290
C	1.054950	3.861577	-6.334976
H	1.341516	4.928732	-6.370268
H	0.093573	3.716085	-6.875609
H	1.822303	3.252232	-6.861878
H	0.879812	3.278780	1.321510
$end

$rem
JOBTYPE		SP
EXCHANGE	HF
CORRELATION	pRIMP2
BASIS		cc-pvtz
METHOD		rimp2
AUX_BASIS	rimp2-cc-pvtz
SOLVENT_METHOD	PCM
PURECART	11111
SYMMETRY	false
MEM_TOTAL	110000
SCF_CONVERGENCE = 6
THRESH=10
GUI = 2
$end

$solvent
dielectric 4.90
$end
--------------------------------------------------------------

             Standard Nuclear Orientation (Angstroms)
    I     Atom           X                Y                Z
 ----------------------------------------------------------------
    1      C       0.2680900000    -8.5197410000    -0.0465740000
    2      C      -0.7339200000    -7.6359670000     0.3268860000
    3      S       1.7223180000    -7.6517400000    -0.5957080000
    4      C      -0.3715160000    -6.2618940000     0.1932360000
    5      H      -1.7181300000    -7.9547380000     0.6927000000
    6      C       0.9702830000    -6.0799850000    -0.2949580000
    7      C       1.4982430000    -4.7983820000    -0.5154870000
    8      C      -1.2197250000    -5.1535420000     0.4773580000
    9      C      -0.6929140000    -3.8696260000     0.2526550000
   10      C       0.6512890000    -3.6889270000    -0.2333660000
   11      O      -2.4516230000    -5.4810750000     0.9573690000
   12      O       2.7352640000    -4.4798710000    -0.9987690000
   13      C       3.8283870000    -5.3560260000    -0.7520290000
   14      H       4.7432130000    -4.7904960000    -1.0126750000
   15      H       3.7886230000    -6.2685130000    -1.3863030000
   16      H       3.8772600000    -5.6581870000     0.3164920000
   17      C      -3.5215800000    -4.5469990000     0.8819300000
   18      H      -4.4382600000    -5.1075640000     1.1459690000
   19      H      -3.6318680000    -4.1314730000    -0.1427120000
   20      H      -3.3994250000    -3.7120850000     1.6056100000
   21      C       1.0095350000    -2.3143260000    -0.3679280000
   22      S      -1.4509450000    -2.2954870000     0.5420880000
   23      C       0.0000000000    -1.4351800000     0.0000000000
   24      H       1.9939200000    -1.9932110000    -0.7309990000
   25      H       0.2620470000    -9.6159850000    -0.0469910000
   26      C       0.0000000000     0.0000000000     0.0000000000
   27      S       0.2349460000     0.8682030000     1.5107320000
   28      C       0.6416300000     2.3901250000     0.7276290000
   29      C       0.2350360000     0.8772840000    -1.0646650000
   30      C       0.5930190000     2.2191430000    -0.6782870000
   31      C       0.2194520000     0.8127320000    -2.4861500000
   32      C       0.5466890000     2.0345010000    -3.1069160000
   33      S       0.8663450000     3.2403570000    -1.9657350000
   34      C       0.6170670000     2.2790950000    -4.5599720000
   35      O       0.3783420000     1.3766310000    -5.3502770000
   36      O       0.9523080000     3.5177250000    -5.0043750000
   37      F      -0.0651230000    -0.2644430000    -3.2462900000
   38      C       1.0549500000     3.8615770000    -6.3349760000
   39      H       1.3415160000     4.9287320000    -6.3702680000
   40      H       0.0935730000     3.7160850000    -6.8756090000
   41      H       1.8223030000     3.2522320000    -6.8618780000
   42      H       0.8798120000     3.2787800000     1.3215100000
 ----------------------------------------------------------------

   10   -2754.2919872434      8.64e-07  Convergence criterion met
 Total energy in the final basis set =    -2754.2919872434
        RIMP2         total energy =     -2759.3456041743 a.u.

                    Orbital Energies (a.u.)
 --------------------------------------------------------------

 Alpha MOs
 -- Occupied --
-92.0158 -91.9947 -91.9894 -91.9865 -26.3336 -20.6121 -20.5924 -20.5917
-20.5502 -11.4104 -11.3771 -11.3193 -11.3186 -11.3077 -11.2977 -11.2964
-11.2952 -11.2937 -11.2884 -11.2870 -11.2864 -11.2861 -11.2841 -11.2834
-11.2802 -11.2611 -11.2595 -11.2590 -11.2501  -9.0140  -8.9988  -8.9898
 -8.9864  -6.6947  -6.6942  -6.6937  -6.6800  -6.6794  -6.6780  -6.6707
 -6.6700  -6.6691  -6.6674  -6.6668  -6.6659  -1.6465  -1.4718  -1.4166
 -1.4144  -1.3671  -1.2334  -1.1960  -1.1683  -1.1418  -1.0840  -1.0522
 -1.0475  -1.0276  -1.0023  -0.9932  -0.9713  -0.9613  -0.9505  -0.9385
 -0.8959  -0.8692  -0.8502  -0.8039  -0.7917  -0.7880  -0.7733  -0.7698
 -0.7580  -0.7327  -0.7181  -0.7148  -0.7016  -0.6888  -0.6831  -0.6784
 -0.6711  -0.6606  -0.6589  -0.6527  -0.6304  -0.6202  -0.6169  -0.6064
 -0.6022  -0.5947  -0.5825  -0.5772  -0.5712  -0.5652  -0.5532  -0.5519
 -0.5345  -0.5263  -0.5247  -0.5163  -0.5142  -0.5077  -0.5015  -0.4954
 -0.4901  -0.4844  -0.4755  -0.4681  -0.4616  -0.4612  -0.4604  -0.4086
 -0.3988  -0.3876  -0.3588  -0.3479  -0.3168  -0.2885  -0.2577

          Ground-State Mulliken Net Atomic Charges

     Atom                 Charge (a.u.)
  ----------------------------------------
      1 C                    -0.187446
      2 C                    -0.254323
      3 S                    -0.021305
      4 C                    -0.014540
      5 H                     0.196427
      6 C                    -0.028812
      7 C                     0.243398
      8 C                     0.242738
      9 C                    -0.053284
     10 C                    -0.023662
     11 O                    -0.333439
     12 O                    -0.339485
     13 C                    -0.085711
     14 H                     0.122755
     15 H                     0.091333
     16 H                     0.093783
     17 C                    -0.086441
     18 H                     0.124820
     19 H                     0.095331
     20 H                     0.089218
     21 C                    -0.204094
     22 S                    -0.000414
     23 C                    -0.022070
     24 H                     0.198751
     25 H                     0.206592
     26 C                    -0.052223
     27 S                     0.119049
     28 C                    -0.234658
     29 C                    -0.108617
     30 C                    -0.005261
     31 C                     0.399476
     32 C                    -0.155364
     33 S                     0.038922
     34 C                     0.460850
     35 O                    -0.449462
     36 O                    -0.297813
     37 F                    -0.211180
     38 C                    -0.054960
     39 H                     0.116532
     40 H                     0.084691
     41 H                     0.084524
     42 H                     0.215374
  ----------------------------------------
  Sum of atomic charges =     0.000000

                    Cartesian Multipole Moments
 -----------------------------------------------------------------
    Charge (ESU x 10^10)
                -0.0000
    Dipole Moment (Debye)
         X       1.0276      Y       1.5392      Z       3.4766
       Tot       3.9385
    Quadrupole Moments (Debye-Ang)
        XX    -175.6870     XY       3.0299     YY    -159.4177
        XZ      -5.7817     YZ     -11.5607     ZZ    -206.1697

 Total job time:  293.26s(wall), 9510.99s(cpu)
        *  Thank you very much for using Q-Chem.  Have a nice day.  *
