 Q-Chem 5.4, Q-Chem, Inc., Pleasanton, CA (2021)
 Q-Chem 5.4.0 for Intel X86 EM64T Linux

User input:
--------------------------------------------------------------
$molecule
0 1
C	-0.208886	-8.519741	0.174379
C	0.472151	-7.635967	-0.650052
S	-1.193717	-7.651740	1.377058
C	0.225125	-6.261894	-0.353105
H	1.141594	-7.954738	-1.458961
C	-0.692811	-6.079985	0.740583
C	-1.039773	-4.798382	1.195546
C	0.817634	-5.153542	-1.023267
C	0.473754	-3.869626	-0.565262
C	-0.447350	-3.688927	0.527745
O	1.644483	-5.481075	-2.054917
O	-1.869424	-4.479871	2.232592
C	-2.939466	-5.356026	2.565470
H	-3.601405	-4.790496	3.248608
H	-2.587892	-6.268513	3.094885
H	-3.516052	-5.658187	1.664539
C	2.608813	-4.546999	-2.524564
H	3.270661	-5.107564	-3.211568
H	3.216646	-4.131473	-1.692342
H	2.141184	-3.712085	-3.090211
C	-0.690319	-2.314326	0.823402
S	0.985511	-2.295487	-1.194935
C	0.000000	-1.435180	0.000000
H	-1.361286	-1.993211	1.630024
H	-0.203444	-9.615985	0.171719
C	0.000000	0.000000	0.000000
S	0.780044	0.447780	1.510732
C	2.143774	1.236372	0.727629
C	0.786529	0.454137	-1.064665
C	1.988499	1.149844	-0.678287
C	0.729864	0.419512	-2.486150
C	1.825177	1.052041	-3.106916
S	2.903877	1.678680	-1.965735
C	2.047896	1.175232	-4.559972
O	1.240953	0.705897	-5.350277
O	3.160791	1.814024	-5.004375
F	-0.233039	-0.140940	-3.246290
C	3.476510	1.984585	-6.334976
H	4.433735	2.536545	-6.370268
H	2.693835	2.561503	-6.875609
H	3.588239	1.011113	-6.861878
H	2.940569	1.696327	1.321510
$end

$rem
JOBTYPE		SP
EXCHANGE	HF
CORRELATION	pRIMP2
BASIS		cc-pvtz
METHOD		rimp2
AUX_BASIS	rimp2-cc-pvtz
SOLVENT_METHOD	PCM
PURECART	11111
SYMMETRY	false
MEM_TOTAL	110000
SCF_CONVERGENCE = 6
THRESH=10
GUI = 2
$end

$solvent
dielectric 4.90
$end
--------------------------------------------------------------

             Standard Nuclear Orientation (Angstroms)
    I     Atom           X                Y                Z
 ----------------------------------------------------------------
    1      C      -0.2088860000    -8.5197410000     0.1743790000
    2      C       0.4721510000    -7.6359670000    -0.6500520000
    3      S      -1.1937170000    -7.6517400000     1.3770580000
    4      C       0.2251250000    -6.2618940000    -0.3531050000
    5      H       1.1415940000    -7.9547380000    -1.4589610000
    6      C      -0.6928110000    -6.0799850000     0.7405830000
    7      C      -1.0397730000    -4.7983820000     1.1955460000
    8      C       0.8176340000    -5.1535420000    -1.0232670000
    9      C       0.4737540000    -3.8696260000    -0.5652620000
   10      C      -0.4473500000    -3.6889270000     0.5277450000
   11      O       1.6444830000    -5.4810750000    -2.0549170000
   12      O      -1.8694240000    -4.4798710000     2.2325920000
   13      C      -2.9394660000    -5.3560260000     2.5654700000
   14      H      -3.6014050000    -4.7904960000     3.2486080000
   15      H      -2.5878920000    -6.2685130000     3.0948850000
   16      H      -3.5160520000    -5.6581870000     1.6645390000
   17      C       2.6088130000    -4.5469990000    -2.5245640000
   18      H       3.2706610000    -5.1075640000    -3.2115680000
   19      H       3.2166460000    -4.1314730000    -1.6923420000
   20      H       2.1411840000    -3.7120850000    -3.0902110000
   21      C      -0.6903190000    -2.3143260000     0.8234020000
   22      S       0.9855110000    -2.2954870000    -1.1949350000
   23      C       0.0000000000    -1.4351800000     0.0000000000
   24      H      -1.3612860000    -1.9932110000     1.6300240000
   25      H      -0.2034440000    -9.6159850000     0.1717190000
   26      C       0.0000000000     0.0000000000     0.0000000000
   27      S       0.7800440000     0.4477800000     1.5107320000
   28      C       2.1437740000     1.2363720000     0.7276290000
   29      C       0.7865290000     0.4541370000    -1.0646650000
   30      C       1.9884990000     1.1498440000    -0.6782870000
   31      C       0.7298640000     0.4195120000    -2.4861500000
   32      C       1.8251770000     1.0520410000    -3.1069160000
   33      S       2.9038770000     1.6786800000    -1.9657350000
   34      C       2.0478960000     1.1752320000    -4.5599720000
   35      O       1.2409530000     0.7058970000    -5.3502770000
   36      O       3.1607910000     1.8140240000    -5.0043750000
   37      F      -0.2330390000    -0.1409400000    -3.2462900000
   38      C       3.4765100000     1.9845850000    -6.3349760000
   39      H       4.4337350000     2.5365450000    -6.3702680000
   40      H       2.6938350000     2.5615030000    -6.8756090000
   41      H       3.5882390000     1.0111130000    -6.8618780000
   42      H       2.9405690000     1.6963270000     1.3215100000
 ----------------------------------------------------------------

   11   -2754.2278624057      5.92e-07  Convergence criterion met
 Total energy in the final basis set =    -2754.2278624057
        RIMP2         total energy =     -2759.3038361284 a.u.

                    Orbital Energies (a.u.)
 --------------------------------------------------------------

 Alpha MOs
 -- Occupied --
-92.0196 -92.0088 -91.9847 -91.9821 -26.3349 -20.6169 -20.5903 -20.5860
-20.5582 -11.4175 -11.3784 -11.3291 -11.3162 -11.3138 -11.3081 -11.3034
-11.2966 -11.2939 -11.2911 -11.2858 -11.2832 -11.2802 -11.2768 -11.2755
-11.2736 -11.2563 -11.2507 -11.2468 -11.2336  -9.0184  -9.0122  -8.9857
 -8.9821  -6.6989  -6.6980  -6.6979  -6.6933  -6.6927  -6.6915  -6.6666
 -6.6658  -6.6649  -6.6631  -6.6625  -6.6616  -1.6484  -1.4771  -1.4141
 -1.4089  -1.3733  -1.2474  -1.1915  -1.1705  -1.1446  -1.0857  -1.0523
 -1.0460  -1.0354  -0.9985  -0.9912  -0.9771  -0.9568  -0.9476  -0.9395
 -0.8916  -0.8779  -0.8426  -0.8085  -0.7955  -0.7861  -0.7783  -0.7627
 -0.7526  -0.7293  -0.7201  -0.7156  -0.6983  -0.6919  -0.6826  -0.6790
 -0.6774  -0.6649  -0.6563  -0.6493  -0.6264  -0.6163  -0.6151  -0.6129
 -0.6103  -0.6008  -0.5795  -0.5758  -0.5656  -0.5597  -0.5536  -0.5478
 -0.5327  -0.5291  -0.5213  -0.5173  -0.5128  -0.5063  -0.5038  -0.4955
 -0.4906  -0.4833  -0.4699  -0.4686  -0.4650  -0.4642  -0.4557  -0.4114
 -0.3949  -0.3818  -0.3616  -0.3446  -0.3222  -0.2899  -0.2445

          Ground-State Mulliken Net Atomic Charges

     Atom                 Charge (a.u.)
  ----------------------------------------
      1 C                    -0.201168
      2 C                    -0.252429
      3 S                    -0.030090
      4 C                    -0.029161
      5 H                     0.194949
      6 C                    -0.022725
      7 C                     0.222073
      8 C                     0.247128
      9 C                    -0.049999
     10 C                     0.007542
     11 O                    -0.332910
     12 O                    -0.341847
     13 C                    -0.085323
     14 H                     0.120670
     15 H                     0.089627
     16 H                     0.092651
     17 C                    -0.088947
     18 H                     0.125468
     19 H                     0.093122
     20 H                     0.090387
     21 C                    -0.328672
     22 S                    -0.039525
     23 C                     0.057572
     24 H                     0.186078
     25 H                     0.204192
     26 C                    -0.172019
     27 S                     0.154191
     28 C                    -0.140192
     29 C                    -0.032048
     30 C                    -0.028905
     31 C                     0.355777
     32 C                    -0.119078
     33 S                     0.082228
     34 C                     0.458929
     35 O                    -0.436961
     36 O                    -0.296667
     37 F                    -0.211163
     38 C                    -0.054685
     39 H                     0.117690
     40 H                     0.086173
     41 H                     0.085754
     42 H                     0.222312
  ----------------------------------------
  Sum of atomic charges =     0.000000

                    Cartesian Multipole Moments
 -----------------------------------------------------------------
    Charge (ESU x 10^10)
                -0.0000
    Dipole Moment (Debye)
         X       5.5805      Y       3.3218      Z       2.0545
       Tot       6.8116
    Quadrupole Moments (Debye-Ang)
        XX    -169.9709     XY       9.4845     YY    -182.8514
        XZ     -22.5612     YZ      -4.0644     ZZ    -193.0098

 Total job time:  307.52s(wall), 10046.08s(cpu)
        *  Thank you very much for using Q-Chem.  Have a nice day.  *
