 Q-Chem 5.4, Q-Chem, Inc., Pleasanton, CA (2021)
 Q-Chem 5.4.0 for Intel X86 EM64T Linux

User input:
--------------------------------------------------------------
$molecule
0 1
C	-0.208886	-8.519741	0.174379
C	0.472151	-7.635967	-0.650052
S	-1.193717	-7.651740	1.377058
C	0.225125	-6.261894	-0.353105
H	1.141594	-7.954738	-1.458961
C	-0.692811	-6.079985	0.740583
C	-1.039773	-4.798382	1.195546
C	0.817634	-5.153542	-1.023267
C	0.473754	-3.869626	-0.565262
C	-0.447350	-3.688927	0.527745
O	1.644483	-5.481075	-2.054917
O	-1.869424	-4.479871	2.232592
C	-2.939466	-5.356026	2.565470
H	-3.601405	-4.790496	3.248608
H	-2.587892	-6.268513	3.094885
H	-3.516052	-5.658187	1.664539
C	2.608813	-4.546999	-2.524564
H	3.270661	-5.107564	-3.211568
H	3.216646	-4.131473	-1.692342
H	2.141184	-3.712085	-3.090211
C	-0.690319	-2.314326	0.823402
S	0.985511	-2.295487	-1.194935
C	0.000000	-1.435180	0.000000
H	-1.361286	-1.993211	1.630024
H	-0.203444	-9.615985	0.171719
C	0.000000	0.000000	0.000000
S	0.234946	0.868203	1.510732
C	0.641630	2.390125	0.727629
C	0.235036	0.877284	-1.064665
C	0.593019	2.219143	-0.678287
C	0.219452	0.812732	-2.486150
C	0.546689	2.034501	-3.106916
S	0.866345	3.240357	-1.965735
C	0.617067	2.279095	-4.559972
O	0.378342	1.376631	-5.350277
O	0.952308	3.517725	-5.004375
F	-0.065123	-0.264443	-3.246290
C	1.054950	3.861577	-6.334976
H	1.341516	4.928732	-6.370268
H	0.093573	3.716085	-6.875609
H	1.822303	3.252232	-6.861878
H	0.879812	3.278780	1.321510
$end

$rem
JOBTYPE		SP
EXCHANGE	HF
CORRELATION	pRIMP2
BASIS		cc-pvtz
METHOD		rimp2
AUX_BASIS	rimp2-cc-pvtz
SOLVENT_METHOD	PCM
PURECART	11111
SYMMETRY	false
MEM_TOTAL	110000
SCF_CONVERGENCE = 6
THRESH=10
GUI = 2
$end

$solvent
dielectric 4.90
$end
--------------------------------------------------------------

             Standard Nuclear Orientation (Angstroms)
    I     Atom           X                Y                Z
 ----------------------------------------------------------------
    1      C      -0.2088860000    -8.5197410000     0.1743790000
    2      C       0.4721510000    -7.6359670000    -0.6500520000
    3      S      -1.1937170000    -7.6517400000     1.3770580000
    4      C       0.2251250000    -6.2618940000    -0.3531050000
    5      H       1.1415940000    -7.9547380000    -1.4589610000
    6      C      -0.6928110000    -6.0799850000     0.7405830000
    7      C      -1.0397730000    -4.7983820000     1.1955460000
    8      C       0.8176340000    -5.1535420000    -1.0232670000
    9      C       0.4737540000    -3.8696260000    -0.5652620000
   10      C      -0.4473500000    -3.6889270000     0.5277450000
   11      O       1.6444830000    -5.4810750000    -2.0549170000
   12      O      -1.8694240000    -4.4798710000     2.2325920000
   13      C      -2.9394660000    -5.3560260000     2.5654700000
   14      H      -3.6014050000    -4.7904960000     3.2486080000
   15      H      -2.5878920000    -6.2685130000     3.0948850000
   16      H      -3.5160520000    -5.6581870000     1.6645390000
   17      C       2.6088130000    -4.5469990000    -2.5245640000
   18      H       3.2706610000    -5.1075640000    -3.2115680000
   19      H       3.2166460000    -4.1314730000    -1.6923420000
   20      H       2.1411840000    -3.7120850000    -3.0902110000
   21      C      -0.6903190000    -2.3143260000     0.8234020000
   22      S       0.9855110000    -2.2954870000    -1.1949350000
   23      C       0.0000000000    -1.4351800000     0.0000000000
   24      H      -1.3612860000    -1.9932110000     1.6300240000
   25      H      -0.2034440000    -9.6159850000     0.1717190000
   26      C       0.0000000000     0.0000000000     0.0000000000
   27      S       0.2349460000     0.8682030000     1.5107320000
   28      C       0.6416300000     2.3901250000     0.7276290000
   29      C       0.2350360000     0.8772840000    -1.0646650000
   30      C       0.5930190000     2.2191430000    -0.6782870000
   31      C       0.2194520000     0.8127320000    -2.4861500000
   32      C       0.5466890000     2.0345010000    -3.1069160000
   33      S       0.8663450000     3.2403570000    -1.9657350000
   34      C       0.6170670000     2.2790950000    -4.5599720000
   35      O       0.3783420000     1.3766310000    -5.3502770000
   36      O       0.9523080000     3.5177250000    -5.0043750000
   37      F      -0.0651230000    -0.2644430000    -3.2462900000
   38      C       1.0549500000     3.8615770000    -6.3349760000
   39      H       1.3415160000     4.9287320000    -6.3702680000
   40      H       0.0935730000     3.7160850000    -6.8756090000
   41      H       1.8223030000     3.2522320000    -6.8618780000
   42      H       0.8798120000     3.2787800000     1.3215100000
 ----------------------------------------------------------------

   10   -2754.2930905111      8.28e-07  Convergence criterion met
 Total energy in the final basis set =    -2754.2930905111
        RIMP2         total energy =     -2759.3487085321 a.u.

                    Orbital Energies (a.u.)
 --------------------------------------------------------------

 Alpha MOs
 -- Occupied --
-92.0161 -91.9952 -91.9889 -91.9864 -26.3338 -20.6120 -20.5919 -20.5919
-20.5499 -11.4103 -11.3778 -11.3191 -11.3183 -11.3109 -11.2974 -11.2972
-11.2958 -11.2943 -11.2885 -11.2865 -11.2864 -11.2864 -11.2840 -11.2824
-11.2800 -11.2614 -11.2593 -11.2578 -11.2500  -9.0143  -8.9992  -8.9894
 -8.9864  -6.6950  -6.6944  -6.6940  -6.6805  -6.6798  -6.6785  -6.6703
 -6.6696  -6.6687  -6.6673  -6.6667  -6.6659  -1.6476  -1.4718  -1.4161
 -1.4145  -1.3671  -1.2342  -1.1962  -1.1688  -1.1422  -1.0846  -1.0523
 -1.0477  -1.0283  -1.0025  -0.9934  -0.9719  -0.9610  -0.9503  -0.9386
 -0.8960  -0.8695  -0.8509  -0.8079  -0.7921  -0.7873  -0.7750  -0.7649
 -0.7582  -0.7327  -0.7187  -0.7157  -0.7006  -0.6885  -0.6834  -0.6785
 -0.6718  -0.6615  -0.6589  -0.6526  -0.6293  -0.6200  -0.6168  -0.6065
 -0.6026  -0.5948  -0.5853  -0.5748  -0.5690  -0.5649  -0.5577  -0.5522
 -0.5321  -0.5266  -0.5250  -0.5162  -0.5148  -0.5084  -0.5017  -0.4964
 -0.4883  -0.4841  -0.4776  -0.4677  -0.4616  -0.4613  -0.4595  -0.4179
 -0.3966  -0.3869  -0.3591  -0.3500  -0.3221  -0.2854  -0.2511

          Ground-State Mulliken Net Atomic Charges

     Atom                 Charge (a.u.)
  ----------------------------------------
      1 C                    -0.187696
      2 C                    -0.254423
      3 S                    -0.023033
      4 C                    -0.014497
      5 H                     0.196647
      6 C                    -0.027147
      7 C                     0.241476
      8 C                     0.240406
      9 C                    -0.042355
     10 C                    -0.010524
     11 O                    -0.333257
     12 O                    -0.339966
     13 C                    -0.085628
     14 H                     0.122455
     15 H                     0.091066
     16 H                     0.094454
     17 C                    -0.088426
     18 H                     0.125485
     19 H                     0.094197
     20 H                     0.091303
     21 C                    -0.261859
     22 S                    -0.007916
     23 C                     0.001067
     24 H                     0.194692
     25 H                     0.206583
     26 C                     0.019206
     27 S                     0.119699
     28 C                    -0.241370
     29 C                    -0.138893
     30 C                    -0.005093
     31 C                     0.379939
     32 C                    -0.146893
     33 S                     0.040418
     34 C                     0.461287
     35 O                    -0.450269
     36 O                    -0.298034
     37 F                    -0.208578
     38 C                    -0.054906
     39 H                     0.116615
     40 H                     0.084683
     41 H                     0.084341
     42 H                     0.214746
  ----------------------------------------
  Sum of atomic charges =     0.000000

                    Cartesian Multipole Moments
 -----------------------------------------------------------------
    Charge (ESU x 10^10)
                 0.0000
    Dipole Moment (Debye)
         X       0.8322      Y       1.5356      Z       2.9261
       Tot       3.4077
    Quadrupole Moments (Debye-Ang)
        XX    -184.5366     XY       5.2830     YY    -159.8816
        XZ     -15.0927     YZ      -9.2989     ZZ    -197.3026

 Total job time:  288.87s(wall), 9273.89s(cpu)
        *  Thank you very much for using Q-Chem.  Have a nice day.  *
