 Q-Chem 5.4, Q-Chem, Inc., Pleasanton, CA (2021)
 Q-Chem 5.4.0 for Intel X86 EM64T Linux

User input:
--------------------------------------------------------------
$molecule
0 1
C	0.208002	-8.519741	0.175432
C	-0.722164	-7.635967	-0.352097
S	1.563424	-7.651740	0.936458
C	-0.386833	-6.261894	-0.160388
H	-1.635031	-7.954738	-0.870905
C	0.849637	-6.079985	0.553685
C	1.357938	-4.798382	0.816372
C	-1.149702	-5.153542	-0.627524
C	-0.638941	-3.869626	-0.368399
C	0.597409	-3.688927	0.348912
O	-2.309260	-5.481075	-1.262667
O	2.523296	-4.479871	1.453338
C	3.036927	-5.356026	2.449320
H	3.824632	-4.790496	2.982577
H	3.497250	-6.268513	2.011155
H	2.249807	-5.658187	3.173591
C	-2.939226	-4.546999	-2.130793
H	-3.730721	-5.107564	-2.663289
H	-2.225196	-4.131473	-2.873906
H	-3.415077	-3.712085	-1.572045
C	0.930765	-2.314326	0.536849
S	-1.347913	-2.295487	-0.763041
C	0.000000	-1.435180	0.000000
H	1.841645	-1.993211	1.057554
H	0.204438	-9.615985	0.170535
C	0.000000	0.000000	0.000000
S	0.002233	0.899428	1.510732
C	0.001157	2.474749	0.727629
C	-0.000030	0.908223	-1.064665
C	-0.001545	2.297013	-0.678287
C	0.001624	0.841837	-2.486150
C	0.001494	2.106670	-3.106916
S	-0.001841	3.354171	-1.965735
C	0.006168	2.361146	-4.559972
O	0.009152	1.427646	-5.350277
O	0.009405	3.644337	-5.004375
F	0.005539	-0.272288	-3.246290
C	0.019554	4.003038	-6.334976
H	0.020155	5.108000	-6.370268
H	-0.871409	3.613681	-6.875609
H	0.918470	3.613062	-6.861878
H	0.001222	3.394771	1.321510
$end

$rem
JOBTYPE		SP
EXCHANGE	HF
CORRELATION	pRIMP2
BASIS		cc-pvtz
METHOD		rimp2
AUX_BASIS	rimp2-cc-pvtz
SOLVENT_METHOD	PCM
PURECART	11111
SYMMETRY	false
MEM_TOTAL	110000
SCF_CONVERGENCE = 6
THRESH=10
GUI = 2
$end

$solvent
dielectric 4.90
$end
--------------------------------------------------------------

             Standard Nuclear Orientation (Angstroms)
    I     Atom           X                Y                Z
 ----------------------------------------------------------------
    1      C       0.2080020000    -8.5197410000     0.1754320000
    2      C      -0.7221640000    -7.6359670000    -0.3520970000
    3      S       1.5634240000    -7.6517400000     0.9364580000
    4      C      -0.3868330000    -6.2618940000    -0.1603880000
    5      H      -1.6350310000    -7.9547380000    -0.8709050000
    6      C       0.8496370000    -6.0799850000     0.5536850000
    7      C       1.3579380000    -4.7983820000     0.8163720000
    8      C      -1.1497020000    -5.1535420000    -0.6275240000
    9      C      -0.6389410000    -3.8696260000    -0.3683990000
   10      C       0.5974090000    -3.6889270000     0.3489120000
   11      O      -2.3092600000    -5.4810750000    -1.2626670000
   12      O       2.5232960000    -4.4798710000     1.4533380000
   13      C       3.0369270000    -5.3560260000     2.4493200000
   14      H       3.8246320000    -4.7904960000     2.9825770000
   15      H       3.4972500000    -6.2685130000     2.0111550000
   16      H       2.2498070000    -5.6581870000     3.1735910000
   17      C      -2.9392260000    -4.5469990000    -2.1307930000
   18      H      -3.7307210000    -5.1075640000    -2.6632890000
   19      H      -2.2251960000    -4.1314730000    -2.8739060000
   20      H      -3.4150770000    -3.7120850000    -1.5720450000
   21      C       0.9307650000    -2.3143260000     0.5368490000
   22      S      -1.3479130000    -2.2954870000    -0.7630410000
   23      C       0.0000000000    -1.4351800000     0.0000000000
   24      H       1.8416450000    -1.9932110000     1.0575540000
   25      H       0.2044380000    -9.6159850000     0.1705350000
   26      C       0.0000000000     0.0000000000     0.0000000000
   27      S       0.0022330000     0.8994280000     1.5107320000
   28      C       0.0011570000     2.4747490000     0.7276290000
   29      C      -0.0000300000     0.9082230000    -1.0646650000
   30      C      -0.0015450000     2.2970130000    -0.6782870000
   31      C       0.0016240000     0.8418370000    -2.4861500000
   32      C       0.0014940000     2.1066700000    -3.1069160000
   33      S      -0.0018410000     3.3541710000    -1.9657350000
   34      C       0.0061680000     2.3611460000    -4.5599720000
   35      O       0.0091520000     1.4276460000    -5.3502770000
   36      O       0.0094050000     3.6443370000    -5.0043750000
   37      F       0.0055390000    -0.2722880000    -3.2462900000
   38      C       0.0195540000     4.0030380000    -6.3349760000
   39      H       0.0201550000     5.1080000000    -6.3702680000
   40      H      -0.8714090000     3.6136810000    -6.8756090000
   41      H       0.9184700000     3.6130620000    -6.8618780000
   42      H       0.0012220000     3.3947710000     1.3215100000
 ----------------------------------------------------------------

   10   -2754.2969707753      8.56e-07  Convergence criterion met
 Total energy in the final basis set =    -2754.2969707753
        RIMP2         total energy =     -2759.3496083653 a.u.

                    Orbital Energies (a.u.)
 --------------------------------------------------------------

 Alpha MOs
 -- Occupied --
-92.0167 -91.9943 -91.9899 -91.9868 -26.3338 -20.6118 -20.5922 -20.5922
-20.5496 -11.4099 -11.3773 -11.3194 -11.3191 -11.3113 -11.2965 -11.2963
-11.2949 -11.2925 -11.2883 -11.2870 -11.2866 -11.2865 -11.2843 -11.2820
-11.2804 -11.2615 -11.2599 -11.2599 -11.2502  -9.0147  -8.9983  -8.9902
 -8.9867  -6.6954  -6.6949  -6.6944  -6.6796  -6.6789  -6.6776  -6.6711
 -6.6704  -6.6695  -6.6676  -6.6670  -6.6662  -1.6469  -1.4715  -1.4164
 -1.4149  -1.3668  -1.2330  -1.1965  -1.1686  -1.1417  -1.0844  -1.0525
 -1.0472  -1.0276  -1.0027  -0.9935  -0.9712  -0.9615  -0.9505  -0.9385
 -0.8960  -0.8689  -0.8512  -0.8067  -0.7904  -0.7882  -0.7747  -0.7665
 -0.7587  -0.7330  -0.7180  -0.7151  -0.7011  -0.6883  -0.6836  -0.6783
 -0.6709  -0.6611  -0.6588  -0.6529  -0.6307  -0.6204  -0.6171  -0.6061
 -0.6016  -0.5941  -0.5843  -0.5762  -0.5704  -0.5674  -0.5561  -0.5515
 -0.5327  -0.5266  -0.5235  -0.5170  -0.5149  -0.5079  -0.5016  -0.4937
 -0.4901  -0.4836  -0.4787  -0.4680  -0.4617  -0.4607  -0.4606  -0.4110
 -0.3992  -0.3872  -0.3579  -0.3495  -0.3186  -0.2873  -0.2563

          Ground-State Mulliken Net Atomic Charges

     Atom                 Charge (a.u.)
  ----------------------------------------
      1 C                    -0.186826
      2 C                    -0.254203
      3 S                    -0.021584
      4 C                    -0.012681
      5 H                     0.196688
      6 C                    -0.028008
      7 C                     0.246056
      8 C                     0.240172
      9 C                    -0.044975
     10 C                    -0.030552
     11 O                    -0.333423
     12 O                    -0.340021
     13 C                    -0.085775
     14 H                     0.122650
     15 H                     0.091428
     16 H                     0.094106
     17 C                    -0.087305
     18 H                     0.124670
     19 H                     0.096496
     20 H                     0.089488
     21 C                    -0.228982
     22 S                     0.000481
     23 C                    -0.029657
     24 H                     0.198607
     25 H                     0.206705
     26 C                    -0.011273
     27 S                     0.116364
     28 C                    -0.242639
     29 C                    -0.103064
     30 C                    -0.006764
     31 C                     0.396033
     32 C                    -0.155049
     33 S                     0.036722
     34 C                     0.460710
     35 O                    -0.451027
     36 O                    -0.297923
     37 F                    -0.210894
     38 C                    -0.055009
     39 H                     0.116520
     40 H                     0.084407
     41 H                     0.084489
     42 H                     0.214842
  ----------------------------------------
  Sum of atomic charges =     0.000000

                    Cartesian Multipole Moments
 -----------------------------------------------------------------
    Charge (ESU x 10^10)
                -0.0000
    Dipole Moment (Debye)
         X      -0.1913      Y       1.3850      Z       3.4593
       Tot       3.7312
    Quadrupole Moments (Debye-Ang)
        XX    -188.3956     XY       0.4249     YY    -158.0283
        XZ      12.7521     YZ     -12.0162     ZZ    -194.8249

 Total job time:  303.87s(wall), 9636.22s(cpu)
        *  Thank you very much for using Q-Chem.  Have a nice day.  *
