 Q-Chem 5.4, Q-Chem, Inc., Pleasanton, CA (2021)
 Q-Chem 5.4.0 for Intel X86 EM64T Linux

User input:
--------------------------------------------------------------
$molecule
0 1
C	-0.093711	-8.519741	0.255459
C	0.083869	-7.635967	-0.799036
S	-0.345260	-7.651740	1.789425
C	0.018411	-6.261894	-0.418360
H	0.259169	-7.954738	-1.834294
C	-0.229701	-6.079985	0.987769
C	-0.302697	-4.798382	1.555260
C	0.196459	-5.153542	-1.294992
C	0.127651	-3.869626	-0.726408
C	-0.123544	-3.688927	0.680716
O	0.396706	-5.481075	-2.601852
O	-0.502673	-4.479871	2.868193
C	-1.262918	-5.356026	3.691495
H	-1.494604	-4.790496	4.614080
H	-0.693738	-6.268513	3.974195
H	-2.212720	-5.658187	3.199559
C	0.997016	-4.546999	-3.490743
H	1.226691	-5.107564	-4.416630
H	1.939526	-4.131473	-3.073934
H	0.309214	-3.712085	-3.746794
C	-0.186133	-2.314326	1.058247
S	0.256010	-2.295487	-1.527599
C	-0.000000	-1.435180	-0.000000
H	-0.363896	-1.993211	2.092285
H	-0.090328	-9.615985	0.250435
C	0.000000	0.000000	0.000000
S	0.309721	0.844422	1.510732
C	0.847502	2.325108	0.727629
C	0.310602	0.853460	-1.064665
C	0.784173	2.159014	-0.678287
C	0.289451	0.790512	-2.486150
C	0.721927	1.979112	-3.106916
S	1.145464	3.152519	-1.965735
C	0.813355	2.216642	-4.559972
O	0.496884	1.338418	-5.350277
O	1.255274	3.421340	-5.004375
F	-0.087923	-0.257761	-3.246290
C	1.387494	3.754937	-6.334976
H	1.765978	4.793056	-6.370268
H	0.417095	3.693789	-6.875609
H	2.098820	3.081033	-6.861878
H	1.162229	3.189623	1.321510
$end

$rem
JOBTYPE		SP
EXCHANGE	HF
CORRELATION	pRIMP2
BASIS		cc-pvtz
METHOD		rimp2
AUX_BASIS	rimp2-cc-pvtz
SOLVENT_METHOD	PCM
PURECART	11111
SYMMETRY	false
MEM_TOTAL	110000
SCF_CONVERGENCE = 6
THRESH=10
GUI = 2
$end

$solvent
dielectric 4.90
$end
--------------------------------------------------------------

             Standard Nuclear Orientation (Angstroms)
    I     Atom           X                Y                Z
 ----------------------------------------------------------------
    1      C      -0.0937110000    -8.5197410000     0.2554590000
    2      C       0.0838690000    -7.6359670000    -0.7990360000
    3      S      -0.3452600000    -7.6517400000     1.7894250000
    4      C       0.0184110000    -6.2618940000    -0.4183600000
    5      H       0.2591690000    -7.9547380000    -1.8342940000
    6      C      -0.2297010000    -6.0799850000     0.9877690000
    7      C      -0.3026970000    -4.7983820000     1.5552600000
    8      C       0.1964590000    -5.1535420000    -1.2949920000
    9      C       0.1276510000    -3.8696260000    -0.7264080000
   10      C      -0.1235440000    -3.6889270000     0.6807160000
   11      O       0.3967060000    -5.4810750000    -2.6018520000
   12      O      -0.5026730000    -4.4798710000     2.8681930000
   13      C      -1.2629180000    -5.3560260000     3.6914950000
   14      H      -1.4946040000    -4.7904960000     4.6140800000
   15      H      -0.6937380000    -6.2685130000     3.9741950000
   16      H      -2.2127200000    -5.6581870000     3.1995590000
   17      C       0.9970160000    -4.5469990000    -3.4907430000
   18      H       1.2266910000    -5.1075640000    -4.4166300000
   19      H       1.9395260000    -4.1314730000    -3.0739340000
   20      H       0.3092140000    -3.7120850000    -3.7467940000
   21      C      -0.1861330000    -2.3143260000     1.0582470000
   22      S       0.2560100000    -2.2954870000    -1.5275990000
   23      C       0.0000000000    -1.4351800000     0.0000000000
   24      H      -0.3638960000    -1.9932110000     2.0922850000
   25      H      -0.0903280000    -9.6159850000     0.2504350000
   26      C       0.0000000000     0.0000000000     0.0000000000
   27      S       0.3097210000     0.8444220000     1.5107320000
   28      C       0.8475020000     2.3251080000     0.7276290000
   29      C       0.3106020000     0.8534600000    -1.0646650000
   30      C       0.7841730000     2.1590140000    -0.6782870000
   31      C       0.2894510000     0.7905120000    -2.4861500000
   32      C       0.7219270000     1.9791120000    -3.1069160000
   33      S       1.1454640000     3.1525190000    -1.9657350000
   34      C       0.8133550000     2.2166420000    -4.5599720000
   35      O       0.4968840000     1.3384180000    -5.3502770000
   36      O       1.2552740000     3.4213400000    -5.0043750000
   37      F      -0.0879230000    -0.2577610000    -3.2462900000
   38      C       1.3874940000     3.7549370000    -6.3349760000
   39      H       1.7659780000     4.7930560000    -6.3702680000
   40      H       0.4170950000     3.6937890000    -6.8756090000
   41      H       2.0988200000     3.0810330000    -6.8618780000
   42      H       1.1622290000     3.1896230000     1.3215100000
 ----------------------------------------------------------------

   10   -2754.2855971972      8.48e-07  Convergence criterion met
 Total energy in the final basis set =    -2754.2855971972
        RIMP2         total energy =     -2759.3447666796 a.u.

                    Orbital Energies (a.u.)
 --------------------------------------------------------------

 Alpha MOs
 -- Occupied --
-92.0147 -91.9964 -91.9859 -91.9852 -26.3360 -20.6127 -20.5914 -20.5911
-20.5509 -11.4112 -11.3789 -11.3182 -11.3171 -11.3108 -11.2992 -11.2981
-11.2969 -11.2965 -11.2888 -11.2861 -11.2854 -11.2839 -11.2837 -11.2835
-11.2792 -11.2610 -11.2582 -11.2564 -11.2495  -9.0133  -9.0004  -8.9862
 -8.9858  -6.6940  -6.6934  -6.6929  -6.6816  -6.6809  -6.6796  -6.6670
 -6.6668  -6.6664  -6.6662  -6.6653  -6.6652  -1.6517  -1.4725  -1.4154
 -1.4139  -1.3679  -1.2355  -1.1956  -1.1689  -1.1425  -1.0845  -1.0517
 -1.0486  -1.0295  -1.0018  -0.9935  -0.9730  -0.9602  -0.9496  -0.9383
 -0.8955  -0.8706  -0.8512  -0.8099  -0.7959  -0.7870  -0.7752  -0.7633
 -0.7578  -0.7322  -0.7216  -0.7187  -0.7001  -0.6892  -0.6836  -0.6791
 -0.6743  -0.6621  -0.6582  -0.6520  -0.6280  -0.6192  -0.6159  -0.6072
 -0.6029  -0.5967  -0.5875  -0.5703  -0.5696  -0.5638  -0.5593  -0.5526
 -0.5307  -0.5261  -0.5245  -0.5181  -0.5146  -0.5083  -0.5021  -0.4952
 -0.4862  -0.4834  -0.4797  -0.4644  -0.4619  -0.4617  -0.4575  -0.4244
 -0.3943  -0.3866  -0.3608  -0.3498  -0.3246  -0.2842  -0.2459

          Ground-State Mulliken Net Atomic Charges

     Atom                 Charge (a.u.)
  ----------------------------------------
      1 C                    -0.189314
      2 C                    -0.254421
      3 S                    -0.023856
      4 C                    -0.015796
      5 H                     0.196515
      6 C                    -0.028773
      7 C                     0.240291
      8 C                     0.242440
      9 C                    -0.042448
     10 C                    -0.017772
     11 O                    -0.333536
     12 O                    -0.340603
     13 C                    -0.085614
     14 H                     0.122110
     15 H                     0.091101
     16 H                     0.094144
     17 C                    -0.089769
     18 H                     0.125659
     19 H                     0.094061
     20 H                     0.092118
     21 C                    -0.252138
     22 S                    -0.023657
     23 C                     0.001527
     24 H                     0.187552
     25 H                     0.206342
     26 C                     0.043708
     27 S                     0.103933
     28 C                    -0.230851
     29 C                    -0.109144
     30 C                    -0.024160
     31 C                     0.353593
     32 C                    -0.129495
     33 S                     0.044926
     34 C                     0.458220
     35 O                    -0.449506
     36 O                    -0.297779
     37 F                    -0.207648
     38 C                    -0.054786
     39 H                     0.116878
     40 H                     0.084735
     41 H                     0.084427
     42 H                     0.216784
  ----------------------------------------
  Sum of atomic charges =     0.000000

                    Cartesian Multipole Moments
 -----------------------------------------------------------------
    Charge (ESU x 10^10)
                 0.0000
    Dipole Moment (Debye)
         X       1.0567      Y       1.8931      Z       2.7869
       Tot       3.5309
    Quadrupole Moments (Debye-Ang)
        XX    -196.0628     XY       6.8007     YY    -162.2248
        XZ     -12.9569     YZ      -9.7886     ZZ    -184.4096

 Total job time:  317.10s(wall), 10590.66s(cpu)
        *  Thank you very much for using Q-Chem.  Have a nice day.  *
