 Q-Chem 5.4, Q-Chem, Inc., Pleasanton, CA (2021)
 Q-Chem 5.4.0 for Intel X86 EM64T Linux

User input:
--------------------------------------------------------------
$molecule
0 1
C	-0.092419	-8.519741	-0.255929
C	0.449364	-7.635967	0.666007
S	-0.885736	-7.651740	-1.592708
C	0.254813	-6.261894	0.332317
H	0.980526	-7.954738	1.571741
C	-0.458965	-6.079985	-0.904324
C	-0.767823	-4.798382	-1.385968
C	0.681909	-5.153542	1.118303
C	0.369139	-3.869626	0.638514
C	-0.342916	-3.688927	-0.600871
O	1.368544	-5.481075	2.248132
O	-1.458570	-4.479871	-2.520275
C	-1.405396	-5.356026	-3.639637
H	-1.820940	-4.790496	-4.495304
H	-2.023129	-6.268513	-3.490336
H	-0.361595	-5.658187	-3.873314
C	1.480048	-4.546999	3.314934
H	1.899255	-5.107564	4.171837
H	0.490123	-4.131473	3.601473
H	2.171521	-3.712085	3.068969
C	-0.537642	-2.314326	-0.930308
S	0.785807	-2.295487	1.334769
C	0.000000	-1.435180	0.000000
H	-1.066134	-1.993211	-1.836691
H	-0.091781	-9.615985	-0.249906
C	0.000000	0.000000	0.000000
S	0.080615	0.895811	1.510732
C	0.216842	2.465231	0.727629
C	0.079127	0.904769	-1.064665
C	0.198659	2.288406	-0.678287
C	0.074988	0.838492	-2.486150
C	0.185097	2.098524	-3.106916
S	0.290501	3.341568	-1.965735
C	0.211932	2.351623	-4.559972
O	0.133545	1.421416	-5.350277
O	0.326994	3.629649	-5.004375
F	-0.018214	-0.271734	-3.246290
C	0.368367	3.986101	-6.334976
H	0.465270	5.086806	-6.370268
H	-0.553140	3.675878	-6.875609
H	1.229874	3.519263	-6.861878
H	0.297091	3.381746	1.321510
$end

$rem
JOBTYPE		SP
EXCHANGE	HF
CORRELATION	pRIMP2
BASIS		cc-pvtz
METHOD		rimp2
AUX_BASIS	rimp2-cc-pvtz
SOLVENT_METHOD	PCM
PURECART	11111
SYMMETRY	false
MEM_TOTAL	110000
SCF_CONVERGENCE = 6
THRESH=10
GUI = 2
$end

$solvent
dielectric 4.90
$end
--------------------------------------------------------------

             Standard Nuclear Orientation (Angstroms)
    I     Atom           X                Y                Z
 ----------------------------------------------------------------
    1      C      -0.0924190000    -8.5197410000    -0.2559290000
    2      C       0.4493640000    -7.6359670000     0.6660070000
    3      S      -0.8857360000    -7.6517400000    -1.5927080000
    4      C       0.2548130000    -6.2618940000     0.3323170000
    5      H       0.9805260000    -7.9547380000     1.5717410000
    6      C      -0.4589650000    -6.0799850000    -0.9043240000
    7      C      -0.7678230000    -4.7983820000    -1.3859680000
    8      C       0.6819090000    -5.1535420000     1.1183030000
    9      C       0.3691390000    -3.8696260000     0.6385140000
   10      C      -0.3429160000    -3.6889270000    -0.6008710000
   11      O       1.3685440000    -5.4810750000     2.2481320000
   12      O      -1.4585700000    -4.4798710000    -2.5202750000
   13      C      -1.4053960000    -5.3560260000    -3.6396370000
   14      H      -1.8209400000    -4.7904960000    -4.4953040000
   15      H      -2.0231290000    -6.2685130000    -3.4903360000
   16      H      -0.3615950000    -5.6581870000    -3.8733140000
   17      C       1.4800480000    -4.5469990000     3.3149340000
   18      H       1.8992550000    -5.1075640000     4.1718370000
   19      H       0.4901230000    -4.1314730000     3.6014730000
   20      H       2.1715210000    -3.7120850000     3.0689690000
   21      C      -0.5376420000    -2.3143260000    -0.9303080000
   22      S       0.7858070000    -2.2954870000     1.3347690000
   23      C       0.0000000000    -1.4351800000     0.0000000000
   24      H      -1.0661340000    -1.9932110000    -1.8366910000
   25      H      -0.0917810000    -9.6159850000    -0.2499060000
   26      C       0.0000000000     0.0000000000     0.0000000000
   27      S       0.0806150000     0.8958110000     1.5107320000
   28      C       0.2168420000     2.4652310000     0.7276290000
   29      C       0.0791270000     0.9047690000    -1.0646650000
   30      C       0.1986590000     2.2884060000    -0.6782870000
   31      C       0.0749880000     0.8384920000    -2.4861500000
   32      C       0.1850970000     2.0985240000    -3.1069160000
   33      S       0.2905010000     3.3415680000    -1.9657350000
   34      C       0.2119320000     2.3516230000    -4.5599720000
   35      O       0.1335450000     1.4214160000    -5.3502770000
   36      O       0.3269940000     3.6296490000    -5.0043750000
   37      F      -0.0182140000    -0.2717340000    -3.2462900000
   38      C       0.3683670000     3.9861010000    -6.3349760000
   39      H       0.4652700000     5.0868060000    -6.3702680000
   40      H      -0.5531400000     3.6758780000    -6.8756090000
   41      H       1.2298740000     3.5192630000    -6.8618780000
   42      H       0.2970910000     3.3817460000     1.3215100000
 ----------------------------------------------------------------

   10   -2754.2982384346      7.86e-07  Convergence criterion met
 Total energy in the final basis set =    -2754.2982384346
        RIMP2         total energy =     -2759.3522427699 a.u.

                    Orbital Energies (a.u.)
 --------------------------------------------------------------

 Alpha MOs
 -- Occupied --
-92.0161 -91.9946 -91.9919 -91.9870 -26.3358 -20.6117 -20.5932 -20.5917
-20.5493 -11.4098 -11.3780 -11.3203 -11.3194 -11.3138 -11.2972 -11.2962
-11.2960 -11.2919 -11.2883 -11.2880 -11.2879 -11.2856 -11.2848 -11.2812
-11.2808 -11.2624 -11.2605 -11.2589 -11.2505  -9.0145  -8.9986  -8.9924
 -8.9869  -6.6953  -6.6947  -6.6942  -6.6799  -6.6792  -6.6779  -6.6734
 -6.6727  -6.6717  -6.6679  -6.6673  -6.6664  -1.6492  -1.4714  -1.4173
 -1.4144  -1.3667  -1.2334  -1.1974  -1.1697  -1.1423  -1.0849  -1.0531
 -1.0478  -1.0278  -1.0038  -0.9940  -0.9720  -0.9615  -0.9509  -0.9384
 -0.8971  -0.8693  -0.8518  -0.8050  -0.7949  -0.7886  -0.7725  -0.7697
 -0.7583  -0.7332  -0.7197  -0.7170  -0.7020  -0.6891  -0.6841  -0.6783
 -0.6718  -0.6619  -0.6597  -0.6528  -0.6300  -0.6204  -0.6167  -0.6061
 -0.6009  -0.5939  -0.5878  -0.5773  -0.5691  -0.5604  -0.5550  -0.5497
 -0.5375  -0.5267  -0.5227  -0.5192  -0.5173  -0.5093  -0.5046  -0.4959
 -0.4868  -0.4842  -0.4795  -0.4694  -0.4621  -0.4611  -0.4598  -0.4206
 -0.3982  -0.3867  -0.3592  -0.3506  -0.3244  -0.2855  -0.2498

          Ground-State Mulliken Net Atomic Charges

     Atom                 Charge (a.u.)
  ----------------------------------------
      1 C                    -0.186304
      2 C                    -0.254856
      3 S                    -0.019932
      4 C                    -0.012256
      5 H                     0.196509
      6 C                    -0.028944
      7 C                     0.248507
      8 C                     0.239241
      9 C                    -0.041936
     10 C                    -0.033790
     11 O                    -0.333002
     12 O                    -0.338941
     13 C                    -0.085806
     14 H                     0.123999
     15 H                     0.090881
     16 H                     0.094418
     17 C                    -0.087763
     18 H                     0.125598
     19 H                     0.094825
     20 H                     0.089805
     21 C                    -0.208557
     22 S                    -0.024952
     23 C                    -0.029082
     24 H                     0.195514
     25 H                     0.206876
     26 C                    -0.012333
     27 S                     0.092321
     28 C                    -0.240792
     29 C                    -0.063003
     30 C                    -0.015859
     31 C                     0.383612
     32 C                    -0.143176
     33 S                     0.036377
     34 C                     0.460119
     35 O                    -0.452077
     36 O                    -0.298038
     37 F                    -0.213783
     38 C                    -0.055092
     39 H                     0.116584
     40 H                     0.084367
     41 H                     0.084393
     42 H                     0.216328
  ----------------------------------------
  Sum of atomic charges =     0.000000

                    Cartesian Multipole Moments
 -----------------------------------------------------------------
    Charge (ESU x 10^10)
                 0.0000
    Dipole Moment (Debye)
         X       0.5112      Y       1.1483      Z       3.1409
       Tot       3.3830
    Quadrupole Moments (Debye-Ang)
        XX    -199.6763     XY       0.4036     YY    -156.9583
        XZ       6.1267     YZ      -9.0942     ZZ    -183.5269

 Total job time:  309.96s(wall), 9317.51s(cpu)
        *  Thank you very much for using Q-Chem.  Have a nice day.  *
