 Q-Chem 5.4, Q-Chem, Inc., Pleasanton, CA (2021)
 Q-Chem 5.4.0 for Intel X86 EM64T Linux

User input:
--------------------------------------------------------------
$molecule
0 1
C	0.093711	-8.519741	-0.255459
C	-0.083869	-7.635967	0.799036
S	0.345260	-7.651740	-1.789425
C	-0.018411	-6.261894	0.418360
H	-0.259169	-7.954738	1.834294
C	0.229701	-6.079985	-0.987769
C	0.302697	-4.798382	-1.555260
C	-0.196459	-5.153542	1.294992
C	-0.127651	-3.869626	0.726408
C	0.123544	-3.688927	-0.680716
O	-0.396706	-5.481075	2.601852
O	0.502673	-4.479871	-2.868193
C	1.262918	-5.356026	-3.691495
H	1.494604	-4.790496	-4.614080
H	0.693738	-6.268513	-3.974195
H	2.212720	-5.658187	-3.199559
C	-0.997016	-4.546999	3.490743
H	-1.226691	-5.107564	4.416630
H	-1.939526	-4.131473	3.073934
H	-0.309214	-3.712085	3.746794
C	0.186133	-2.314326	-1.058247
S	-0.256010	-2.295487	1.527599
C	-0.000000	-1.435180	-0.000000
H	0.363896	-1.993211	-2.092285
H	0.090328	-9.615985	-0.250435
C	0.000000	0.000000	0.000000
S	0.382139	0.814215	1.510732
C	1.046923	2.242395	0.727629
C	0.383804	0.823142	-1.064665
C	0.969360	2.082453	-0.678287
C	0.357247	0.762277	-2.486150
C	0.891671	1.908660	-3.106916
S	1.415865	3.040689	-1.965735
C	1.003453	2.137318	-4.559972
O	0.611644	1.290019	-5.350277
O	1.548687	3.298916	-5.004375
F	-0.110054	-0.249117	-3.246290
C	1.709479	3.619721	-6.334976
H	2.177001	4.620902	-6.370268
H	0.737443	3.643380	-6.875609
H	2.359363	2.886384	-6.861878
H	1.435800	3.076190	1.321510
$end

$rem
JOBTYPE		SP
EXCHANGE	HF
CORRELATION	pRIMP2
BASIS		cc-pvtz
METHOD		rimp2
AUX_BASIS	rimp2-cc-pvtz
SOLVENT_METHOD	PCM
PURECART	11111
SYMMETRY	false
MEM_TOTAL	110000
SCF_CONVERGENCE = 6
THRESH=10
GUI = 2
$end

$solvent
dielectric 4.90
$end
--------------------------------------------------------------

             Standard Nuclear Orientation (Angstroms)
    I     Atom           X                Y                Z
 ----------------------------------------------------------------
    1      C       0.0937110000    -8.5197410000    -0.2554590000
    2      C      -0.0838690000    -7.6359670000     0.7990360000
    3      S       0.3452600000    -7.6517400000    -1.7894250000
    4      C      -0.0184110000    -6.2618940000     0.4183600000
    5      H      -0.2591690000    -7.9547380000     1.8342940000
    6      C       0.2297010000    -6.0799850000    -0.9877690000
    7      C       0.3026970000    -4.7983820000    -1.5552600000
    8      C      -0.1964590000    -5.1535420000     1.2949920000
    9      C      -0.1276510000    -3.8696260000     0.7264080000
   10      C       0.1235440000    -3.6889270000    -0.6807160000
   11      O      -0.3967060000    -5.4810750000     2.6018520000
   12      O       0.5026730000    -4.4798710000    -2.8681930000
   13      C       1.2629180000    -5.3560260000    -3.6914950000
   14      H       1.4946040000    -4.7904960000    -4.6140800000
   15      H       0.6937380000    -6.2685130000    -3.9741950000
   16      H       2.2127200000    -5.6581870000    -3.1995590000
   17      C      -0.9970160000    -4.5469990000     3.4907430000
   18      H      -1.2266910000    -5.1075640000     4.4166300000
   19      H      -1.9395260000    -4.1314730000     3.0739340000
   20      H      -0.3092140000    -3.7120850000     3.7467940000
   21      C       0.1861330000    -2.3143260000    -1.0582470000
   22      S      -0.2560100000    -2.2954870000     1.5275990000
   23      C       0.0000000000    -1.4351800000     0.0000000000
   24      H       0.3638960000    -1.9932110000    -2.0922850000
   25      H       0.0903280000    -9.6159850000    -0.2504350000
   26      C       0.0000000000     0.0000000000     0.0000000000
   27      S       0.3821390000     0.8142150000     1.5107320000
   28      C       1.0469230000     2.2423950000     0.7276290000
   29      C       0.3838040000     0.8231420000    -1.0646650000
   30      C       0.9693600000     2.0824530000    -0.6782870000
   31      C       0.3572470000     0.7622770000    -2.4861500000
   32      C       0.8916710000     1.9086600000    -3.1069160000
   33      S       1.4158650000     3.0406890000    -1.9657350000
   34      C       1.0034530000     2.1373180000    -4.5599720000
   35      O       0.6116440000     1.2900190000    -5.3502770000
   36      O       1.5486870000     3.2989160000    -5.0043750000
   37      F      -0.1100540000    -0.2491170000    -3.2462900000
   38      C       1.7094790000     3.6197210000    -6.3349760000
   39      H       2.1770010000     4.6209020000    -6.3702680000
   40      H       0.7374430000     3.6433800000    -6.8756090000
   41      H       2.3593630000     2.8863840000    -6.8618780000
   42      H       1.4358000000     3.0761900000     1.3215100000
 ----------------------------------------------------------------

   10   -2754.2857085242      8.30e-07  Convergence criterion met
 Total energy in the final basis set =    -2754.2857085242
        RIMP2         total energy =     -2759.3451523458 a.u.

                    Orbital Energies (a.u.)
 --------------------------------------------------------------

 Alpha MOs
 -- Occupied --
-92.0164 -91.9974 -91.9892 -91.9863 -26.3380 -20.6126 -20.5926 -20.5907
-20.5510 -11.4112 -11.3784 -11.3195 -11.3177 -11.3087 -11.2996 -11.2989
-11.2976 -11.2963 -11.2888 -11.2875 -11.2866 -11.2851 -11.2840 -11.2833
-11.2796 -11.2613 -11.2590 -11.2541 -11.2499  -9.0151  -9.0013  -8.9899
 -8.9862  -6.6958  -6.6952  -6.6947  -6.6826  -6.6819  -6.6806  -6.6710
 -6.6703  -6.6693  -6.6672  -6.6666  -6.6657  -1.6522  -1.4725  -1.4167
 -1.4135  -1.3679  -1.2356  -1.1963  -1.1696  -1.1432  -1.0846  -1.0523
 -1.0491  -1.0292  -1.0028  -0.9937  -0.9732  -0.9606  -0.9504  -0.9386
 -0.8965  -0.8709  -0.8506  -0.8060  -0.7969  -0.7885  -0.7722  -0.7704
 -0.7573  -0.7332  -0.7224  -0.7192  -0.7012  -0.6902  -0.6836  -0.6790
 -0.6734  -0.6622  -0.6591  -0.6521  -0.6284  -0.6197  -0.6155  -0.6073
 -0.6018  -0.5963  -0.5870  -0.5755  -0.5692  -0.5607  -0.5545  -0.5473
 -0.5359  -0.5275  -0.5247  -0.5185  -0.5170  -0.5092  -0.5060  -0.4968
 -0.4859  -0.4853  -0.4783  -0.4672  -0.4621  -0.4617  -0.4586  -0.4244
 -0.3980  -0.3851  -0.3590  -0.3510  -0.3254  -0.2849  -0.2467

          Ground-State Mulliken Net Atomic Charges

     Atom                 Charge (a.u.)
  ----------------------------------------
      1 C                    -0.188747
      2 C                    -0.254717
      3 S                    -0.021299
      4 C                    -0.015612
      5 H                     0.196237
      6 C                    -0.028189
      7 C                     0.247029
      8 C                     0.243625
      9 C                    -0.039032
     10 C                    -0.027479
     11 O                    -0.333311
     12 O                    -0.339497
     13 C                    -0.086328
     14 H                     0.123933
     15 H                     0.091342
     16 H                     0.093574
     17 C                    -0.088247
     18 H                     0.126079
     19 H                     0.095140
     20 H                     0.089344
     21 C                    -0.224117
     22 S                    -0.042287
     23 C                    -0.026202
     24 H                     0.207834
     25 H                     0.206497
     26 C                     0.017317
     27 S                     0.104728
     28 C                    -0.234324
     29 C                    -0.092988
     30 C                    -0.019349
     31 C                     0.353481
     32 C                    -0.131689
     33 S                     0.049716
     34 C                     0.458906
     35 O                    -0.449219
     36 O                    -0.297921
     37 F                    -0.213659
     38 C                    -0.054726
     39 H                     0.116852
     40 H                     0.084750
     41 H                     0.084510
     42 H                     0.218046
  ----------------------------------------
  Sum of atomic charges =     0.000000

                    Cartesian Multipole Moments
 -----------------------------------------------------------------
    Charge (ESU x 10^10)
                -0.0000
    Dipole Moment (Debye)
         X       1.8948      Y       1.6730      Z       3.1926
       Tot       4.0720
    Quadrupole Moments (Debye-Ang)
        XX    -194.8870     XY       4.9291     YY    -161.1589
        XZ     -13.9809     YZ      -9.6475     ZZ    -184.6580

 Total job time:  296.96s(wall), 9302.52s(cpu)
        *  Thank you very much for using Q-Chem.  Have a nice day.  *
