 Q-Chem 5.4, Q-Chem, Inc., Pleasanton, CA (2021)
 Q-Chem 5.4.0 for Intel X86 EM64T Linux

User input:
--------------------------------------------------------------
$molecule
0 1
C	0.235306	-8.519741	0.136647
C	-0.772334	-7.635967	-0.221346
S	1.702286	-7.651740	0.650746
C	-0.408807	-6.261894	-0.090779
H	-1.761423	-7.954738	-0.573754
C	0.932876	-6.079985	0.397735
C	1.479069	-4.798382	0.568166
C	-1.241204	-5.153542	-0.418347
C	-0.693206	-3.869626	-0.251852
C	0.648921	-3.688927	0.239872
O	-2.493437	-5.481075	-0.842486
O	2.737331	-4.479871	0.993092
C	3.416110	-5.356026	1.884752
H	4.284447	-4.790496	2.273124
H	3.793352	-6.268513	1.373310
H	2.766716	-5.658187	2.734702
C	-3.264581	-4.546999	-1.588030
H	-4.136519	-5.107564	-1.974995
H	-2.690439	-4.131473	-2.443843
H	-3.636177	-3.712085	-0.955140
C	1.009848	-2.314326	0.367068
S	-1.459936	-2.295487	-0.517386
C	0.000000	-1.435180	0.000000
H	1.997308	-1.993211	0.721689
H	0.230945	-9.615985	0.132444
C	0.000000	0.000000	0.000000
S	0.780044	0.447780	1.510732
C	2.143774	1.236372	0.727629
C	0.786529	0.454137	-1.064665
C	1.988499	1.149844	-0.678287
C	0.729864	0.419512	-2.486150
C	1.825177	1.052041	-3.106916
S	2.903877	1.678680	-1.965735
C	2.047896	1.175232	-4.559972
O	1.240953	0.705897	-5.350277
O	3.160791	1.814024	-5.004375
F	-0.233039	-0.140940	-3.246290
C	3.476510	1.984585	-6.334976
H	4.433735	2.536545	-6.370268
H	2.693835	2.561503	-6.875609
H	3.588239	1.011113	-6.861878
H	2.940569	1.696327	1.321510
$end

$rem
JOBTYPE		SP
EXCHANGE	HF
CORRELATION	pRIMP2
BASIS		cc-pvtz
METHOD		rimp2
AUX_BASIS	rimp2-cc-pvtz
SOLVENT_METHOD	PCM
PURECART	11111
SYMMETRY	false
MEM_TOTAL	110000
SCF_CONVERGENCE = 6
THRESH=10
GUI = 2
$end

$solvent
dielectric 4.90
$end
--------------------------------------------------------------

             Standard Nuclear Orientation (Angstroms)
    I     Atom           X                Y                Z
 ----------------------------------------------------------------
    1      C       0.2353060000    -8.5197410000     0.1366470000
    2      C      -0.7723340000    -7.6359670000    -0.2213460000
    3      S       1.7022860000    -7.6517400000     0.6507460000
    4      C      -0.4088070000    -6.2618940000    -0.0907790000
    5      H      -1.7614230000    -7.9547380000    -0.5737540000
    6      C       0.9328760000    -6.0799850000     0.3977350000
    7      C       1.4790690000    -4.7983820000     0.5681660000
    8      C      -1.2412040000    -5.1535420000    -0.4183470000
    9      C      -0.6932060000    -3.8696260000    -0.2518520000
   10      C       0.6489210000    -3.6889270000     0.2398720000
   11      O      -2.4934370000    -5.4810750000    -0.8424860000
   12      O       2.7373310000    -4.4798710000     0.9930920000
   13      C       3.4161100000    -5.3560260000     1.8847520000
   14      H       4.2844470000    -4.7904960000     2.2731240000
   15      H       3.7933520000    -6.2685130000     1.3733100000
   16      H       2.7667160000    -5.6581870000     2.7347020000
   17      C      -3.2645810000    -4.5469990000    -1.5880300000
   18      H      -4.1365190000    -5.1075640000    -1.9749950000
   19      H      -2.6904390000    -4.1314730000    -2.4438430000
   20      H      -3.6361770000    -3.7120850000    -0.9551400000
   21      C       1.0098480000    -2.3143260000     0.3670680000
   22      S      -1.4599360000    -2.2954870000    -0.5173860000
   23      C       0.0000000000    -1.4351800000     0.0000000000
   24      H       1.9973080000    -1.9932110000     0.7216890000
   25      H       0.2309450000    -9.6159850000     0.1324440000
   26      C       0.0000000000     0.0000000000     0.0000000000
   27      S       0.7800440000     0.4477800000     1.5107320000
   28      C       2.1437740000     1.2363720000     0.7276290000
   29      C       0.7865290000     0.4541370000    -1.0646650000
   30      C       1.9884990000     1.1498440000    -0.6782870000
   31      C       0.7298640000     0.4195120000    -2.4861500000
   32      C       1.8251770000     1.0520410000    -3.1069160000
   33      S       2.9038770000     1.6786800000    -1.9657350000
   34      C       2.0478960000     1.1752320000    -4.5599720000
   35      O       1.2409530000     0.7058970000    -5.3502770000
   36      O       3.1607910000     1.8140240000    -5.0043750000
   37      F      -0.2330390000    -0.1409400000    -3.2462900000
   38      C       3.4765100000     1.9845850000    -6.3349760000
   39      H       4.4337350000     2.5365450000    -6.3702680000
   40      H       2.6938350000     2.5615030000    -6.8756090000
   41      H       3.5882390000     1.0111130000    -6.8618780000
   42      H       2.9405690000     1.6963270000     1.3215100000
 ----------------------------------------------------------------

   11   -2754.2303653369      7.31e-07  Convergence criterion met
 Total energy in the final basis set =    -2754.2303653369
        RIMP2         total energy =     -2759.3024859060 a.u.

                    Orbital Energies (a.u.)
 --------------------------------------------------------------

 Alpha MOs
 -- Occupied --
-92.0164 -92.0063 -91.9831 -91.9796 -26.3338 -20.6159 -20.5896 -20.5881
-20.5571 -11.4163 -11.3753 -11.3258 -11.3154 -11.3122 -11.3112 -11.2999
-11.2969 -11.2928 -11.2904 -11.2847 -11.2843 -11.2805 -11.2780 -11.2753
-11.2711 -11.2564 -11.2528 -11.2474 -11.2422  -9.0153  -9.0097  -8.9830
 -8.9803  -6.6958  -6.6949  -6.6949  -6.6909  -6.6903  -6.6890  -6.6640
 -6.6634  -6.6626  -6.6612  -6.6605  -6.6596  -1.6469  -1.4761  -1.4135
 -1.4109  -1.3723  -1.2435  -1.1917  -1.1699  -1.1436  -1.0831  -1.0512
 -1.0473  -1.0330  -0.9972  -0.9913  -0.9755  -0.9572  -0.9476  -0.9387
 -0.8913  -0.8760  -0.8414  -0.8069  -0.7935  -0.7846  -0.7781  -0.7657
 -0.7527  -0.7295  -0.7177  -0.7155  -0.6990  -0.6920  -0.6817  -0.6791
 -0.6770  -0.6610  -0.6561  -0.6501  -0.6283  -0.6173  -0.6139  -0.6118
 -0.6071  -0.6015  -0.5877  -0.5719  -0.5666  -0.5636  -0.5525  -0.5491
 -0.5314  -0.5227  -0.5208  -0.5139  -0.5117  -0.5087  -0.5002  -0.4917
 -0.4894  -0.4878  -0.4681  -0.4666  -0.4643  -0.4602  -0.4524  -0.4091
 -0.3927  -0.3832  -0.3622  -0.3385  -0.3120  -0.2979  -0.2508

          Ground-State Mulliken Net Atomic Charges

     Atom                 Charge (a.u.)
  ----------------------------------------
      1 C                    -0.196659
      2 C                    -0.254132
      3 S                    -0.029601
      4 C                    -0.020617
      5 H                     0.195395
      6 C                    -0.026092
      7 C                     0.229145
      8 C                     0.243356
      9 C                    -0.045779
     10 C                    -0.019101
     11 O                    -0.333921
     12 O                    -0.342820
     13 C                    -0.085690
     14 H                     0.120578
     15 H                     0.090686
     16 H                     0.092901
     17 C                    -0.086413
     18 H                     0.123912
     19 H                     0.094997
     20 H                     0.089503
     21 C                    -0.273108
     22 S                    -0.025565
     23 C                     0.007613
     24 H                     0.192297
     25 H                     0.204761
     26 C                    -0.168460
     27 S                     0.141693
     28 C                    -0.157825
     29 C                    -0.012946
     30 C                    -0.025807
     31 C                     0.357975
     32 C                    -0.125051
     33 S                     0.074390
     34 C                     0.457879
     35 O                    -0.437886
     36 O                    -0.296520
     37 F                    -0.208913
     38 C                    -0.054729
     39 H                     0.117452
     40 H                     0.085736
     41 H                     0.085856
     42 H                     0.221511
  ----------------------------------------
  Sum of atomic charges =     0.000000

                    Cartesian Multipole Moments
 -----------------------------------------------------------------
    Charge (ESU x 10^10)
                -0.0000
    Dipole Moment (Debye)
         X       4.8182      Y       2.6581      Z       2.7450
       Tot       6.1494
    Quadrupole Moments (Debye-Ang)
        XX    -169.5949     XY      10.3355     YY    -180.3616
        XZ       0.1336     YZ      -7.1668     ZZ    -194.5564

 Total job time:  311.03s(wall), 10070.49s(cpu)
        *  Thank you very much for using Q-Chem.  Have a nice day.  *
