 Q-Chem 5.4, Q-Chem, Inc., Pleasanton, CA (2021)
 Q-Chem 5.4.0 for Intel X86 EM64T Linux

User input:
--------------------------------------------------------------
$molecule
0 1
C	-0.267851	-8.519741	-0.047927
C	0.801461	-7.635967	-0.056157
S	-1.822194	-7.651740	-0.029285
C	0.415201	-6.261894	-0.054516
H	1.851431	-7.954738	-0.063290
C	-1.012650	-6.079985	-0.054687
C	-1.584194	-4.798382	-0.028030
C	1.309433	-5.153542	-0.031399
C	0.737539	-3.869626	-0.000427
C	-0.691828	-3.688927	-0.003462
O	2.631211	-5.481075	-0.061128
O	-2.911907	-4.479871	0.003021
C	-3.854716	-5.356026	-0.602710
H	-4.803517	-4.790496	-0.670671
H	-4.034285	-6.268513	0.006913
H	-3.535185	-5.658187	-1.623507
C	3.610841	-4.546999	0.375708
H	4.562544	-5.107564	0.441115
H	3.364029	-4.131473	1.376277
H	3.743566	-3.712085	-0.346107
C	-1.074491	-2.314326	0.000458
S	1.548848	-2.295487	-0.013144
C	0.000000	-1.435180	0.000000
H	-2.123688	-1.993211	0.004953
H	-0.262315	-9.615985	-0.045468
C	0.000000	0.000000	0.000000
S	0.234946	0.868203	1.510732
C	0.641630	2.390125	0.727629
C	0.235036	0.877284	-1.064665
C	0.593019	2.219143	-0.678287
C	0.219452	0.812732	-2.486150
C	0.546689	2.034501	-3.106916
S	0.866345	3.240357	-1.965735
C	0.617067	2.279095	-4.559972
O	0.378342	1.376631	-5.350277
O	0.952308	3.517725	-5.004375
F	-0.065123	-0.264443	-3.246290
C	1.054950	3.861577	-6.334976
H	1.341516	4.928732	-6.370268
H	0.093573	3.716085	-6.875609
H	1.822303	3.252232	-6.861878
H	0.879812	3.278780	1.321510
$end

$rem
JOBTYPE		SP
EXCHANGE	HF
CORRELATION	pRIMP2
BASIS		cc-pvtz
METHOD		rimp2
AUX_BASIS	rimp2-cc-pvtz
SOLVENT_METHOD	PCM
PURECART	11111
SYMMETRY	false
MEM_TOTAL	110000
SCF_CONVERGENCE = 6
THRESH=10
GUI = 2
$end

$solvent
dielectric 4.90
$end
--------------------------------------------------------------

             Standard Nuclear Orientation (Angstroms)
    I     Atom           X                Y                Z
 ----------------------------------------------------------------
    1      C      -0.2678510000    -8.5197410000    -0.0479270000
    2      C       0.8014610000    -7.6359670000    -0.0561570000
    3      S      -1.8221940000    -7.6517400000    -0.0292850000
    4      C       0.4152010000    -6.2618940000    -0.0545160000
    5      H       1.8514310000    -7.9547380000    -0.0632900000
    6      C      -1.0126500000    -6.0799850000    -0.0546870000
    7      C      -1.5841940000    -4.7983820000    -0.0280300000
    8      C       1.3094330000    -5.1535420000    -0.0313990000
    9      C       0.7375390000    -3.8696260000    -0.0004270000
   10      C      -0.6918280000    -3.6889270000    -0.0034620000
   11      O       2.6312110000    -5.4810750000    -0.0611280000
   12      O      -2.9119070000    -4.4798710000     0.0030210000
   13      C      -3.8547160000    -5.3560260000    -0.6027100000
   14      H      -4.8035170000    -4.7904960000    -0.6706710000
   15      H      -4.0342850000    -6.2685130000     0.0069130000
   16      H      -3.5351850000    -5.6581870000    -1.6235070000
   17      C       3.6108410000    -4.5469990000     0.3757080000
   18      H       4.5625440000    -5.1075640000     0.4411150000
   19      H       3.3640290000    -4.1314730000     1.3762770000
   20      H       3.7435660000    -3.7120850000    -0.3461070000
   21      C      -1.0744910000    -2.3143260000     0.0004580000
   22      S       1.5488480000    -2.2954870000    -0.0131440000
   23      C       0.0000000000    -1.4351800000     0.0000000000
   24      H      -2.1236880000    -1.9932110000     0.0049530000
   25      H      -0.2623150000    -9.6159850000    -0.0454680000
   26      C       0.0000000000     0.0000000000     0.0000000000
   27      S       0.2349460000     0.8682030000     1.5107320000
   28      C       0.6416300000     2.3901250000     0.7276290000
   29      C       0.2350360000     0.8772840000    -1.0646650000
   30      C       0.5930190000     2.2191430000    -0.6782870000
   31      C       0.2194520000     0.8127320000    -2.4861500000
   32      C       0.5466890000     2.0345010000    -3.1069160000
   33      S       0.8663450000     3.2403570000    -1.9657350000
   34      C       0.6170670000     2.2790950000    -4.5599720000
   35      O       0.3783420000     1.3766310000    -5.3502770000
   36      O       0.9523080000     3.5177250000    -5.0043750000
   37      F      -0.0651230000    -0.2644430000    -3.2462900000
   38      C       1.0549500000     3.8615770000    -6.3349760000
   39      H       1.3415160000     4.9287320000    -6.3702680000
   40      H       0.0935730000     3.7160850000    -6.8756090000
   41      H       1.8223030000     3.2522320000    -6.8618780000
   42      H       0.8798120000     3.2787800000     1.3215100000
 ----------------------------------------------------------------

   10   -2754.2914572265      8.72e-07  Convergence criterion met
 Total energy in the final basis set =    -2754.2914572265
        RIMP2         total energy =     -2759.3447799131 a.u.

                    Orbital Energies (a.u.)
 --------------------------------------------------------------

 Alpha MOs
 -- Occupied --
-92.0159 -91.9947 -91.9897 -91.9866 -26.3337 -20.6121 -20.5924 -20.5917
-20.5503 -11.4105 -11.3769 -11.3192 -11.3187 -11.3071 -11.2979 -11.2961
-11.2948 -11.2922 -11.2884 -11.2871 -11.2866 -11.2861 -11.2840 -11.2831
-11.2803 -11.2604 -11.2597 -11.2586 -11.2501  -9.0140  -8.9988  -8.9900
 -8.9865  -6.6947  -6.6941  -6.6937  -6.6800  -6.6794  -6.6780  -6.6709
 -6.6702  -6.6693  -6.6674  -6.6668  -6.6660  -1.6465  -1.4719  -1.4165
 -1.4145  -1.3672  -1.2333  -1.1958  -1.1681  -1.1417  -1.0838  -1.0521
 -1.0473  -1.0275  -1.0023  -0.9930  -0.9712  -0.9614  -0.9505  -0.9381
 -0.8959  -0.8692  -0.8503  -0.8047  -0.7905  -0.7882  -0.7735  -0.7685
 -0.7582  -0.7327  -0.7178  -0.7148  -0.7012  -0.6887  -0.6831  -0.6785
 -0.6710  -0.6603  -0.6592  -0.6527  -0.6308  -0.6201  -0.6172  -0.6065
 -0.6021  -0.5947  -0.5825  -0.5794  -0.5671  -0.5648  -0.5561  -0.5501
 -0.5359  -0.5262  -0.5241  -0.5160  -0.5142  -0.5080  -0.5012  -0.4938
 -0.4910  -0.4840  -0.4750  -0.4688  -0.4618  -0.4612  -0.4608  -0.4053
 -0.4007  -0.3873  -0.3571  -0.3491  -0.3136  -0.2899  -0.2598

          Ground-State Mulliken Net Atomic Charges

     Atom                 Charge (a.u.)
  ----------------------------------------
      1 C                    -0.186831
      2 C                    -0.254952
      3 S                    -0.021812
      4 C                    -0.012053
      5 H                     0.196604
      6 C                    -0.028445
      7 C                     0.247616
      8 C                     0.239487
      9 C                    -0.042003
     10 C                    -0.030029
     11 O                    -0.333049
     12 O                    -0.339680
     13 C                    -0.085594
     14 H                     0.122730
     15 H                     0.090761
     16 H                     0.094706
     17 C                    -0.086515
     18 H                     0.124914
     19 H                     0.094185
     20 H                     0.090251
     21 C                    -0.212783
     22 S                     0.001492
     23 C                    -0.068589
     24 H                     0.196564
     25 H                     0.206646
     26 C                     0.002478
     27 S                     0.120850
     28 C                    -0.236511
     29 C                    -0.106514
     30 C                     0.000591
     31 C                     0.383728
     32 C                    -0.157054
     33 S                     0.040139
     34 C                     0.460129
     35 O                    -0.449252
     36 O                    -0.297760
     37 F                    -0.210143
     38 C                    -0.054919
     39 H                     0.116545
     40 H                     0.084636
     41 H                     0.084557
     42 H                     0.214882
  ----------------------------------------
  Sum of atomic charges =     0.000000

                    Cartesian Multipole Moments
 -----------------------------------------------------------------
    Charge (ESU x 10^10)
                 0.0000
    Dipole Moment (Debye)
         X       1.0034      Y       1.5056      Z       2.9863
       Tot       3.4917
    Quadrupole Moments (Debye-Ang)
        XX    -176.6589     XY       4.5474     YY    -159.2135
        XZ       2.7956     YZ      -8.8934     ZZ    -205.0762

 Total job time:  307.18s(wall), 9430.17s(cpu)
        *  Thank you very much for using Q-Chem.  Have a nice day.  *
