 Q-Chem 5.4, Q-Chem, Inc., Pleasanton, CA (2021)
 Q-Chem 5.4.0 for Intel X86 EM64T Linux

User input:
--------------------------------------------------------------
$molecule
0 1
C	-0.046574	-8.519741	-0.268090
C	0.326886	-7.635967	0.733920
S	-0.595708	-7.651740	-1.722318
C	0.193236	-6.261894	0.371516
H	0.692700	-7.954738	1.718130
C	-0.294958	-6.079985	-0.970283
C	-0.515487	-4.798382	-1.498243
C	0.477358	-5.153542	1.219725
C	0.252655	-3.869626	0.692914
C	-0.233366	-3.688927	-0.651289
O	0.957369	-5.481075	2.451623
O	-0.998769	-4.479871	-2.735264
C	-0.752029	-5.356026	-3.828387
H	-1.012675	-4.790496	-4.743213
H	-1.386303	-6.268513	-3.788623
H	0.316492	-5.658187	-3.877260
C	0.881930	-4.546999	3.521580
H	1.145969	-5.107564	4.438260
H	-0.142712	-4.131473	3.631868
H	1.605610	-3.712085	3.399425
C	-0.367928	-2.314326	-1.009535
S	0.542088	-2.295487	1.450945
C	0.000000	-1.435180	0.000000
H	-0.730999	-1.993211	-1.993920
H	-0.046991	-9.615985	-0.262047
C	0.000000	0.000000	0.000000
S	0.080615	0.895811	1.510732
C	0.216842	2.465231	0.727629
C	0.079127	0.904769	-1.064665
C	0.198659	2.288406	-0.678287
C	0.074988	0.838492	-2.486150
C	0.185097	2.098524	-3.106916
S	0.290501	3.341568	-1.965735
C	0.211932	2.351623	-4.559972
O	0.133545	1.421416	-5.350277
O	0.326994	3.629649	-5.004375
F	-0.018214	-0.271734	-3.246290
C	0.368367	3.986101	-6.334976
H	0.465270	5.086806	-6.370268
H	-0.553140	3.675878	-6.875609
H	1.229874	3.519263	-6.861878
H	0.297091	3.381746	1.321510
$end

$rem
JOBTYPE		SP
EXCHANGE	HF
CORRELATION	pRIMP2
BASIS		cc-pvtz
METHOD		rimp2
AUX_BASIS	rimp2-cc-pvtz
SOLVENT_METHOD	PCM
PURECART	11111
SYMMETRY	false
MEM_TOTAL	110000
SCF_CONVERGENCE = 6
THRESH=10
GUI = 2
$end

$solvent
dielectric 4.90
$end
--------------------------------------------------------------

             Standard Nuclear Orientation (Angstroms)
    I     Atom           X                Y                Z
 ----------------------------------------------------------------
    1      C      -0.0465740000    -8.5197410000    -0.2680900000
    2      C       0.3268860000    -7.6359670000     0.7339200000
    3      S      -0.5957080000    -7.6517400000    -1.7223180000
    4      C       0.1932360000    -6.2618940000     0.3715160000
    5      H       0.6927000000    -7.9547380000     1.7181300000
    6      C      -0.2949580000    -6.0799850000    -0.9702830000
    7      C      -0.5154870000    -4.7983820000    -1.4982430000
    8      C       0.4773580000    -5.1535420000     1.2197250000
    9      C       0.2526550000    -3.8696260000     0.6929140000
   10      C      -0.2333660000    -3.6889270000    -0.6512890000
   11      O       0.9573690000    -5.4810750000     2.4516230000
   12      O      -0.9987690000    -4.4798710000    -2.7352640000
   13      C      -0.7520290000    -5.3560260000    -3.8283870000
   14      H      -1.0126750000    -4.7904960000    -4.7432130000
   15      H      -1.3863030000    -6.2685130000    -3.7886230000
   16      H       0.3164920000    -5.6581870000    -3.8772600000
   17      C       0.8819300000    -4.5469990000     3.5215800000
   18      H       1.1459690000    -5.1075640000     4.4382600000
   19      H      -0.1427120000    -4.1314730000     3.6318680000
   20      H       1.6056100000    -3.7120850000     3.3994250000
   21      C      -0.3679280000    -2.3143260000    -1.0095350000
   22      S       0.5420880000    -2.2954870000     1.4509450000
   23      C       0.0000000000    -1.4351800000     0.0000000000
   24      H      -0.7309990000    -1.9932110000    -1.9939200000
   25      H      -0.0469910000    -9.6159850000    -0.2620470000
   26      C       0.0000000000     0.0000000000     0.0000000000
   27      S       0.0806150000     0.8958110000     1.5107320000
   28      C       0.2168420000     2.4652310000     0.7276290000
   29      C       0.0791270000     0.9047690000    -1.0646650000
   30      C       0.1986590000     2.2884060000    -0.6782870000
   31      C       0.0749880000     0.8384920000    -2.4861500000
   32      C       0.1850970000     2.0985240000    -3.1069160000
   33      S       0.2905010000     3.3415680000    -1.9657350000
   34      C       0.2119320000     2.3516230000    -4.5599720000
   35      O       0.1335450000     1.4214160000    -5.3502770000
   36      O       0.3269940000     3.6296490000    -5.0043750000
   37      F      -0.0182140000    -0.2717340000    -3.2462900000
   38      C       0.3683670000     3.9861010000    -6.3349760000
   39      H       0.4652700000     5.0868060000    -6.3702680000
   40      H      -0.5531400000     3.6758780000    -6.8756090000
   41      H       1.2298740000     3.5192630000    -6.8618780000
   42      H       0.2970910000     3.3817460000     1.3215100000
 ----------------------------------------------------------------

   10   -2754.2976475625      8.09e-07  Convergence criterion met
 Total energy in the final basis set =    -2754.2976475625
        RIMP2         total energy =     -2759.3522756843 a.u.

                    Orbital Energies (a.u.)
 --------------------------------------------------------------

 Alpha MOs
 -- Occupied --
-92.0161 -91.9948 -91.9917 -91.9872 -26.3372 -20.6117 -20.5932 -20.5918
-20.5493 -11.4098 -11.3785 -11.3204 -11.3196 -11.3144 -11.2974 -11.2965
-11.2961 -11.2917 -11.2884 -11.2883 -11.2879 -11.2855 -11.2849 -11.2809
-11.2809 -11.2624 -11.2607 -11.2585 -11.2506  -9.0146  -8.9988  -8.9922
 -8.9871  -6.6953  -6.6948  -6.6943  -6.6801  -6.6794  -6.6781  -6.6732
 -6.6725  -6.6715  -6.6680  -6.6674  -6.6666  -1.6510  -1.4714  -1.4174
 -1.4145  -1.3667  -1.2336  -1.1976  -1.1699  -1.1425  -1.0851  -1.0533
 -1.0481  -1.0280  -1.0040  -0.9942  -0.9723  -0.9614  -0.9510  -0.9385
 -0.8973  -0.8695  -0.8522  -0.8063  -0.7958  -0.7889  -0.7726  -0.7696
 -0.7583  -0.7333  -0.7207  -0.7185  -0.7020  -0.6894  -0.6846  -0.6783
 -0.6722  -0.6623  -0.6598  -0.6528  -0.6299  -0.6204  -0.6164  -0.6061
 -0.6003  -0.5939  -0.5885  -0.5769  -0.5694  -0.5602  -0.5544  -0.5494
 -0.5375  -0.5271  -0.5227  -0.5205  -0.5176  -0.5097  -0.5051  -0.4962
 -0.4862  -0.4843  -0.4802  -0.4686  -0.4621  -0.4611  -0.4594  -0.4229
 -0.3985  -0.3865  -0.3597  -0.3507  -0.3254  -0.2851  -0.2483

          Ground-State Mulliken Net Atomic Charges

     Atom                 Charge (a.u.)
  ----------------------------------------
      1 C                    -0.185994
      2 C                    -0.255199
      3 S                    -0.019644
      4 C                    -0.012020
      5 H                     0.196515
      6 C                    -0.029419
      7 C                     0.250577
      8 C                     0.240083
      9 C                    -0.038989
     10 C                    -0.037254
     11 O                    -0.333092
     12 O                    -0.338810
     13 C                    -0.086183
     14 H                     0.124325
     15 H                     0.091227
     16 H                     0.094240
     17 C                    -0.087999
     18 H                     0.125844
     19 H                     0.094951
     20 H                     0.089707
     21 C                    -0.202325
     22 S                    -0.033902
     23 C                    -0.031612
     24 H                     0.200753
     25 H                     0.206936
     26 C                    -0.018138
     27 S                     0.086482
     28 C                    -0.241289
     29 C                    -0.055507
     30 C                    -0.019366
     31 C                     0.388572
     32 C                    -0.141788
     33 S                     0.036323
     34 C                     0.460660
     35 O                    -0.452375
     36 O                    -0.298039
     37 F                    -0.215438
     38 C                    -0.055114
     39 H                     0.116624
     40 H                     0.084388
     41 H                     0.084359
     42 H                     0.216930
  ----------------------------------------
  Sum of atomic charges =     0.000000

                    Cartesian Multipole Moments
 -----------------------------------------------------------------
    Charge (ESU x 10^10)
                -0.0000
    Dipole Moment (Debye)
         X       0.5212      Y       1.0969      Z       3.1434
       Tot       3.3698
    Quadrupole Moments (Debye-Ang)
        XX    -201.4661     XY       0.2437     YY    -156.6131
        XZ       2.0417     YZ      -9.1933     ZZ    -181.7107

 Total job time:  287.60s(wall), 9687.48s(cpu)
        *  Thank you very much for using Q-Chem.  Have a nice day.  *
