 Q-Chem 5.4, Q-Chem, Inc., Pleasanton, CA (2021)
 Q-Chem 5.4.0 for Intel X86 EM64T Linux

User input:
--------------------------------------------------------------
$molecule
0 1
C	0.255459	-8.519741	0.093711
C	-0.799036	-7.635967	-0.083869
S	1.789425	-7.651740	0.345260
C	-0.418360	-6.261894	-0.018411
H	-1.834294	-7.954738	-0.259169
C	0.987769	-6.079985	0.229701
C	1.555260	-4.798382	0.302697
C	-1.294992	-5.153542	-0.196459
C	-0.726408	-3.869626	-0.127651
C	0.680716	-3.688927	0.123544
O	-2.601852	-5.481075	-0.396706
O	2.868193	-4.479871	0.502673
C	3.691495	-5.356026	1.262918
H	4.614080	-4.790496	1.494604
H	3.974195	-6.268513	0.693738
H	3.199559	-5.658187	2.212720
C	-3.490743	-4.546999	-0.997016
H	-4.416630	-5.107564	-1.226691
H	-3.073934	-4.131473	-1.939526
H	-3.746794	-3.712085	-0.309214
C	1.058247	-2.314326	0.186133
S	-1.527599	-2.295487	-0.256010
C	0.000000	-1.435180	0.000000
H	2.092285	-1.993211	0.363896
H	0.250435	-9.615985	0.090328
C	0.000000	0.000000	0.000000
S	0.002233	0.899428	1.510732
C	0.001157	2.474749	0.727629
C	-0.000030	0.908223	-1.064665
C	-0.001545	2.297013	-0.678287
C	0.001624	0.841837	-2.486150
C	0.001494	2.106670	-3.106916
S	-0.001841	3.354171	-1.965735
C	0.006168	2.361146	-4.559972
O	0.009152	1.427646	-5.350277
O	0.009405	3.644337	-5.004375
F	0.005539	-0.272288	-3.246290
C	0.019554	4.003038	-6.334976
H	0.020155	5.108000	-6.370268
H	-0.871409	3.613681	-6.875609
H	0.918470	3.613062	-6.861878
H	0.001222	3.394771	1.321510
$end

$rem
JOBTYPE		SP
EXCHANGE	HF
CORRELATION	pRIMP2
BASIS		cc-pvtz
METHOD		rimp2
AUX_BASIS	rimp2-cc-pvtz
SOLVENT_METHOD	PCM
PURECART	11111
SYMMETRY	false
MEM_TOTAL	110000
SCF_CONVERGENCE = 6
THRESH=10
GUI = 2
$end

$solvent
dielectric 4.90
$end
--------------------------------------------------------------

             Standard Nuclear Orientation (Angstroms)
    I     Atom           X                Y                Z
 ----------------------------------------------------------------
    1      C       0.2554590000    -8.5197410000     0.0937110000
    2      C      -0.7990360000    -7.6359670000    -0.0838690000
    3      S       1.7894250000    -7.6517400000     0.3452600000
    4      C      -0.4183600000    -6.2618940000    -0.0184110000
    5      H      -1.8342940000    -7.9547380000    -0.2591690000
    6      C       0.9877690000    -6.0799850000     0.2297010000
    7      C       1.5552600000    -4.7983820000     0.3026970000
    8      C      -1.2949920000    -5.1535420000    -0.1964590000
    9      C      -0.7264080000    -3.8696260000    -0.1276510000
   10      C       0.6807160000    -3.6889270000     0.1235440000
   11      O      -2.6018520000    -5.4810750000    -0.3967060000
   12      O       2.8681930000    -4.4798710000     0.5026730000
   13      C       3.6914950000    -5.3560260000     1.2629180000
   14      H       4.6140800000    -4.7904960000     1.4946040000
   15      H       3.9741950000    -6.2685130000     0.6937380000
   16      H       3.1995590000    -5.6581870000     2.2127200000
   17      C      -3.4907430000    -4.5469990000    -0.9970160000
   18      H      -4.4166300000    -5.1075640000    -1.2266910000
   19      H      -3.0739340000    -4.1314730000    -1.9395260000
   20      H      -3.7467940000    -3.7120850000    -0.3092140000
   21      C       1.0582470000    -2.3143260000     0.1861330000
   22      S      -1.5275990000    -2.2954870000    -0.2560100000
   23      C       0.0000000000    -1.4351800000     0.0000000000
   24      H       2.0922850000    -1.9932110000     0.3638960000
   25      H       0.2504350000    -9.6159850000     0.0903280000
   26      C       0.0000000000     0.0000000000     0.0000000000
   27      S       0.0022330000     0.8994280000     1.5107320000
   28      C       0.0011570000     2.4747490000     0.7276290000
   29      C      -0.0000300000     0.9082230000    -1.0646650000
   30      C      -0.0015450000     2.2970130000    -0.6782870000
   31      C       0.0016240000     0.8418370000    -2.4861500000
   32      C       0.0014940000     2.1066700000    -3.1069160000
   33      S      -0.0018410000     3.3541710000    -1.9657350000
   34      C       0.0061680000     2.3611460000    -4.5599720000
   35      O       0.0091520000     1.4276460000    -5.3502770000
   36      O       0.0094050000     3.6443370000    -5.0043750000
   37      F       0.0055390000    -0.2722880000    -3.2462900000
   38      C       0.0195540000     4.0030380000    -6.3349760000
   39      H       0.0201550000     5.1080000000    -6.3702680000
   40      H      -0.8714090000     3.6136810000    -6.8756090000
   41      H       0.9184700000     3.6130620000    -6.8618780000
   42      H       0.0012220000     3.3947710000     1.3215100000
 ----------------------------------------------------------------

   10   -2754.2953095831      8.83e-07  Convergence criterion met
 Total energy in the final basis set =    -2754.2953095831
        RIMP2         total energy =     -2759.3474281686 a.u.

                    Orbital Energies (a.u.)
 --------------------------------------------------------------

 Alpha MOs
 -- Occupied --
-92.0164 -91.9942 -91.9899 -91.9867 -26.3338 -20.6119 -20.5924 -20.5921
-20.5498 -11.4101 -11.3770 -11.3194 -11.3191 -11.3097 -11.2969 -11.2958
-11.2934 -11.2930 -11.2883 -11.2869 -11.2868 -11.2865 -11.2843 -11.2824
-11.2805 -11.2612 -11.2600 -11.2599 -11.2502  -9.0144  -8.9982  -8.9902
 -8.9867  -6.6951  -6.6945  -6.6941  -6.6795  -6.6788  -6.6775  -6.6711
 -6.6704  -6.6695  -6.6676  -6.6670  -6.6661  -1.6466  -1.4716  -1.4165
 -1.4148  -1.3669  -1.2328  -1.1962  -1.1683  -1.1415  -1.0841  -1.0524
 -1.0471  -1.0273  -1.0026  -0.9933  -0.9710  -0.9616  -0.9506  -0.9384
 -0.8960  -0.8688  -0.8510  -0.8054  -0.7900  -0.7886  -0.7741  -0.7679
 -0.7586  -0.7330  -0.7179  -0.7149  -0.7014  -0.6885  -0.6834  -0.6783
 -0.6708  -0.6608  -0.6588  -0.6529  -0.6310  -0.6204  -0.6172  -0.6062
 -0.6017  -0.5941  -0.5827  -0.5776  -0.5709  -0.5667  -0.5553  -0.5510
 -0.5341  -0.5264  -0.5241  -0.5166  -0.5145  -0.5075  -0.5013  -0.4934
 -0.4913  -0.4837  -0.4773  -0.4681  -0.4616  -0.4609  -0.4606  -0.4054
 -0.4015  -0.3876  -0.3578  -0.3485  -0.3150  -0.2891  -0.2595

          Ground-State Mulliken Net Atomic Charges

     Atom                 Charge (a.u.)
  ----------------------------------------
      1 C                    -0.186789
      2 C                    -0.254277
      3 S                    -0.021426
      4 C                    -0.012426
      5 H                     0.196640
      6 C                    -0.028053
      7 C                     0.246944
      8 C                     0.239523
      9 C                    -0.046720
     10 C                    -0.033692
     11 O                    -0.333307
     12 O                    -0.339733
     13 C                    -0.085762
     14 H                     0.122759
     15 H                     0.091413
     16 H                     0.093973
     17 C                    -0.086775
     18 H                     0.124626
     19 H                     0.095961
     20 H                     0.089453
     21 C                    -0.212445
     22 S                     0.002695
     23 C                    -0.047515
     24 H                     0.197179
     25 H                     0.206715
     26 C                    -0.020800
     27 S                     0.119875
     28 C                    -0.241181
     29 C                    -0.092894
     30 C                    -0.005972
     31 C                     0.397872
     32 C                    -0.159835
     33 S                     0.036892
     34 C                     0.460855
     35 O                    -0.450347
     36 O                    -0.297804
     37 F                    -0.210950
     38 C                    -0.055000
     39 H                     0.116516
     40 H                     0.084513
     41 H                     0.084517
     42 H                     0.214784
  ----------------------------------------
  Sum of atomic charges =     0.000000

                    Cartesian Multipole Moments
 -----------------------------------------------------------------
    Charge (ESU x 10^10)
                -0.0000
    Dipole Moment (Debye)
         X      -0.0809      Y       1.4303      Z       3.5213
       Tot       3.8015
    Quadrupole Moments (Debye-Ang)
        XX    -180.3631     XY      -0.2072     YY    -157.9900
        XZ       9.2501     YZ     -12.1957     ZZ    -202.7346

 Total job time:  299.50s(wall), 9373.10s(cpu)
        *  Thank you very much for using Q-Chem.  Have a nice day.  *
