 Q-Chem 5.4, Q-Chem, Inc., Pleasanton, CA (2021)
 Q-Chem 5.4.0 for Intel X86 EM64T Linux

User input:
--------------------------------------------------------------
$molecule
0 1
C	-0.136647	-8.519741	0.235306
C	0.221346	-7.635967	-0.772334
S	-0.650746	-7.651740	1.702286
C	0.090779	-6.261894	-0.408807
H	0.573754	-7.954738	-1.761423
C	-0.397735	-6.079985	0.932876
C	-0.568166	-4.798382	1.479069
C	0.418347	-5.153542	-1.241204
C	0.251852	-3.869626	-0.693206
C	-0.239872	-3.688927	0.648921
O	0.842486	-5.481075	-2.493437
O	-0.993092	-4.479871	2.737331
C	-1.884752	-5.356026	3.416110
H	-2.273124	-4.790496	4.284447
H	-1.373310	-6.268513	3.793352
H	-2.734702	-5.658187	2.766716
C	1.588030	-4.546999	-3.264581
H	1.974995	-5.107564	-4.136519
H	2.443843	-4.131473	-2.690439
H	0.955140	-3.712085	-3.636177
C	-0.367068	-2.314326	1.009848
S	0.517386	-2.295487	-1.459936
C	-0.000000	-1.435180	-0.000000
H	-0.721689	-1.993211	1.997308
H	-0.132444	-9.615985	0.230945
C	0.000000	0.000000	0.000000
S	0.382139	0.814215	1.510732
C	1.046923	2.242395	0.727629
C	0.383804	0.823142	-1.064665
C	0.969360	2.082453	-0.678287
C	0.357247	0.762277	-2.486150
C	0.891671	1.908660	-3.106916
S	1.415865	3.040689	-1.965735
C	1.003453	2.137318	-4.559972
O	0.611644	1.290019	-5.350277
O	1.548687	3.298916	-5.004375
F	-0.110054	-0.249117	-3.246290
C	1.709479	3.619721	-6.334976
H	2.177001	4.620902	-6.370268
H	0.737443	3.643380	-6.875609
H	2.359363	2.886384	-6.861878
H	1.435800	3.076190	1.321510
$end

$rem
JOBTYPE		SP
EXCHANGE	HF
CORRELATION	pRIMP2
BASIS		cc-pvtz
METHOD		rimp2
AUX_BASIS	rimp2-cc-pvtz
SOLVENT_METHOD	PCM
PURECART	11111
SYMMETRY	false
MEM_TOTAL	110000
SCF_CONVERGENCE = 6
THRESH=10
GUI = 2
$end

$solvent
dielectric 4.90
$end
--------------------------------------------------------------

             Standard Nuclear Orientation (Angstroms)
    I     Atom           X                Y                Z
 ----------------------------------------------------------------
    1      C      -0.1366470000    -8.5197410000     0.2353060000
    2      C       0.2213460000    -7.6359670000    -0.7723340000
    3      S      -0.6507460000    -7.6517400000     1.7022860000
    4      C       0.0907790000    -6.2618940000    -0.4088070000
    5      H       0.5737540000    -7.9547380000    -1.7614230000
    6      C      -0.3977350000    -6.0799850000     0.9328760000
    7      C      -0.5681660000    -4.7983820000     1.4790690000
    8      C       0.4183470000    -5.1535420000    -1.2412040000
    9      C       0.2518520000    -3.8696260000    -0.6932060000
   10      C      -0.2398720000    -3.6889270000     0.6489210000
   11      O       0.8424860000    -5.4810750000    -2.4934370000
   12      O      -0.9930920000    -4.4798710000     2.7373310000
   13      C      -1.8847520000    -5.3560260000     3.4161100000
   14      H      -2.2731240000    -4.7904960000     4.2844470000
   15      H      -1.3733100000    -6.2685130000     3.7933520000
   16      H      -2.7347020000    -5.6581870000     2.7667160000
   17      C       1.5880300000    -4.5469990000    -3.2645810000
   18      H       1.9749950000    -5.1075640000    -4.1365190000
   19      H       2.4438430000    -4.1314730000    -2.6904390000
   20      H       0.9551400000    -3.7120850000    -3.6361770000
   21      C      -0.3670680000    -2.3143260000     1.0098480000
   22      S       0.5173860000    -2.2954870000    -1.4599360000
   23      C       0.0000000000    -1.4351800000     0.0000000000
   24      H      -0.7216890000    -1.9932110000     1.9973080000
   25      H      -0.1324440000    -9.6159850000     0.2309450000
   26      C       0.0000000000     0.0000000000     0.0000000000
   27      S       0.3821390000     0.8142150000     1.5107320000
   28      C       1.0469230000     2.2423950000     0.7276290000
   29      C       0.3838040000     0.8231420000    -1.0646650000
   30      C       0.9693600000     2.0824530000    -0.6782870000
   31      C       0.3572470000     0.7622770000    -2.4861500000
   32      C       0.8916710000     1.9086600000    -3.1069160000
   33      S       1.4158650000     3.0406890000    -1.9657350000
   34      C       1.0034530000     2.1373180000    -4.5599720000
   35      O       0.6116440000     1.2900190000    -5.3502770000
   36      O       1.5486870000     3.2989160000    -5.0043750000
   37      F      -0.1100540000    -0.2491170000    -3.2462900000
   38      C       1.7094790000     3.6197210000    -6.3349760000
   39      H       2.1770010000     4.6209020000    -6.3702680000
   40      H       0.7374430000     3.6433800000    -6.8756090000
   41      H       2.3593630000     2.8863840000    -6.8618780000
   42      H       1.4358000000     3.0761900000     1.3215100000
 ----------------------------------------------------------------

   10   -2754.2828436163      8.50e-07  Convergence criterion met
 Total energy in the final basis set =    -2754.2828436163
        RIMP2         total energy =     -2759.3431490434 a.u.

                    Orbital Energies (a.u.)
 --------------------------------------------------------------

 Alpha MOs
 -- Occupied --
-92.0152 -91.9972 -91.9861 -91.9856 -26.3351 -20.6129 -20.5912 -20.5910
-20.5514 -11.4116 -11.3784 -11.3182 -11.3165 -11.3082 -11.3002 -11.2991
-11.2979 -11.2964 -11.2890 -11.2859 -11.2857 -11.2845 -11.2841 -11.2832
-11.2788 -11.2607 -11.2577 -11.2544 -11.2494  -9.0138  -9.0011  -8.9870
 -8.9856  -6.6945  -6.6939  -6.6934  -6.6824  -6.6817  -6.6804  -6.6678
 -6.6672  -6.6665  -6.6661  -6.6659  -6.6651  -1.6501  -1.4728  -1.4154
 -1.4136  -1.3682  -1.2361  -1.1953  -1.1687  -1.1428  -1.0844  -1.0516
 -1.0485  -1.0297  -1.0016  -0.9932  -0.9731  -0.9600  -0.9496  -0.9386
 -0.8952  -0.8710  -0.8502  -0.8093  -0.7947  -0.7868  -0.7753  -0.7636
 -0.7574  -0.7319  -0.7210  -0.7176  -0.6998  -0.6894  -0.6828  -0.6793
 -0.6740  -0.6620  -0.6581  -0.6519  -0.6277  -0.6191  -0.6159  -0.6075
 -0.6037  -0.5970  -0.5861  -0.5719  -0.5686  -0.5632  -0.5587  -0.5524
 -0.5313  -0.5265  -0.5244  -0.5171  -0.5146  -0.5080  -0.5023  -0.4954
 -0.4868  -0.4841  -0.4789  -0.4652  -0.4624  -0.4621  -0.4581  -0.4226
 -0.3938  -0.3866  -0.3607  -0.3496  -0.3237  -0.2850  -0.2462

          Ground-State Mulliken Net Atomic Charges

     Atom                 Charge (a.u.)
  ----------------------------------------
      1 C                    -0.190210
      2 C                    -0.254354
      3 S                    -0.024231
      4 C                    -0.017160
      5 H                     0.196350
      6 C                    -0.028261
      7 C                     0.238149
      8 C                     0.242180
      9 C                    -0.045649
     10 C                    -0.011394
     11 O                    -0.333354
     12 O                    -0.340504
     13 C                    -0.085566
     14 H                     0.122009
     15 H                     0.090878
     16 H                     0.094114
     17 C                    -0.090120
     18 H                     0.125676
     19 H                     0.093937
     20 H                     0.092056
     21 C                    -0.261762
     22 S                    -0.017091
     23 C                     0.006480
     24 H                     0.189326
     25 H                     0.206174
     26 C                     0.032901
     27 S                     0.114746
     28 C                    -0.228164
     29 C                    -0.116207
     30 C                    -0.018878
     31 C                     0.347972
     32 C                    -0.131941
     33 S                     0.048330
     34 C                     0.458410
     35 O                    -0.448372
     36 O                    -0.297776
     37 F                    -0.206786
     38 C                    -0.054731
     39 H                     0.116925
     40 H                     0.084831
     41 H                     0.084529
     42 H                     0.216541
  ----------------------------------------
  Sum of atomic charges =     0.000000

                    Cartesian Multipole Moments
 -----------------------------------------------------------------
    Charge (ESU x 10^10)
                 0.0000
    Dipole Moment (Debye)
         X       1.4875      Y       2.0351      Z       2.7217
       Tot       3.7097
    Quadrupole Moments (Debye-Ang)
        XX    -191.3253     XY       7.8154     YY    -163.7033
        XZ     -16.3004     YZ      -9.1283     ZZ    -187.9004

 Total job time:  309.39s(wall), 9769.39s(cpu)
        *  Thank you very much for using Q-Chem.  Have a nice day.  *
