 Q-Chem 5.4, Q-Chem, Inc., Pleasanton, CA (2021)
 Q-Chem 5.4.0 for Intel X86 EM64T Linux

User input:
--------------------------------------------------------------
$molecule
0 1
C	0.255459	-8.519741	0.093711
C	-0.799036	-7.635967	-0.083869
S	1.789425	-7.651740	0.345260
C	-0.418360	-6.261894	-0.018411
H	-1.834294	-7.954738	-0.259169
C	0.987769	-6.079985	0.229701
C	1.555260	-4.798382	0.302697
C	-1.294992	-5.153542	-0.196459
C	-0.726408	-3.869626	-0.127651
C	0.680716	-3.688927	0.123544
O	-2.601852	-5.481075	-0.396706
O	2.868193	-4.479871	0.502673
C	3.691495	-5.356026	1.262918
H	4.614080	-4.790496	1.494604
H	3.974195	-6.268513	0.693738
H	3.199559	-5.658187	2.212720
C	-3.490743	-4.546999	-0.997016
H	-4.416630	-5.107564	-1.226691
H	-3.073934	-4.131473	-1.939526
H	-3.746794	-3.712085	-0.309214
C	1.058247	-2.314326	0.186133
S	-1.527599	-2.295487	-0.256010
C	-0.000000	-1.435180	-0.000000
H	2.092285	-1.993211	0.363896
H	0.250435	-9.615985	0.090328
C	0.000000	0.000000	0.000000
S	0.579852	0.687566	1.510732
C	1.591625	1.895024	0.727629
C	0.583771	0.695758	-1.064665
C	1.475308	1.760606	-0.678287
C	0.542366	0.643841	-2.486150
C	1.355286	1.612843	-3.106916
S	2.154609	2.570627	-1.965735
C	1.522440	1.804778	-4.559972
O	0.924684	1.087757	-5.350277
O	2.349739	2.785679	-5.004375
F	-0.170780	-0.212144	-3.246290
C	2.588082	3.053936	-6.334976
H	3.298799	3.899999	-6.370268
H	1.655291	3.328371	-6.875609
H	3.026021	2.177385	-6.861878
H	2.183053	2.599759	1.321510
$end

$rem
JOBTYPE		SP
EXCHANGE	HF
CORRELATION	pRIMP2
BASIS		cc-pvtz
METHOD		rimp2
AUX_BASIS	rimp2-cc-pvtz
SOLVENT_METHOD	PCM
PURECART	11111
SYMMETRY	false
MEM_TOTAL	110000
SCF_CONVERGENCE = 6
THRESH=10
GUI = 2
$end

$solvent
dielectric 4.90
$end
--------------------------------------------------------------

             Standard Nuclear Orientation (Angstroms)
    I     Atom           X                Y                Z
 ----------------------------------------------------------------
    1      C       0.2554590000    -8.5197410000     0.0937110000
    2      C      -0.7990360000    -7.6359670000    -0.0838690000
    3      S       1.7894250000    -7.6517400000     0.3452600000
    4      C      -0.4183600000    -6.2618940000    -0.0184110000
    5      H      -1.8342940000    -7.9547380000    -0.2591690000
    6      C       0.9877690000    -6.0799850000     0.2297010000
    7      C       1.5552600000    -4.7983820000     0.3026970000
    8      C      -1.2949920000    -5.1535420000    -0.1964590000
    9      C      -0.7264080000    -3.8696260000    -0.1276510000
   10      C       0.6807160000    -3.6889270000     0.1235440000
   11      O      -2.6018520000    -5.4810750000    -0.3967060000
   12      O       2.8681930000    -4.4798710000     0.5026730000
   13      C       3.6914950000    -5.3560260000     1.2629180000
   14      H       4.6140800000    -4.7904960000     1.4946040000
   15      H       3.9741950000    -6.2685130000     0.6937380000
   16      H       3.1995590000    -5.6581870000     2.2127200000
   17      C      -3.4907430000    -4.5469990000    -0.9970160000
   18      H      -4.4166300000    -5.1075640000    -1.2266910000
   19      H      -3.0739340000    -4.1314730000    -1.9395260000
   20      H      -3.7467940000    -3.7120850000    -0.3092140000
   21      C       1.0582470000    -2.3143260000     0.1861330000
   22      S      -1.5275990000    -2.2954870000    -0.2560100000
   23      C       0.0000000000    -1.4351800000     0.0000000000
   24      H       2.0922850000    -1.9932110000     0.3638960000
   25      H       0.2504350000    -9.6159850000     0.0903280000
   26      C       0.0000000000     0.0000000000     0.0000000000
   27      S       0.5798520000     0.6875660000     1.5107320000
   28      C       1.5916250000     1.8950240000     0.7276290000
   29      C       0.5837710000     0.6957580000    -1.0646650000
   30      C       1.4753080000     1.7606060000    -0.6782870000
   31      C       0.5423660000     0.6438410000    -2.4861500000
   32      C       1.3552860000     1.6128430000    -3.1069160000
   33      S       2.1546090000     2.5706270000    -1.9657350000
   34      C       1.5224400000     1.8047780000    -4.5599720000
   35      O       0.9246840000     1.0877570000    -5.3502770000
   36      O       2.3497390000     2.7856790000    -5.0043750000
   37      F      -0.1707800000    -0.2121440000    -3.2462900000
   38      C       2.5880820000     3.0539360000    -6.3349760000
   39      H       3.2987990000     3.8999990000    -6.3702680000
   40      H       1.6552910000     3.3283710000    -6.8756090000
   41      H       3.0260210000     2.1773850000    -6.8618780000
   42      H       2.1830530000     2.5997590000     1.3215100000
 ----------------------------------------------------------------

   11   -2754.2664687735      5.22e-07  Convergence criterion met
 Total energy in the final basis set =    -2754.2664687735
        RIMP2         total energy =     -2759.3289733624 a.u.

                    Orbital Energies (a.u.)
 --------------------------------------------------------------

 Alpha MOs
 -- Occupied --
-92.0162 -91.9992 -91.9849 -91.9840 -26.3338 -20.6138 -20.5909 -20.5902
-20.5533 -11.4130 -11.3761 -11.3173 -11.3154 -11.3078 -11.3040 -11.2974
-11.2924 -11.2914 -11.2893 -11.2886 -11.2856 -11.2855 -11.2824 -11.2824
-11.2780 -11.2588 -11.2565 -11.2524 -11.2488  -9.0146  -9.0030  -8.9848
 -8.9846  -6.6952  -6.6945  -6.6942  -6.6842  -6.6836  -6.6823  -6.6658
 -6.6655  -6.6652  -6.6648  -6.6643  -6.6639  -1.6468  -1.4737  -1.4150
 -1.4129  -1.3695  -1.2369  -1.1935  -1.1678  -1.1428  -1.0828  -1.0498
 -1.0490  -1.0297  -0.9996  -0.9919  -0.9729  -0.9593  -0.9490  -0.9386
 -0.8935  -0.8718  -0.8461  -0.8051  -0.7915  -0.7864  -0.7753  -0.7679
 -0.7556  -0.7310  -0.7179  -0.7153  -0.7000  -0.6904  -0.6811  -0.6799
 -0.6735  -0.6601  -0.6575  -0.6515  -0.6289  -0.6188  -0.6153  -0.6086
 -0.6035  -0.5986  -0.5848  -0.5735  -0.5694  -0.5650  -0.5533  -0.5520
 -0.5296  -0.5261  -0.5225  -0.5148  -0.5129  -0.5079  -0.5009  -0.4917
 -0.4904  -0.4869  -0.4722  -0.4642  -0.4633  -0.4622  -0.4580  -0.4057
 -0.3980  -0.3852  -0.3597  -0.3436  -0.3112  -0.2947  -0.2557

          Ground-State Mulliken Net Atomic Charges

     Atom                 Charge (a.u.)
  ----------------------------------------
      1 C                    -0.191432
      2 C                    -0.254104
      3 S                    -0.025234
      4 C                    -0.017269
      5 H                     0.196045
      6 C                    -0.028525
      7 C                     0.238662
      8 C                     0.243543
      9 C                    -0.048350
     10 C                    -0.015262
     11 O                    -0.333744
     12 O                    -0.341041
     13 C                    -0.085565
     14 H                     0.121759
     15 H                     0.091038
     16 H                     0.093407
     17 C                    -0.086261
     18 H                     0.124221
     19 H                     0.095311
     20 H                     0.089209
     21 C                    -0.233121
     22 S                    -0.008007
     23 C                    -0.030585
     24 H                     0.198309
     25 H                     0.205802
     26 C                    -0.071609
     27 S                     0.127822
     28 C                    -0.200757
     29 C                    -0.080421
     30 C                    -0.006020
     31 C                     0.363868
     32 C                    -0.143755
     33 S                     0.054430
     34 C                     0.458319
     35 O                    -0.444221
     36 O                    -0.297312
     37 F                    -0.208906
     38 C                    -0.054682
     39 H                     0.116938
     40 H                     0.085095
     41 H                     0.085109
     42 H                     0.217298
  ----------------------------------------
  Sum of atomic charges =     0.000000

                    Cartesian Multipole Moments
 -----------------------------------------------------------------
    Charge (ESU x 10^10)
                 0.0000
    Dipole Moment (Debye)
         X       2.8180      Y       2.2753      Z       3.1907
       Tot       4.8268
    Quadrupole Moments (Debye-Ang)
        XX    -173.6114     XY       9.0782     YY    -168.8673
        XZ       1.5389     YZ     -10.1329     ZZ    -200.6192

 Total job time:  304.60s(wall), 9794.91s(cpu)
        *  Thank you very much for using Q-Chem.  Have a nice day.  *
