 Q-Chem 5.4, Q-Chem, Inc., Pleasanton, CA (2021)
 Q-Chem 5.4.0 for Intel X86 EM64T Linux

User input:
--------------------------------------------------------------
$molecule
0 1
C	-0.000687	-8.519741	0.272104
C	-0.194476	-7.635967	-0.779533
S	0.287581	-7.651740	1.799596
C	-0.125787	-6.261894	-0.399427
H	-0.383826	-7.954738	-1.812314
C	0.121989	-6.079985	1.006762
C	0.247488	-4.798382	1.564994
C	-0.258303	-5.153542	-1.284087
C	-0.128493	-3.869626	-0.726260
C	0.116725	-3.688927	0.681918
O	-0.517104	-5.481075	-2.580622
O	0.508622	-4.479871	2.867144
C	0.075811	-5.356026	3.900814
H	0.173640	-4.790496	4.847002
H	0.707354	-6.268513	3.971794
H	-0.984963	-5.658187	3.763397
C	-0.257016	-4.546999	-3.621225
H	-0.357864	-5.107564	-4.569828
H	0.771211	-4.131473	-3.551910
H	-0.990913	-3.712085	-3.626592
C	0.187034	-2.314326	1.058088
S	-0.281899	-2.295487	-1.523035
C	-0.000000	-1.435180	-0.000000
H	0.373653	-1.993211	2.090565
H	0.000773	-9.615985	0.266226
C	0.000000	0.000000	0.000000
S	0.579852	0.687566	1.510732
C	1.591625	1.895024	0.727629
C	0.583771	0.695758	-1.064665
C	1.475308	1.760606	-0.678287
C	0.542366	0.643841	-2.486150
C	1.355286	1.612843	-3.106916
S	2.154609	2.570627	-1.965735
C	1.522440	1.804778	-4.559972
O	0.924684	1.087757	-5.350277
O	2.349739	2.785679	-5.004375
F	-0.170780	-0.212144	-3.246290
C	2.588082	3.053936	-6.334976
H	3.298799	3.899999	-6.370268
H	1.655291	3.328371	-6.875609
H	3.026021	2.177385	-6.861878
H	2.183053	2.599759	1.321510
$end

$rem
JOBTYPE		SP
EXCHANGE	HF
CORRELATION	pRIMP2
BASIS		cc-pvtz
METHOD		rimp2
AUX_BASIS	rimp2-cc-pvtz
SOLVENT_METHOD	PCM
PURECART	11111
SYMMETRY	false
MEM_TOTAL	110000
SCF_CONVERGENCE = 6
THRESH=10
GUI = 2
$end

$solvent
dielectric 4.90
$end
--------------------------------------------------------------

             Standard Nuclear Orientation (Angstroms)
    I     Atom           X                Y                Z
 ----------------------------------------------------------------
    1      C      -0.0006870000    -8.5197410000     0.2721040000
    2      C      -0.1944760000    -7.6359670000    -0.7795330000
    3      S       0.2875810000    -7.6517400000     1.7995960000
    4      C      -0.1257870000    -6.2618940000    -0.3994270000
    5      H      -0.3838260000    -7.9547380000    -1.8123140000
    6      C       0.1219890000    -6.0799850000     1.0067620000
    7      C       0.2474880000    -4.7983820000     1.5649940000
    8      C      -0.2583030000    -5.1535420000    -1.2840870000
    9      C      -0.1284930000    -3.8696260000    -0.7262600000
   10      C       0.1167250000    -3.6889270000     0.6819180000
   11      O      -0.5171040000    -5.4810750000    -2.5806220000
   12      O       0.5086220000    -4.4798710000     2.8671440000
   13      C       0.0758110000    -5.3560260000     3.9008140000
   14      H       0.1736400000    -4.7904960000     4.8470020000
   15      H       0.7073540000    -6.2685130000     3.9717940000
   16      H      -0.9849630000    -5.6581870000     3.7633970000
   17      C      -0.2570160000    -4.5469990000    -3.6212250000
   18      H      -0.3578640000    -5.1075640000    -4.5698280000
   19      H       0.7712110000    -4.1314730000    -3.5519100000
   20      H      -0.9909130000    -3.7120850000    -3.6265920000
   21      C       0.1870340000    -2.3143260000     1.0580880000
   22      S      -0.2818990000    -2.2954870000    -1.5230350000
   23      C       0.0000000000    -1.4351800000     0.0000000000
   24      H       0.3736530000    -1.9932110000     2.0905650000
   25      H       0.0007730000    -9.6159850000     0.2662260000
   26      C       0.0000000000     0.0000000000     0.0000000000
   27      S       0.5798520000     0.6875660000     1.5107320000
   28      C       1.5916250000     1.8950240000     0.7276290000
   29      C       0.5837710000     0.6957580000    -1.0646650000
   30      C       1.4753080000     1.7606060000    -0.6782870000
   31      C       0.5423660000     0.6438410000    -2.4861500000
   32      C       1.3552860000     1.6128430000    -3.1069160000
   33      S       2.1546090000     2.5706270000    -1.9657350000
   34      C       1.5224400000     1.8047780000    -4.5599720000
   35      O       0.9246840000     1.0877570000    -5.3502770000
   36      O       2.3497390000     2.7856790000    -5.0043750000
   37      F      -0.1707800000    -0.2121440000    -3.2462900000
   38      C       2.5880820000     3.0539360000    -6.3349760000
   39      H       3.2987990000     3.8999990000    -6.3702680000
   40      H       1.6552910000     3.3283710000    -6.8756090000
   41      H       3.0260210000     2.1773850000    -6.8618780000
   42      H       2.1830530000     2.5997590000     1.3215100000
 ----------------------------------------------------------------

   10   -2754.2635658545      9.63e-07  Convergence criterion met
 Total energy in the final basis set =    -2754.2635658545
        RIMP2         total energy =     -2759.3296688591 a.u.

                    Orbital Energies (a.u.)
 --------------------------------------------------------------

 Alpha MOs
 -- Occupied --
-92.0150 -92.0012 -91.9841 -91.9820 -26.3363 -20.6146 -20.5900 -20.5888
-20.5543 -11.4141 -11.3786 -11.3167 -11.3127 -11.3100 -11.3060 -11.3002
-11.2990 -11.2971 -11.2907 -11.2899 -11.2848 -11.2846 -11.2816 -11.2797
-11.2763 -11.2584 -11.2544 -11.2481 -11.2468  -9.0139  -9.0050  -8.9840
 -8.9832  -6.6946  -6.6939  -6.6935  -6.6862  -6.6855  -6.6842  -6.6650
 -6.6644  -6.6640  -6.6635  -6.6633  -6.6622  -1.6519  -1.4746  -1.4140
 -1.4116  -1.3705  -1.2397  -1.1932  -1.1688  -1.1435  -1.0839  -1.0513
 -1.0482  -1.0320  -0.9995  -0.9925  -0.9748  -0.9582  -0.9482  -0.9387
 -0.8933  -0.8738  -0.8478  -0.8102  -0.7963  -0.7867  -0.7755  -0.7627
 -0.7557  -0.7300  -0.7225  -0.7188  -0.6987  -0.6907  -0.6818  -0.6805
 -0.6765  -0.6622  -0.6567  -0.6506  -0.6264  -0.6174  -0.6145  -0.6095
 -0.6046  -0.6015  -0.5875  -0.5688  -0.5670  -0.5647  -0.5560  -0.5522
 -0.5321  -0.5249  -0.5206  -0.5192  -0.5129  -0.5079  -0.5028  -0.4938
 -0.4862  -0.4835  -0.4768  -0.4643  -0.4634  -0.4622  -0.4534  -0.4253
 -0.3919  -0.3843  -0.3589  -0.3505  -0.3237  -0.2852  -0.2446

          Ground-State Mulliken Net Atomic Charges

     Atom                 Charge (a.u.)
  ----------------------------------------
      1 C                    -0.195195
      2 C                    -0.253376
      3 S                    -0.027110
      4 C                    -0.019358
      5 H                     0.195829
      6 C                    -0.025240
      7 C                     0.232577
      8 C                     0.243586
      9 C                    -0.044408
     10 C                    -0.015940
     11 O                    -0.333894
     12 O                    -0.341869
     13 C                    -0.085538
     14 H                     0.121275
     15 H                     0.090570
     16 H                     0.093318
     17 C                    -0.087604
     18 H                     0.124690
     19 H                     0.094119
     20 H                     0.090824
     21 C                    -0.265030
     22 S                    -0.030280
     23 C                    -0.010573
     24 H                     0.185862
     25 H                     0.205263
     26 C                    -0.029052
     27 S                     0.104271
     28 C                    -0.184316
     29 C                    -0.042944
     30 C                    -0.037536
     31 C                     0.343632
     32 C                    -0.115854
     33 S                     0.059013
     34 C                     0.456046
     35 O                    -0.444179
     36 O                    -0.297141
     37 F                    -0.207354
     38 C                    -0.054565
     39 H                     0.117301
     40 H                     0.085214
     41 H                     0.085040
     42 H                     0.219927
  ----------------------------------------
  Sum of atomic charges =     0.000000

                    Cartesian Multipole Moments
 -----------------------------------------------------------------
    Charge (ESU x 10^10)
                -0.0000
    Dipole Moment (Debye)
         X       2.7638      Y       2.9671      Z       2.3914
       Tot       4.7076
    Quadrupole Moments (Debye-Ang)
        XX    -194.0733     XY      10.7184     YY    -171.9846
        XZ      -9.1602     YZ      -8.2718     ZZ    -179.3078

 Total job time:  286.88s(wall), 9349.94s(cpu)
        *  Thank you very much for using Q-Chem.  Have a nice day.  *
