 Q-Chem 5.4, Q-Chem, Inc., Pleasanton, CA (2021)
 Q-Chem 5.4.0 for Intel X86 EM64T Linux

User input:
--------------------------------------------------------------
$molecule
0 1
C	-0.093711	-8.519741	0.255459
C	0.083869	-7.635967	-0.799036
S	-0.345260	-7.651740	1.789425
C	0.018411	-6.261894	-0.418360
H	0.259169	-7.954738	-1.834294
C	-0.229701	-6.079985	0.987769
C	-0.302697	-4.798382	1.555260
C	0.196459	-5.153542	-1.294992
C	0.127651	-3.869626	-0.726408
C	-0.123544	-3.688927	0.680716
O	0.396706	-5.481075	-2.601852
O	-0.502673	-4.479871	2.868193
C	-1.262918	-5.356026	3.691495
H	-1.494604	-4.790496	4.614080
H	-0.693738	-6.268513	3.974195
H	-2.212720	-5.658187	3.199559
C	0.997016	-4.546999	-3.490743
H	1.226691	-5.107564	-4.416630
H	1.939526	-4.131473	-3.073934
H	0.309214	-3.712085	-3.746794
C	-0.186133	-2.314326	1.058247
S	0.256010	-2.295487	-1.527599
C	0.000000	-1.435180	0.000000
H	-0.363896	-1.993211	2.092285
H	-0.090328	-9.615985	0.250435
C	0.000000	0.000000	0.000000
S	0.451648	0.777811	1.510732
C	1.238377	2.142617	0.727629
C	0.454085	0.786559	-1.064665
C	1.147169	1.990043	-0.678287
C	0.422325	0.728240	-2.486150
C	1.054629	1.823683	-3.106916
S	1.675491	2.905718	-1.965735
C	1.185914	2.041729	-4.559972
O	0.721749	1.231802	-5.350277
O	1.830313	3.151386	-5.004375
F	-0.131347	-0.238577	-3.246290
C	2.018453	3.456956	-6.334976
H	2.571455	4.413580	-6.370268
H	1.052178	3.565244	-6.875609
H	2.601950	2.669768	-6.861878
H	1.698444	2.939346	1.321510
$end

$rem
JOBTYPE		SP
EXCHANGE	HF
CORRELATION	pRIMP2
BASIS		cc-pvtz
METHOD		rimp2
AUX_BASIS	rimp2-cc-pvtz
SOLVENT_METHOD	PCM
PURECART	11111
SYMMETRY	false
MEM_TOTAL	110000
SCF_CONVERGENCE = 6
THRESH=10
GUI = 2
$end

$solvent
dielectric 4.90
$end
--------------------------------------------------------------

             Standard Nuclear Orientation (Angstroms)
    I     Atom           X                Y                Z
 ----------------------------------------------------------------
    1      C      -0.0937110000    -8.5197410000     0.2554590000
    2      C       0.0838690000    -7.6359670000    -0.7990360000
    3      S      -0.3452600000    -7.6517400000     1.7894250000
    4      C       0.0184110000    -6.2618940000    -0.4183600000
    5      H       0.2591690000    -7.9547380000    -1.8342940000
    6      C      -0.2297010000    -6.0799850000     0.9877690000
    7      C      -0.3026970000    -4.7983820000     1.5552600000
    8      C       0.1964590000    -5.1535420000    -1.2949920000
    9      C       0.1276510000    -3.8696260000    -0.7264080000
   10      C      -0.1235440000    -3.6889270000     0.6807160000
   11      O       0.3967060000    -5.4810750000    -2.6018520000
   12      O      -0.5026730000    -4.4798710000     2.8681930000
   13      C      -1.2629180000    -5.3560260000     3.6914950000
   14      H      -1.4946040000    -4.7904960000     4.6140800000
   15      H      -0.6937380000    -6.2685130000     3.9741950000
   16      H      -2.2127200000    -5.6581870000     3.1995590000
   17      C       0.9970160000    -4.5469990000    -3.4907430000
   18      H       1.2266910000    -5.1075640000    -4.4166300000
   19      H       1.9395260000    -4.1314730000    -3.0739340000
   20      H       0.3092140000    -3.7120850000    -3.7467940000
   21      C      -0.1861330000    -2.3143260000     1.0582470000
   22      S       0.2560100000    -2.2954870000    -1.5275990000
   23      C       0.0000000000    -1.4351800000     0.0000000000
   24      H      -0.3638960000    -1.9932110000     2.0922850000
   25      H      -0.0903280000    -9.6159850000     0.2504350000
   26      C       0.0000000000     0.0000000000     0.0000000000
   27      S       0.4516480000     0.7778110000     1.5107320000
   28      C       1.2383770000     2.1426170000     0.7276290000
   29      C       0.4540850000     0.7865590000    -1.0646650000
   30      C       1.1471690000     1.9900430000    -0.6782870000
   31      C       0.4223250000     0.7282400000    -2.4861500000
   32      C       1.0546290000     1.8236830000    -3.1069160000
   33      S       1.6754910000     2.9057180000    -1.9657350000
   34      C       1.1859140000     2.0417290000    -4.5599720000
   35      O       0.7217490000     1.2318020000    -5.3502770000
   36      O       1.8303130000     3.1513860000    -5.0043750000
   37      F      -0.1313470000    -0.2385770000    -3.2462900000
   38      C       2.0184530000     3.4569560000    -6.3349760000
   39      H       2.5714550000     4.4135800000    -6.3702680000
   40      H       1.0521780000     3.5652440000    -6.8756090000
   41      H       2.6019500000     2.6697680000    -6.8618780000
   42      H       1.6984440000     2.9393460000     1.3215100000
 ----------------------------------------------------------------

   10   -2754.2763079582      8.59e-07  Convergence criterion met
 Total energy in the final basis set =    -2754.2763079582
        RIMP2         total energy =     -2759.3388774292 a.u.

                    Orbital Energies (a.u.)
 --------------------------------------------------------------

 Alpha MOs
 -- Occupied --
-92.0149 -91.9985 -91.9851 -91.9844 -26.3360 -20.6135 -20.5908 -20.5903
-20.5524 -11.4125 -11.3787 -11.3177 -11.3152 -11.3058 -11.3022 -11.3022
-11.2987 -11.2966 -11.2893 -11.2864 -11.2855 -11.2853 -11.2827 -11.2823
-11.2780 -11.2601 -11.2566 -11.2521 -11.2489  -9.0136  -9.0023  -8.9855
 -8.9851  -6.6943  -6.6937  -6.6932  -6.6836  -6.6829  -6.6816  -6.6663
 -6.6660  -6.6657  -6.6654  -6.6646  -6.6646  -1.6515  -1.4734  -1.4149
 -1.4130  -1.3690  -1.2372  -1.1946  -1.1687  -1.1430  -1.0842  -1.0513
 -1.0487  -1.0305  -1.0009  -0.9930  -0.9738  -0.9594  -0.9491  -0.9386
 -0.8946  -0.8719  -0.8496  -0.8098  -0.7958  -0.7868  -0.7754  -0.7631
 -0.7570  -0.7314  -0.7222  -0.7185  -0.6994  -0.6899  -0.6825  -0.6798
 -0.6751  -0.6622  -0.6576  -0.6515  -0.6271  -0.6185  -0.6154  -0.6082
 -0.6041  -0.5985  -0.5864  -0.5702  -0.5683  -0.5630  -0.5586  -0.5524
 -0.5314  -0.5258  -0.5238  -0.5180  -0.5140  -0.5078  -0.5025  -0.4948
 -0.4864  -0.4837  -0.4790  -0.4638  -0.4630  -0.4625  -0.4565  -0.4242
 -0.3929  -0.3861  -0.3609  -0.3496  -0.3240  -0.2849  -0.2448

          Ground-State Mulliken Net Atomic Charges

     Atom                 Charge (a.u.)
  ----------------------------------------
      1 C                    -0.191897
      2 C                    -0.253954
      3 S                    -0.025135
      4 C                    -0.018193
      5 H                     0.196227
      6 C                    -0.027745
      7 C                     0.236670
      8 C                     0.242811
      9 C                    -0.044465
     10 C                    -0.015454
     11 O                    -0.333509
     12 O                    -0.340987
     13 C                    -0.085522
     14 H                     0.121768
     15 H                     0.090804
     16 H                     0.093823
     17 C                    -0.089548
     18 H                     0.125456
     19 H                     0.093841
     20 H                     0.092029
     21 C                    -0.256303
     22 S                    -0.024112
     23 C                    -0.003303
     24 H                     0.187022
     25 H                     0.205900
     26 C                     0.024634
     27 S                     0.109143
     28 C                    -0.215198
     29 C                    -0.090762
     30 C                    -0.028198
     31 C                     0.340597
     32 C                    -0.124361
     33 S                     0.052391
     34 C                     0.457288
     35 O                    -0.447088
     36 O                    -0.297540
     37 F                    -0.207119
     38 C                    -0.054760
     39 H                     0.117089
     40 H                     0.084947
     41 H                     0.084738
     42 H                     0.217975
  ----------------------------------------
  Sum of atomic charges =     0.000000

                    Cartesian Multipole Moments
 -----------------------------------------------------------------
    Charge (ESU x 10^10)
                -0.0000
    Dipole Moment (Debye)
         X       1.8775      Y       2.3699      Z       2.6029
       Tot       3.9895
    Quadrupole Moments (Debye-Ang)
        XX    -193.6087     XY       8.9411     YY    -166.2496
        XZ     -14.8105     YZ      -8.9636     ZZ    -183.8588

 Total job time:  313.08s(wall), 9808.11s(cpu)
        *  Thank you very much for using Q-Chem.  Have a nice day.  *
