 Q-Chem 5.4, Q-Chem, Inc., Pleasanton, CA (2021)
 Q-Chem 5.4.0 for Intel X86 EM64T Linux

User input:
--------------------------------------------------------------
$molecule
0 1
C	-0.208886	-8.519741	0.174379
C	0.472151	-7.635967	-0.650052
S	-1.193717	-7.651740	1.377058
C	0.225125	-6.261894	-0.353105
H	1.141594	-7.954738	-1.458961
C	-0.692811	-6.079985	0.740583
C	-1.039773	-4.798382	1.195546
C	0.817634	-5.153542	-1.023267
C	0.473754	-3.869626	-0.565262
C	-0.447350	-3.688927	0.527745
O	1.644483	-5.481075	-2.054917
O	-1.869424	-4.479871	2.232592
C	-2.939466	-5.356026	2.565470
H	-3.601405	-4.790496	3.248608
H	-2.587892	-6.268513	3.094885
H	-3.516052	-5.658187	1.664539
C	2.608813	-4.546999	-2.524564
H	3.270661	-5.107564	-3.211568
H	3.216646	-4.131473	-1.692342
H	2.141184	-3.712085	-3.090211
C	-0.690319	-2.314326	0.823402
S	0.985511	-2.295487	-1.194935
C	-0.000000	-1.435180	-0.000000
H	-1.361286	-1.993211	1.630024
H	-0.203444	-9.615985	0.171719
C	0.000000	0.000000	0.000000
S	0.382139	0.814215	1.510732
C	1.046923	2.242395	0.727629
C	0.383804	0.823142	-1.064665
C	0.969360	2.082453	-0.678287
C	0.357247	0.762277	-2.486150
C	0.891671	1.908660	-3.106916
S	1.415865	3.040689	-1.965735
C	1.003453	2.137318	-4.559972
O	0.611644	1.290019	-5.350277
O	1.548687	3.298916	-5.004375
F	-0.110054	-0.249117	-3.246290
C	1.709479	3.619721	-6.334976
H	2.177001	4.620902	-6.370268
H	0.737443	3.643380	-6.875609
H	2.359363	2.886384	-6.861878
H	1.435800	3.076190	1.321510
$end

$rem
JOBTYPE		SP
EXCHANGE	HF
CORRELATION	pRIMP2
BASIS		cc-pvtz
METHOD		rimp2
AUX_BASIS	rimp2-cc-pvtz
SOLVENT_METHOD	PCM
PURECART	11111
SYMMETRY	false
MEM_TOTAL	110000
SCF_CONVERGENCE = 6
THRESH=10
GUI = 2
$end

$solvent
dielectric 4.90
$end
--------------------------------------------------------------

             Standard Nuclear Orientation (Angstroms)
    I     Atom           X                Y                Z
 ----------------------------------------------------------------
    1      C      -0.2088860000    -8.5197410000     0.1743790000
    2      C       0.4721510000    -7.6359670000    -0.6500520000
    3      S      -1.1937170000    -7.6517400000     1.3770580000
    4      C       0.2251250000    -6.2618940000    -0.3531050000
    5      H       1.1415940000    -7.9547380000    -1.4589610000
    6      C      -0.6928110000    -6.0799850000     0.7405830000
    7      C      -1.0397730000    -4.7983820000     1.1955460000
    8      C       0.8176340000    -5.1535420000    -1.0232670000
    9      C       0.4737540000    -3.8696260000    -0.5652620000
   10      C      -0.4473500000    -3.6889270000     0.5277450000
   11      O       1.6444830000    -5.4810750000    -2.0549170000
   12      O      -1.8694240000    -4.4798710000     2.2325920000
   13      C      -2.9394660000    -5.3560260000     2.5654700000
   14      H      -3.6014050000    -4.7904960000     3.2486080000
   15      H      -2.5878920000    -6.2685130000     3.0948850000
   16      H      -3.5160520000    -5.6581870000     1.6645390000
   17      C       2.6088130000    -4.5469990000    -2.5245640000
   18      H       3.2706610000    -5.1075640000    -3.2115680000
   19      H       3.2166460000    -4.1314730000    -1.6923420000
   20      H       2.1411840000    -3.7120850000    -3.0902110000
   21      C      -0.6903190000    -2.3143260000     0.8234020000
   22      S       0.9855110000    -2.2954870000    -1.1949350000
   23      C       0.0000000000    -1.4351800000     0.0000000000
   24      H      -1.3612860000    -1.9932110000     1.6300240000
   25      H      -0.2034440000    -9.6159850000     0.1717190000
   26      C       0.0000000000     0.0000000000     0.0000000000
   27      S       0.3821390000     0.8142150000     1.5107320000
   28      C       1.0469230000     2.2423950000     0.7276290000
   29      C       0.3838040000     0.8231420000    -1.0646650000
   30      C       0.9693600000     2.0824530000    -0.6782870000
   31      C       0.3572470000     0.7622770000    -2.4861500000
   32      C       0.8916710000     1.9086600000    -3.1069160000
   33      S       1.4158650000     3.0406890000    -1.9657350000
   34      C       1.0034530000     2.1373180000    -4.5599720000
   35      O       0.6116440000     1.2900190000    -5.3502770000
   36      O       1.5486870000     3.2989160000    -5.0043750000
   37      F      -0.1100540000    -0.2491170000    -3.2462900000
   38      C       1.7094790000     3.6197210000    -6.3349760000
   39      H       2.1770010000     4.6209020000    -6.3702680000
   40      H       0.7374430000     3.6433800000    -6.8756090000
   41      H       2.3593630000     2.8863840000    -6.8618780000
   42      H       1.4358000000     3.0761900000     1.3215100000
 ----------------------------------------------------------------

   10   -2754.2859204155      8.40e-07  Convergence criterion met
 Total energy in the final basis set =    -2754.2859204155
        RIMP2         total energy =     -2759.3443159435 a.u.

                    Orbital Energies (a.u.)
 --------------------------------------------------------------

 Alpha MOs
 -- Occupied --
-92.0162 -91.9967 -91.9886 -91.9859 -26.3339 -20.6126 -20.5917 -20.5912
-20.5509 -11.4111 -11.3778 -11.3188 -11.3171 -11.3070 -11.2993 -11.2986
-11.2974 -11.2952 -11.2888 -11.2863 -11.2860 -11.2854 -11.2839 -11.2836
-11.2792 -11.2608 -11.2582 -11.2548 -11.2496  -9.0145  -9.0006  -8.9891
 -8.9859  -6.6952  -6.6946  -6.6941  -6.6819  -6.6812  -6.6799  -6.6700
 -6.6693  -6.6684  -6.6668  -6.6662  -6.6654  -1.6475  -1.4724  -1.4159
 -1.4139  -1.3678  -1.2355  -1.1955  -1.1686  -1.1427  -1.0843  -1.0518
 -1.0482  -1.0291  -1.0019  -0.9929  -0.9725  -0.9605  -0.9500  -0.9387
 -0.8954  -0.8704  -0.8498  -0.8078  -0.7923  -0.7871  -0.7751  -0.7649
 -0.7575  -0.7321  -0.7189  -0.7158  -0.7001  -0.6891  -0.6826  -0.6790
 -0.6725  -0.6616  -0.6586  -0.6523  -0.6286  -0.6195  -0.6165  -0.6071
 -0.6036  -0.5961  -0.5840  -0.5750  -0.5679  -0.5643  -0.5574  -0.5517
 -0.5322  -0.5272  -0.5244  -0.5159  -0.5147  -0.5082  -0.5020  -0.4962
 -0.4880  -0.4848  -0.4769  -0.4675  -0.4622  -0.4618  -0.4593  -0.4171
 -0.3964  -0.3864  -0.3592  -0.3497  -0.3218  -0.2860  -0.2502

          Ground-State Mulliken Net Atomic Charges

     Atom                 Charge (a.u.)
  ----------------------------------------
      1 C                    -0.189317
      2 C                    -0.254302
      3 S                    -0.023837
      4 C                    -0.016165
      5 H                     0.196435
      6 C                    -0.025767
      7 C                     0.236178
      8 C                     0.241260
      9 C                    -0.043955
     10 C                    -0.005687
     11 O                    -0.333182
     12 O                    -0.340159
     13 C                    -0.085574
     14 H                     0.122214
     15 H                     0.090885
     16 H                     0.094252
     17 C                    -0.088885
     18 H                     0.125578
     19 H                     0.094112
     20 H                     0.091202
     21 C                    -0.267022
     22 S                    -0.010151
     23 C                     0.001563
     24 H                     0.194163
     25 H                     0.206306
     26 C                     0.016329
     27 S                     0.126200
     28 C                    -0.231538
     29 C                    -0.138913
     30 C                    -0.006171
     31 C                     0.368788
     32 C                    -0.143378
     33 S                     0.046275
     34 C                     0.460019
     35 O                    -0.448454
     36 O                    -0.297911
     37 F                    -0.208025
     38 C                    -0.054785
     39 H                     0.116770
     40 H                     0.084827
     41 H                     0.084515
     42 H                     0.215306
  ----------------------------------------
  Sum of atomic charges =     0.000000

                    Cartesian Multipole Moments
 -----------------------------------------------------------------
    Charge (ESU x 10^10)
                -0.0000
    Dipole Moment (Debye)
         X       1.5820      Y       1.8245      Z       2.8318
       Tot       3.7216
    Quadrupole Moments (Debye-Ang)
        XX    -182.6976     XY       7.4734     YY    -162.7024
        XZ     -16.8823     YZ      -8.7332     ZZ    -196.8249

 Total job time:  313.85s(wall), 9477.36s(cpu)
        *  Thank you very much for using Q-Chem.  Have a nice day.  *
