 Q-Chem 5.4, Q-Chem, Inc., Pleasanton, CA (2021)
 Q-Chem 5.4.0 for Intel X86 EM64T Linux

User input:
--------------------------------------------------------------
$molecule
0 1
C	0.092419	-8.519741	0.255929
C	-0.449364	-7.635967	-0.666007
S	0.885736	-7.651740	1.592708
C	-0.254813	-6.261894	-0.332317
H	-0.980526	-7.954738	-1.571741
C	0.458965	-6.079985	0.904324
C	0.767823	-4.798382	1.385968
C	-0.681909	-5.153542	-1.118303
C	-0.369139	-3.869626	-0.638514
C	0.342916	-3.688927	0.600871
O	-1.368544	-5.481075	-2.248132
O	1.458570	-4.479871	2.520275
C	1.405396	-5.356026	3.639637
H	1.820940	-4.790496	4.495304
H	2.023129	-6.268513	3.490336
H	0.361595	-5.658187	3.873314
C	-1.480048	-4.546999	-3.314934
H	-1.899255	-5.107564	-4.171837
H	-0.490123	-4.131473	-3.601473
H	-2.171521	-3.712085	-3.068969
C	0.537642	-2.314326	0.930308
S	-0.785807	-2.295487	-1.334769
C	0.000000	-1.435180	0.000000
H	1.066134	-1.993211	1.836691
H	0.091781	-9.615985	0.249906
C	0.000000	0.000000	0.000000
S	0.234946	0.868203	1.510732
C	0.641630	2.390125	0.727629
C	0.235036	0.877284	-1.064665
C	0.593019	2.219143	-0.678287
C	0.219452	0.812732	-2.486150
C	0.546689	2.034501	-3.106916
S	0.866345	3.240357	-1.965735
C	0.617067	2.279095	-4.559972
O	0.378342	1.376631	-5.350277
O	0.952308	3.517725	-5.004375
F	-0.065123	-0.264443	-3.246290
C	1.054950	3.861577	-6.334976
H	1.341516	4.928732	-6.370268
H	0.093573	3.716085	-6.875609
H	1.822303	3.252232	-6.861878
H	0.879812	3.278780	1.321510
$end

$rem
JOBTYPE		SP
EXCHANGE	HF
CORRELATION	pRIMP2
BASIS		cc-pvtz
METHOD		rimp2
AUX_BASIS	rimp2-cc-pvtz
SOLVENT_METHOD	PCM
PURECART	11111
SYMMETRY	false
MEM_TOTAL	110000
SCF_CONVERGENCE = 6
THRESH=10
GUI = 2
$end

$solvent
dielectric 4.90
$end
--------------------------------------------------------------

             Standard Nuclear Orientation (Angstroms)
    I     Atom           X                Y                Z
 ----------------------------------------------------------------
    1      C       0.0924190000    -8.5197410000     0.2559290000
    2      C      -0.4493640000    -7.6359670000    -0.6660070000
    3      S       0.8857360000    -7.6517400000     1.5927080000
    4      C      -0.2548130000    -6.2618940000    -0.3323170000
    5      H      -0.9805260000    -7.9547380000    -1.5717410000
    6      C       0.4589650000    -6.0799850000     0.9043240000
    7      C       0.7678230000    -4.7983820000     1.3859680000
    8      C      -0.6819090000    -5.1535420000    -1.1183030000
    9      C      -0.3691390000    -3.8696260000    -0.6385140000
   10      C       0.3429160000    -3.6889270000     0.6008710000
   11      O      -1.3685440000    -5.4810750000    -2.2481320000
   12      O       1.4585700000    -4.4798710000     2.5202750000
   13      C       1.4053960000    -5.3560260000     3.6396370000
   14      H       1.8209400000    -4.7904960000     4.4953040000
   15      H       2.0231290000    -6.2685130000     3.4903360000
   16      H       0.3615950000    -5.6581870000     3.8733140000
   17      C      -1.4800480000    -4.5469990000    -3.3149340000
   18      H      -1.8992550000    -5.1075640000    -4.1718370000
   19      H      -0.4901230000    -4.1314730000    -3.6014730000
   20      H      -2.1715210000    -3.7120850000    -3.0689690000
   21      C       0.5376420000    -2.3143260000     0.9303080000
   22      S      -0.7858070000    -2.2954870000    -1.3347690000
   23      C       0.0000000000    -1.4351800000     0.0000000000
   24      H       1.0661340000    -1.9932110000     1.8366910000
   25      H       0.0917810000    -9.6159850000     0.2499060000
   26      C       0.0000000000     0.0000000000     0.0000000000
   27      S       0.2349460000     0.8682030000     1.5107320000
   28      C       0.6416300000     2.3901250000     0.7276290000
   29      C       0.2350360000     0.8772840000    -1.0646650000
   30      C       0.5930190000     2.2191430000    -0.6782870000
   31      C       0.2194520000     0.8127320000    -2.4861500000
   32      C       0.5466890000     2.0345010000    -3.1069160000
   33      S       0.8663450000     3.2403570000    -1.9657350000
   34      C       0.6170670000     2.2790950000    -4.5599720000
   35      O       0.3783420000     1.3766310000    -5.3502770000
   36      O       0.9523080000     3.5177250000    -5.0043750000
   37      F      -0.0651230000    -0.2644430000    -3.2462900000
   38      C       1.0549500000     3.8615770000    -6.3349760000
   39      H       1.3415160000     4.9287320000    -6.3702680000
   40      H       0.0935730000     3.7160850000    -6.8756090000
   41      H       1.8223030000     3.2522320000    -6.8618780000
   42      H       0.8798120000     3.2787800000     1.3215100000
 ----------------------------------------------------------------

   10   -2754.2918775408      7.99e-07  Convergence criterion met
 Total energy in the final basis set =    -2754.2918775408
        RIMP2         total energy =     -2759.3483423557 a.u.

                    Orbital Energies (a.u.)
 --------------------------------------------------------------

 Alpha MOs
 -- Occupied --
-92.0157 -91.9952 -91.9865 -91.9862 -26.3344 -20.6121 -20.5918 -20.5914
-20.5500 -11.4104 -11.3780 -11.3185 -11.3180 -11.3118 -11.2974 -11.2973
-11.2972 -11.2944 -11.2885 -11.2864 -11.2856 -11.2855 -11.2837 -11.2831
-11.2797 -11.2612 -11.2589 -11.2580 -11.2498  -9.0140  -8.9992  -8.9872
 -8.9862  -6.6948  -6.6942  -6.6937  -6.6805  -6.6798  -6.6785  -6.6681
 -6.6674  -6.6671  -6.6665  -6.6664  -6.6656  -1.6489  -1.4718  -1.4157
 -1.4144  -1.3671  -1.2343  -1.1960  -1.1688  -1.1421  -1.0844  -1.0519
 -1.0480  -1.0286  -1.0020  -0.9935  -0.9722  -0.9606  -0.9499  -0.9383
 -0.8956  -0.8697  -0.8512  -0.8089  -0.7933  -0.7871  -0.7750  -0.7642
 -0.7579  -0.7323  -0.7194  -0.7166  -0.7005  -0.6886  -0.6835  -0.6786
 -0.6727  -0.6615  -0.6585  -0.6524  -0.6291  -0.6197  -0.6162  -0.6066
 -0.6015  -0.5956  -0.5884  -0.5723  -0.5688  -0.5674  -0.5569  -0.5525
 -0.5299  -0.5272  -0.5218  -0.5183  -0.5146  -0.5089  -0.5018  -0.4946
 -0.4869  -0.4837  -0.4792  -0.4658  -0.4616  -0.4610  -0.4593  -0.4211
 -0.3957  -0.3862  -0.3585  -0.3505  -0.3232  -0.2845  -0.2495

          Ground-State Mulliken Net Atomic Charges

     Atom                 Charge (a.u.)
  ----------------------------------------
      1 C                    -0.188246
      2 C                    -0.253903
      3 S                    -0.023166
      4 C                    -0.013938
      5 H                     0.196577
      6 C                    -0.030197
      7 C                     0.242503
      8 C                     0.241654
      9 C                    -0.045770
     10 C                    -0.029104
     11 O                    -0.333853
     12 O                    -0.340391
     13 C                    -0.085513
     14 H                     0.122369
     15 H                     0.091156
     16 H                     0.094056
     17 C                    -0.087604
     18 H                     0.124797
     19 H                     0.095895
     20 H                     0.089618
     21 C                    -0.239876
     22 S                    -0.004828
     23 C                    -0.010160
     24 H                     0.194191
     25 H                     0.206477
     26 C                    -0.005535
     27 S                     0.096180
     28 C                    -0.225672
     29 C                    -0.076791
     30 C                    -0.022990
     31 C                     0.374813
     32 C                    -0.140306
     33 S                     0.039772
     34 C                     0.457866
     35 O                    -0.450643
     36 O                    -0.297909
     37 F                    -0.208332
     38 C                    -0.054918
     39 H                     0.116634
     40 H                     0.084431
     41 H                     0.084448
     42 H                     0.216207
  ----------------------------------------
  Sum of atomic charges =     0.000000

                    Cartesian Multipole Moments
 -----------------------------------------------------------------
    Charge (ESU x 10^10)
                -0.0000
    Dipole Moment (Debye)
         X       0.6514      Y       1.6518      Z       3.0831
       Tot       3.5578
    Quadrupole Moments (Debye-Ang)
        XX    -198.8099     XY       5.2143     YY    -160.7633
        XZ       4.1637     YZ     -10.9014     ZZ    -183.0278

 Total job time:  331.56s(wall), 9706.44s(cpu)
        *  Thank you very much for using Q-Chem.  Have a nice day.  *
