 Q-Chem 5.4, Q-Chem, Inc., Pleasanton, CA (2021)
 Q-Chem 5.4.0 for Intel X86 EM64T Linux

User input:
--------------------------------------------------------------
$molecule
0 1
C	0.136647	-8.519741	-0.235306
C	-0.221346	-7.635967	0.772334
S	0.650746	-7.651740	-1.702286
C	-0.090779	-6.261894	0.408807
H	-0.573754	-7.954738	1.761423
C	0.397735	-6.079985	-0.932876
C	0.568166	-4.798382	-1.479069
C	-0.418347	-5.153542	1.241204
C	-0.251852	-3.869626	0.693206
C	0.239872	-3.688927	-0.648921
O	-0.842486	-5.481075	2.493437
O	0.993092	-4.479871	-2.737331
C	1.884752	-5.356026	-3.416110
H	2.273124	-4.790496	-4.284447
H	1.373310	-6.268513	-3.793352
H	2.734702	-5.658187	-2.766716
C	-1.588030	-4.546999	3.264581
H	-1.974995	-5.107564	4.136519
H	-2.443843	-4.131473	2.690439
H	-0.955140	-3.712085	3.636177
C	0.367068	-2.314326	-1.009848
S	-0.517386	-2.295487	1.459936
C	-0.000000	-1.435180	-0.000000
H	0.721689	-1.993211	-1.997308
H	0.132444	-9.615985	-0.230945
C	0.000000	0.000000	0.000000
S	0.451648	0.777811	1.510732
C	1.238377	2.142617	0.727629
C	0.454085	0.786559	-1.064665
C	1.147169	1.990043	-0.678287
C	0.422325	0.728240	-2.486150
C	1.054629	1.823683	-3.106916
S	1.675491	2.905718	-1.965735
C	1.185914	2.041729	-4.559972
O	0.721749	1.231802	-5.350277
O	1.830313	3.151386	-5.004375
F	-0.131347	-0.238577	-3.246290
C	2.018453	3.456956	-6.334976
H	2.571455	4.413580	-6.370268
H	1.052178	3.565244	-6.875609
H	2.601950	2.669768	-6.861878
H	1.698444	2.939346	1.321510
$end

$rem
JOBTYPE		SP
EXCHANGE	HF
CORRELATION	pRIMP2
BASIS		cc-pvtz
METHOD		rimp2
AUX_BASIS	rimp2-cc-pvtz
SOLVENT_METHOD	PCM
PURECART	11111
SYMMETRY	false
MEM_TOTAL	110000
SCF_CONVERGENCE = 6
THRESH=10
GUI = 2
$end

$solvent
dielectric 4.90
$end
--------------------------------------------------------------

             Standard Nuclear Orientation (Angstroms)
    I     Atom           X                Y                Z
 ----------------------------------------------------------------
    1      C       0.1366470000    -8.5197410000    -0.2353060000
    2      C      -0.2213460000    -7.6359670000     0.7723340000
    3      S       0.6507460000    -7.6517400000    -1.7022860000
    4      C      -0.0907790000    -6.2618940000     0.4088070000
    5      H      -0.5737540000    -7.9547380000     1.7614230000
    6      C       0.3977350000    -6.0799850000    -0.9328760000
    7      C       0.5681660000    -4.7983820000    -1.4790690000
    8      C      -0.4183470000    -5.1535420000     1.2412040000
    9      C      -0.2518520000    -3.8696260000     0.6932060000
   10      C       0.2398720000    -3.6889270000    -0.6489210000
   11      O      -0.8424860000    -5.4810750000     2.4934370000
   12      O       0.9930920000    -4.4798710000    -2.7373310000
   13      C       1.8847520000    -5.3560260000    -3.4161100000
   14      H       2.2731240000    -4.7904960000    -4.2844470000
   15      H       1.3733100000    -6.2685130000    -3.7933520000
   16      H       2.7347020000    -5.6581870000    -2.7667160000
   17      C      -1.5880300000    -4.5469990000     3.2645810000
   18      H      -1.9749950000    -5.1075640000     4.1365190000
   19      H      -2.4438430000    -4.1314730000     2.6904390000
   20      H      -0.9551400000    -3.7120850000     3.6361770000
   21      C       0.3670680000    -2.3143260000    -1.0098480000
   22      S      -0.5173860000    -2.2954870000     1.4599360000
   23      C       0.0000000000    -1.4351800000     0.0000000000
   24      H       0.7216890000    -1.9932110000    -1.9973080000
   25      H       0.1324440000    -9.6159850000    -0.2309450000
   26      C       0.0000000000     0.0000000000     0.0000000000
   27      S       0.4516480000     0.7778110000     1.5107320000
   28      C       1.2383770000     2.1426170000     0.7276290000
   29      C       0.4540850000     0.7865590000    -1.0646650000
   30      C       1.1471690000     1.9900430000    -0.6782870000
   31      C       0.4223250000     0.7282400000    -2.4861500000
   32      C       1.0546290000     1.8236830000    -3.1069160000
   33      S       1.6754910000     2.9057180000    -1.9657350000
   34      C       1.1859140000     2.0417290000    -4.5599720000
   35      O       0.7217490000     1.2318020000    -5.3502770000
   36      O       1.8303130000     3.1513860000    -5.0043750000
   37      F      -0.1313470000    -0.2385770000    -3.2462900000
   38      C       2.0184530000     3.4569560000    -6.3349760000
   39      H       2.5714550000     4.4135800000    -6.3702680000
   40      H       1.0521780000     3.5652440000    -6.8756090000
   41      H       2.6019500000     2.6697680000    -6.8618780000
   42      H       1.6984440000     2.9393460000     1.3215100000
 ----------------------------------------------------------------

   10   -2754.2821068318      8.61e-07  Convergence criterion met
 Total energy in the final basis set =    -2754.2821068318
        RIMP2         total energy =     -2759.3426077433 a.u.

                    Orbital Energies (a.u.)
 --------------------------------------------------------------

 Alpha MOs
 -- Occupied --
-92.0166 -91.9983 -91.9883 -91.9860 -26.3365 -20.6130 -20.5924 -20.5903
-20.5516 -11.4118 -11.3779 -11.3192 -11.3170 -11.3055 -11.3013 -11.3009
-11.2988 -11.2963 -11.2890 -11.2872 -11.2859 -11.2850 -11.2845 -11.2837
-11.2791 -11.2610 -11.2583 -11.2537 -11.2497  -9.0152  -9.0022  -8.9891
 -8.9859  -6.6960  -6.6953  -6.6949  -6.6834  -6.6828  -6.6814  -6.6701
 -6.6694  -6.6684  -6.6669  -6.6663  -6.6654  -1.6502  -1.4729  -1.4164
 -1.4131  -1.3684  -1.2363  -1.1959  -1.1694  -1.1435  -1.0844  -1.0519
 -1.0493  -1.0296  -1.0021  -0.9934  -0.9734  -0.9604  -0.9502  -0.9387
 -0.8961  -0.8713  -0.8495  -0.8044  -0.7964  -0.7881  -0.7721  -0.7709
 -0.7570  -0.7327  -0.7214  -0.7179  -0.7010  -0.6903  -0.6825  -0.6792
 -0.6737  -0.6620  -0.6589  -0.6519  -0.6279  -0.6194  -0.6156  -0.6077
 -0.6032  -0.5970  -0.5855  -0.5752  -0.5694  -0.5613  -0.5549  -0.5477
 -0.5350  -0.5269  -0.5252  -0.5174  -0.5165  -0.5086  -0.5061  -0.4969
 -0.4864  -0.4855  -0.4770  -0.4674  -0.4623  -0.4620  -0.4589  -0.4225
 -0.3975  -0.3848  -0.3583  -0.3513  -0.3248  -0.2852  -0.2476

          Ground-State Mulliken Net Atomic Charges

     Atom                 Charge (a.u.)
  ----------------------------------------
      1 C                    -0.189817
      2 C                    -0.254530
      3 S                    -0.021842
      4 C                    -0.016678
      5 H                     0.196088
      6 C                    -0.027921
      7 C                     0.244098
      8 C                     0.244174
      9 C                    -0.039517
     10 C                    -0.027468
     11 O                    -0.333395
     12 O                    -0.339423
     13 C                    -0.086148
     14 H                     0.123431
     15 H                     0.091167
     16 H                     0.093433
     17 C                    -0.087783
     18 H                     0.125877
     19 H                     0.095222
     20 H                     0.089175
     21 C                    -0.217552
     22 S                    -0.040091
     23 C                    -0.013241
     24 H                     0.197467
     25 H                     0.206283
     26 C                    -0.003043
     27 S                     0.115387
     28 C                    -0.227821
     29 C                    -0.095898
     30 C                    -0.017346
     31 C                     0.347862
     32 C                    -0.134832
     33 S                     0.052890
     34 C                     0.460018
     35 O                    -0.447923
     36 O                    -0.297870
     37 F                    -0.212180
     38 C                    -0.054778
     39 H                     0.116905
     40 H                     0.084901
     41 H                     0.084679
     42 H                     0.218043
  ----------------------------------------
  Sum of atomic charges =     0.000000

                    Cartesian Multipole Moments
 -----------------------------------------------------------------
    Charge (ESU x 10^10)
                -0.0000
    Dipole Moment (Debye)
         X       2.2724      Y       1.8853      Z       3.2507
       Tot       4.3915
    Quadrupole Moments (Debye-Ang)
        XX    -189.9006     XY       6.0175     YY    -163.1614
        XZ     -17.2927     YZ      -9.7530     ZZ    -188.1351

 Total job time:  330.81s(wall), 11006.21s(cpu)
        *  Thank you very much for using Q-Chem.  Have a nice day.  *
