 Q-Chem 5.4, Q-Chem, Inc., Pleasanton, CA (2021)
 Q-Chem 5.4.0 for Intel X86 EM64T Linux

User input:
--------------------------------------------------------------
$molecule
0 1
C	0.255459	-8.519741	0.093711
C	-0.799036	-7.635967	-0.083869
S	1.789425	-7.651740	0.345260
C	-0.418360	-6.261894	-0.018411
H	-1.834294	-7.954738	-0.259169
C	0.987769	-6.079985	0.229701
C	1.555260	-4.798382	0.302697
C	-1.294992	-5.153542	-0.196459
C	-0.726408	-3.869626	-0.127651
C	0.680716	-3.688927	0.123544
O	-2.601852	-5.481075	-0.396706
O	2.868193	-4.479871	0.502673
C	3.691495	-5.356026	1.262918
H	4.614080	-4.790496	1.494604
H	3.974195	-6.268513	0.693738
H	3.199559	-5.658187	2.212720
C	-3.490743	-4.546999	-0.997016
H	-4.416630	-5.107564	-1.226691
H	-3.073934	-4.131473	-1.939526
H	-3.746794	-3.712085	-0.309214
C	1.058247	-2.314326	0.186133
S	-1.527599	-2.295487	-0.256010
C	0.000000	-1.435180	0.000000
H	2.092285	-1.993211	0.363896
H	0.250435	-9.615985	0.090328
C	0.000000	0.000000	0.000000
S	0.080615	0.895811	1.510732
C	0.216842	2.465231	0.727629
C	0.079127	0.904769	-1.064665
C	0.198659	2.288406	-0.678287
C	0.074988	0.838492	-2.486150
C	0.185097	2.098524	-3.106916
S	0.290501	3.341568	-1.965735
C	0.211932	2.351623	-4.559972
O	0.133545	1.421416	-5.350277
O	0.326994	3.629649	-5.004375
F	-0.018214	-0.271734	-3.246290
C	0.368367	3.986101	-6.334976
H	0.465270	5.086806	-6.370268
H	-0.553140	3.675878	-6.875609
H	1.229874	3.519263	-6.861878
H	0.297091	3.381746	1.321510
$end

$rem
JOBTYPE		SP
EXCHANGE	HF
CORRELATION	pRIMP2
BASIS		cc-pvtz
METHOD		rimp2
AUX_BASIS	rimp2-cc-pvtz
SOLVENT_METHOD	PCM
PURECART	11111
SYMMETRY	false
MEM_TOTAL	110000
SCF_CONVERGENCE = 6
THRESH=10
GUI = 2
$end

$solvent
dielectric 4.90
$end
--------------------------------------------------------------

             Standard Nuclear Orientation (Angstroms)
    I     Atom           X                Y                Z
 ----------------------------------------------------------------
    1      C       0.2554590000    -8.5197410000     0.0937110000
    2      C      -0.7990360000    -7.6359670000    -0.0838690000
    3      S       1.7894250000    -7.6517400000     0.3452600000
    4      C      -0.4183600000    -6.2618940000    -0.0184110000
    5      H      -1.8342940000    -7.9547380000    -0.2591690000
    6      C       0.9877690000    -6.0799850000     0.2297010000
    7      C       1.5552600000    -4.7983820000     0.3026970000
    8      C      -1.2949920000    -5.1535420000    -0.1964590000
    9      C      -0.7264080000    -3.8696260000    -0.1276510000
   10      C       0.6807160000    -3.6889270000     0.1235440000
   11      O      -2.6018520000    -5.4810750000    -0.3967060000
   12      O       2.8681930000    -4.4798710000     0.5026730000
   13      C       3.6914950000    -5.3560260000     1.2629180000
   14      H       4.6140800000    -4.7904960000     1.4946040000
   15      H       3.9741950000    -6.2685130000     0.6937380000
   16      H       3.1995590000    -5.6581870000     2.2127200000
   17      C      -3.4907430000    -4.5469990000    -0.9970160000
   18      H      -4.4166300000    -5.1075640000    -1.2266910000
   19      H      -3.0739340000    -4.1314730000    -1.9395260000
   20      H      -3.7467940000    -3.7120850000    -0.3092140000
   21      C       1.0582470000    -2.3143260000     0.1861330000
   22      S      -1.5275990000    -2.2954870000    -0.2560100000
   23      C       0.0000000000    -1.4351800000     0.0000000000
   24      H       2.0922850000    -1.9932110000     0.3638960000
   25      H       0.2504350000    -9.6159850000     0.0903280000
   26      C       0.0000000000     0.0000000000     0.0000000000
   27      S       0.0806150000     0.8958110000     1.5107320000
   28      C       0.2168420000     2.4652310000     0.7276290000
   29      C       0.0791270000     0.9047690000    -1.0646650000
   30      C       0.1986590000     2.2884060000    -0.6782870000
   31      C       0.0749880000     0.8384920000    -2.4861500000
   32      C       0.1850970000     2.0985240000    -3.1069160000
   33      S       0.2905010000     3.3415680000    -1.9657350000
   34      C       0.2119320000     2.3516230000    -4.5599720000
   35      O       0.1335450000     1.4214160000    -5.3502770000
   36      O       0.3269940000     3.6296490000    -5.0043750000
   37      F      -0.0182140000    -0.2717340000    -3.2462900000
   38      C       0.3683670000     3.9861010000    -6.3349760000
   39      H       0.4652700000     5.0868060000    -6.3702680000
   40      H      -0.5531400000     3.6758780000    -6.8756090000
   41      H       1.2298740000     3.5192630000    -6.8618780000
   42      H       0.2970910000     3.3817460000     1.3215100000
 ----------------------------------------------------------------

   10   -2754.2947282289      8.87e-07  Convergence criterion met
 Total energy in the final basis set =    -2754.2947282289
        RIMP2         total energy =     -2759.3471078076 a.u.

                    Orbital Energies (a.u.)
 --------------------------------------------------------------

 Alpha MOs
 -- Occupied --
-92.0164 -91.9943 -91.9896 -91.9867 -26.3338 -20.6119 -20.5923 -20.5921
-20.5499 -11.4101 -11.3770 -11.3193 -11.3190 -11.3094 -11.2970 -11.2959
-11.2935 -11.2932 -11.2883 -11.2868 -11.2867 -11.2865 -11.2842 -11.2826
-11.2804 -11.2612 -11.2599 -11.2598 -11.2502  -9.0145  -8.9983  -8.9900
 -8.9866  -6.6952  -6.6946  -6.6941  -6.6796  -6.6789  -6.6775  -6.6709
 -6.6702  -6.6692  -6.6676  -6.6669  -6.6661  -1.6466  -1.4716  -1.4165
 -1.4148  -1.3669  -1.2328  -1.1962  -1.1682  -1.1415  -1.0841  -1.0523
 -1.0471  -1.0274  -1.0025  -0.9933  -0.9710  -0.9615  -0.9505  -0.9384
 -0.8959  -0.8689  -0.8508  -0.8054  -0.7900  -0.7885  -0.7742  -0.7679
 -0.7585  -0.7329  -0.7179  -0.7149  -0.7014  -0.6885  -0.6834  -0.6783
 -0.6708  -0.6607  -0.6588  -0.6529  -0.6310  -0.6203  -0.6171  -0.6062
 -0.6016  -0.5942  -0.5829  -0.5774  -0.5710  -0.5667  -0.5551  -0.5515
 -0.5336  -0.5264  -0.5241  -0.5166  -0.5144  -0.5075  -0.5013  -0.4934
 -0.4913  -0.4838  -0.4772  -0.4678  -0.4616  -0.4609  -0.4606  -0.4055
 -0.4013  -0.3875  -0.3579  -0.3482  -0.3149  -0.2893  -0.2594

          Ground-State Mulliken Net Atomic Charges

     Atom                 Charge (a.u.)
  ----------------------------------------
      1 C                    -0.186976
      2 C                    -0.254171
      3 S                    -0.021498
      4 C                    -0.013025
      5 H                     0.196621
      6 C                    -0.028173
      7 C                     0.245658
      8 C                     0.240528
      9 C                    -0.049310
     10 C                    -0.032519
     11 O                    -0.333374
     12 O                    -0.339789
     13 C                    -0.085739
     14 H                     0.122722
     15 H                     0.091383
     16 H                     0.093957
     17 C                    -0.086634
     18 H                     0.124582
     19 H                     0.095926
     20 H                     0.089396
     21 C                    -0.209260
     22 S                     0.003662
     23 C                    -0.041475
     24 H                     0.197772
     25 H                     0.206685
     26 C                    -0.030829
     27 S                     0.120166
     28 C                    -0.240489
     29 C                    -0.091061
     30 C                    -0.006414
     31 C                     0.396592
     32 C                    -0.159346
     33 S                     0.037369
     34 C                     0.460703
     35 O                    -0.450238
     36 O                    -0.297768
     37 F                    -0.210959
     38 C                    -0.055070
     39 H                     0.116515
     40 H                     0.084545
     41 H                     0.084536
     42 H                     0.214799
  ----------------------------------------
  Sum of atomic charges =     0.000000

                    Cartesian Multipole Moments
 -----------------------------------------------------------------
    Charge (ESU x 10^10)
                -0.0000
    Dipole Moment (Debye)
         X       0.2286      Y       1.4633      Z       3.5145
       Tot       3.8139
    Quadrupole Moments (Debye-Ang)
        XX    -180.2567     XY       1.1620     YY    -158.2760
        XZ       8.2878     YZ     -12.1589     ZZ    -202.6987

 Total job time:  282.79s(wall), 9276.21s(cpu)
        *  Thank you very much for using Q-Chem.  Have a nice day.  *
