 Q-Chem 5.4, Q-Chem, Inc., Pleasanton, CA (2021)
 Q-Chem 5.4.0 for Intel X86 EM64T Linux

User input:
--------------------------------------------------------------
$molecule
0 1
C	-0.046574	-8.519741	-0.268090
C	0.326886	-7.635967	0.733920
S	-0.595708	-7.651740	-1.722318
C	0.193236	-6.261894	0.371516
H	0.692700	-7.954738	1.718130
C	-0.294958	-6.079985	-0.970283
C	-0.515487	-4.798382	-1.498243
C	0.477358	-5.153542	1.219725
C	0.252655	-3.869626	0.692914
C	-0.233366	-3.688927	-0.651289
O	0.957369	-5.481075	2.451623
O	-0.998769	-4.479871	-2.735264
C	-0.752029	-5.356026	-3.828387
H	-1.012675	-4.790496	-4.743213
H	-1.386303	-6.268513	-3.788623
H	0.316492	-5.658187	-3.877260
C	0.881930	-4.546999	3.521580
H	1.145969	-5.107564	4.438260
H	-0.142712	-4.131473	3.631868
H	1.605610	-3.712085	3.399425
C	-0.367928	-2.314326	-1.009535
S	0.542088	-2.295487	1.450945
C	-0.000000	-1.435180	-0.000000
H	-0.730999	-1.993211	-1.993920
H	-0.046991	-9.615985	-0.262047
C	0.000000	0.000000	0.000000
S	0.690437	0.576430	1.510732
C	1.896512	1.589852	0.727629
C	0.695720	0.583817	-1.064665
C	1.758621	1.477674	-0.678287
C	0.645928	0.539878	-2.486150
C	1.614763	1.352997	-3.106916
S	2.568261	2.157430	-1.965735
C	1.812707	1.512991	-4.559972
O	1.099523	0.910662	-5.350277
O	2.797769	2.335330	-5.004375
F	-0.205024	-0.179266	-3.246290
C	3.079074	2.558124	-6.334976
H	3.925910	3.267919	-6.370268
H	2.208109	2.990367	-6.875609
H	3.358147	1.618843	-6.861878
H	2.601331	2.181180	1.321510
$end

$rem
JOBTYPE		SP
EXCHANGE	HF
CORRELATION	pRIMP2
BASIS		cc-pvtz
METHOD		rimp2
AUX_BASIS	rimp2-cc-pvtz
SOLVENT_METHOD	PCM
PURECART	11111
SYMMETRY	false
MEM_TOTAL	110000
SCF_CONVERGENCE = 6
THRESH=10
GUI = 2
$end

$solvent
dielectric 4.90
$end
--------------------------------------------------------------

             Standard Nuclear Orientation (Angstroms)
    I     Atom           X                Y                Z
 ----------------------------------------------------------------
    1      C      -0.0465740000    -8.5197410000    -0.2680900000
    2      C       0.3268860000    -7.6359670000     0.7339200000
    3      S      -0.5957080000    -7.6517400000    -1.7223180000
    4      C       0.1932360000    -6.2618940000     0.3715160000
    5      H       0.6927000000    -7.9547380000     1.7181300000
    6      C      -0.2949580000    -6.0799850000    -0.9702830000
    7      C      -0.5154870000    -4.7983820000    -1.4982430000
    8      C       0.4773580000    -5.1535420000     1.2197250000
    9      C       0.2526550000    -3.8696260000     0.6929140000
   10      C      -0.2333660000    -3.6889270000    -0.6512890000
   11      O       0.9573690000    -5.4810750000     2.4516230000
   12      O      -0.9987690000    -4.4798710000    -2.7352640000
   13      C      -0.7520290000    -5.3560260000    -3.8283870000
   14      H      -1.0126750000    -4.7904960000    -4.7432130000
   15      H      -1.3863030000    -6.2685130000    -3.7886230000
   16      H       0.3164920000    -5.6581870000    -3.8772600000
   17      C       0.8819300000    -4.5469990000     3.5215800000
   18      H       1.1459690000    -5.1075640000     4.4382600000
   19      H      -0.1427120000    -4.1314730000     3.6318680000
   20      H       1.6056100000    -3.7120850000     3.3994250000
   21      C      -0.3679280000    -2.3143260000    -1.0095350000
   22      S       0.5420880000    -2.2954870000     1.4509450000
   23      C       0.0000000000    -1.4351800000     0.0000000000
   24      H      -0.7309990000    -1.9932110000    -1.9939200000
   25      H      -0.0469910000    -9.6159850000    -0.2620470000
   26      C       0.0000000000     0.0000000000     0.0000000000
   27      S       0.6904370000     0.5764300000     1.5107320000
   28      C       1.8965120000     1.5898520000     0.7276290000
   29      C       0.6957200000     0.5838170000    -1.0646650000
   30      C       1.7586210000     1.4776740000    -0.6782870000
   31      C       0.6459280000     0.5398780000    -2.4861500000
   32      C       1.6147630000     1.3529970000    -3.1069160000
   33      S       2.5682610000     2.1574300000    -1.9657350000
   34      C       1.8127070000     1.5129910000    -4.5599720000
   35      O       1.0995230000     0.9106620000    -5.3502770000
   36      O       2.7977690000     2.3353300000    -5.0043750000
   37      F      -0.2050240000    -0.1792660000    -3.2462900000
   38      C       3.0790740000     2.5581240000    -6.3349760000
   39      H       3.9259100000     3.2679190000    -6.3702680000
   40      H       2.2081090000     2.9903670000    -6.8756090000
   41      H       3.3581470000     1.6188430000    -6.8618780000
   42      H       2.6013310000     2.1811800000     1.3215100000
 ----------------------------------------------------------------

   11   -2754.2468993294      5.89e-07  Convergence criterion met
 Total energy in the final basis set =    -2754.2468993294
        RIMP2         total energy =     -2759.3178892048 a.u.

                    Orbital Energies (a.u.)
 --------------------------------------------------------------

 Alpha MOs
 -- Occupied --
-92.0172 -92.0050 -91.9869 -91.9828 -26.3373 -20.6157 -20.5909 -20.5861
-20.5563 -11.4158 -11.3780 -11.3180 -11.3166 -11.3103 -11.3095 -11.3022
-11.2958 -11.2947 -11.2904 -11.2899 -11.2866 -11.2827 -11.2806 -11.2772
-11.2746 -11.2570 -11.2521 -11.2473 -11.2370  -9.0165  -9.0086  -8.9876
 -8.9827  -6.6971  -6.6963  -6.6961  -6.6898  -6.6892  -6.6879  -6.6685
 -6.6677  -6.6668  -6.6637  -6.6631  -6.6622  -1.6512  -1.4759  -1.4148
 -1.4090  -1.3719  -1.2429  -1.1926  -1.1702  -1.1439  -1.0835  -1.0525
 -1.0475  -1.0332  -0.9990  -0.9922  -0.9763  -0.9580  -0.9481  -0.9374
 -0.8941  -0.8753  -0.8459  -0.8035  -0.7988  -0.7870  -0.7736  -0.7680
 -0.7540  -0.7288  -0.7228  -0.7184  -0.6985  -0.6931  -0.6822  -0.6809
 -0.6753  -0.6620  -0.6569  -0.6492  -0.6262  -0.6168  -0.6137  -0.6112
 -0.6053  -0.6017  -0.5882  -0.5737  -0.5651  -0.5616  -0.5532  -0.5410
 -0.5365  -0.5307  -0.5191  -0.5180  -0.5166  -0.5095  -0.5034  -0.4948
 -0.4886  -0.4822  -0.4715  -0.4677  -0.4641  -0.4591  -0.4573  -0.4238
 -0.3949  -0.3808  -0.3570  -0.3483  -0.3235  -0.2878  -0.2433

          Ground-State Mulliken Net Atomic Charges

     Atom                 Charge (a.u.)
  ----------------------------------------
      1 C                    -0.198740
      2 C                    -0.253715
      3 S                    -0.027525
      4 C                    -0.024549
      5 H                     0.194884
      6 C                    -0.025406
      7 C                     0.231508
      8 C                     0.244433
      9 C                    -0.054374
     10 C                    -0.007836
     11 O                    -0.333367
     12 O                    -0.341351
     13 C                    -0.085768
     14 H                     0.122525
     15 H                     0.090008
     16 H                     0.092044
     17 C                    -0.088145
     18 H                     0.125367
     19 H                     0.094372
     20 H                     0.088753
     21 C                    -0.291357
     22 S                    -0.032916
     23 C                    -0.002412
     24 H                     0.201536
     25 H                     0.204543
     26 C                    -0.073266
     27 S                     0.106491
     28 C                    -0.168784
     29 C                    -0.024428
     30 C                    -0.031085
     31 C                     0.348691
     32 C                    -0.113040
     33 S                     0.069717
     34 C                     0.455680
     35 O                    -0.440299
     36 O                    -0.296857
     37 F                    -0.211026
     38 C                    -0.054531
     39 H                     0.117490
     40 H                     0.085530
     41 H                     0.085573
     42 H                     0.221633
  ----------------------------------------
  Sum of atomic charges =     0.000000

                    Cartesian Multipole Moments
 -----------------------------------------------------------------
    Charge (ESU x 10^10)
                 0.0000
    Dipole Moment (Debye)
         X       4.5941      Y       3.3843      Z       2.9968
       Tot       6.4452
    Quadrupole Moments (Debye-Ang)
        XX    -189.6971     XY       8.2584     YY    -177.9142
        XZ      -6.9618     YZ      -8.4645     ZZ    -178.6309

 Total job time:  306.64s(wall), 10106.67s(cpu)
        *  Thank you very much for using Q-Chem.  Have a nice day.  *
