 Q-Chem 5.4, Q-Chem, Inc., Pleasanton, CA (2021)
 Q-Chem 5.4.0 for Intel X86 EM64T Linux

User input:
--------------------------------------------------------------
$molecule
0 1
C	0.093711	-8.519741	-0.255459
C	-0.083869	-7.635967	0.799036
S	0.345260	-7.651740	-1.789425
C	-0.018411	-6.261894	0.418360
H	-0.259169	-7.954738	1.834294
C	0.229701	-6.079985	-0.987769
C	0.302697	-4.798382	-1.555260
C	-0.196459	-5.153542	1.294992
C	-0.127651	-3.869626	0.726408
C	0.123544	-3.688927	-0.680716
O	-0.396706	-5.481075	2.601852
O	0.502673	-4.479871	-2.868193
C	1.262918	-5.356026	-3.691495
H	1.494604	-4.790496	-4.614080
H	0.693738	-6.268513	-3.974195
H	2.212720	-5.658187	-3.199559
C	-0.997016	-4.546999	3.490743
H	-1.226691	-5.107564	4.416630
H	-1.939526	-4.131473	3.073934
H	-0.309214	-3.712085	3.746794
C	0.186133	-2.314326	-1.058247
S	-0.256010	-2.295487	1.527599
C	0.000000	-1.435180	0.000000
H	0.363896	-1.993211	-2.092285
H	0.090328	-9.615985	-0.250435
C	0.000000	0.000000	0.000000
S	0.780044	0.447780	1.510732
C	2.143774	1.236372	0.727629
C	0.786529	0.454137	-1.064665
C	1.988499	1.149844	-0.678287
C	0.729864	0.419512	-2.486150
C	1.825177	1.052041	-3.106916
S	2.903877	1.678680	-1.965735
C	2.047896	1.175232	-4.559972
O	1.240953	0.705897	-5.350277
O	3.160791	1.814024	-5.004375
F	-0.233039	-0.140940	-3.246290
C	3.476510	1.984585	-6.334976
H	4.433735	2.536545	-6.370268
H	2.693835	2.561503	-6.875609
H	3.588239	1.011113	-6.861878
H	2.940569	1.696327	1.321510
$end

$rem
JOBTYPE		SP
EXCHANGE	HF
CORRELATION	pRIMP2
BASIS		cc-pvtz
METHOD		rimp2
AUX_BASIS	rimp2-cc-pvtz
SOLVENT_METHOD	PCM
PURECART	11111
SYMMETRY	false
MEM_TOTAL	110000
SCF_CONVERGENCE = 6
THRESH=10
GUI = 2
$end

$solvent
dielectric 4.90
$end
--------------------------------------------------------------

             Standard Nuclear Orientation (Angstroms)
    I     Atom           X                Y                Z
 ----------------------------------------------------------------
    1      C       0.0937110000    -8.5197410000    -0.2554590000
    2      C      -0.0838690000    -7.6359670000     0.7990360000
    3      S       0.3452600000    -7.6517400000    -1.7894250000
    4      C      -0.0184110000    -6.2618940000     0.4183600000
    5      H      -0.2591690000    -7.9547380000     1.8342940000
    6      C       0.2297010000    -6.0799850000    -0.9877690000
    7      C       0.3026970000    -4.7983820000    -1.5552600000
    8      C      -0.1964590000    -5.1535420000     1.2949920000
    9      C      -0.1276510000    -3.8696260000     0.7264080000
   10      C       0.1235440000    -3.6889270000    -0.6807160000
   11      O      -0.3967060000    -5.4810750000     2.6018520000
   12      O       0.5026730000    -4.4798710000    -2.8681930000
   13      C       1.2629180000    -5.3560260000    -3.6914950000
   14      H       1.4946040000    -4.7904960000    -4.6140800000
   15      H       0.6937380000    -6.2685130000    -3.9741950000
   16      H       2.2127200000    -5.6581870000    -3.1995590000
   17      C      -0.9970160000    -4.5469990000     3.4907430000
   18      H      -1.2266910000    -5.1075640000     4.4166300000
   19      H      -1.9395260000    -4.1314730000     3.0739340000
   20      H      -0.3092140000    -3.7120850000     3.7467940000
   21      C       0.1861330000    -2.3143260000    -1.0582470000
   22      S      -0.2560100000    -2.2954870000     1.5275990000
   23      C       0.0000000000    -1.4351800000     0.0000000000
   24      H       0.3638960000    -1.9932110000    -2.0922850000
   25      H       0.0903280000    -9.6159850000    -0.2504350000
   26      C       0.0000000000     0.0000000000     0.0000000000
   27      S       0.7800440000     0.4477800000     1.5107320000
   28      C       2.1437740000     1.2363720000     0.7276290000
   29      C       0.7865290000     0.4541370000    -1.0646650000
   30      C       1.9884990000     1.1498440000    -0.6782870000
   31      C       0.7298640000     0.4195120000    -2.4861500000
   32      C       1.8251770000     1.0520410000    -3.1069160000
   33      S       2.9038770000     1.6786800000    -1.9657350000
   34      C       2.0478960000     1.1752320000    -4.5599720000
   35      O       1.2409530000     0.7058970000    -5.3502770000
   36      O       3.1607910000     1.8140240000    -5.0043750000
   37      F      -0.2330390000    -0.1409400000    -3.2462900000
   38      C       3.4765100000     1.9845850000    -6.3349760000
   39      H       4.4337350000     2.5365450000    -6.3702680000
   40      H       2.6938350000     2.5615030000    -6.8756090000
   41      H       3.5882390000     1.0111130000    -6.8618780000
   42      H       2.9405690000     1.6963270000     1.3215100000
 ----------------------------------------------------------------

   11   -2754.2269521552      7.24e-07  Convergence criterion met
 Total energy in the final basis set =    -2754.2269521552
        RIMP2         total energy =     -2759.3018153995 a.u.

                    Orbital Energies (a.u.)
 --------------------------------------------------------------

 Alpha MOs
 -- Occupied --
-92.0190 -92.0101 -91.9820 -91.9814 -26.3371 -20.6172 -20.5902 -20.5854
-20.5590 -11.4181 -11.3773 -11.3308 -11.3159 -11.3156 -11.3079 -11.3039
-11.2979 -11.2967 -11.2912 -11.2858 -11.2826 -11.2797 -11.2775 -11.2770
-11.2733 -11.2562 -11.2505 -11.2466 -11.2344  -9.0184  -9.0134  -8.9828
 -8.9820  -6.6990  -6.6981  -6.6979  -6.6946  -6.6940  -6.6927  -6.6638
 -6.6630  -6.6630  -6.6624  -6.6621  -6.6615  -1.6511  -1.4775  -1.4140
 -1.4083  -1.3739  -1.2469  -1.1922  -1.1714  -1.1445  -1.0851  -1.0538
 -1.0463  -1.0352  -0.9978  -0.9928  -0.9777  -0.9574  -0.9475  -0.9378
 -0.8936  -0.8776  -0.8437  -0.8028  -0.8006  -0.7871  -0.7748  -0.7682
 -0.7532  -0.7310  -0.7237  -0.7171  -0.6983  -0.6945  -0.6833  -0.6804
 -0.6758  -0.6628  -0.6562  -0.6487  -0.6253  -0.6161  -0.6142  -0.6131
 -0.6083  -0.6035  -0.5836  -0.5730  -0.5653  -0.5609  -0.5561  -0.5430
 -0.5353  -0.5275  -0.5207  -0.5185  -0.5159  -0.5094  -0.5042  -0.4966
 -0.4886  -0.4813  -0.4707  -0.4694  -0.4652  -0.4586  -0.4545  -0.4233
 -0.3939  -0.3791  -0.3572  -0.3484  -0.3249  -0.2866  -0.2434

          Ground-State Mulliken Net Atomic Charges

     Atom                 Charge (a.u.)
  ----------------------------------------
      1 C                    -0.201396
      2 C                    -0.253709
      3 S                    -0.029416
      4 C                    -0.026131
      5 H                     0.194642
      6 C                    -0.022562
      7 C                     0.230460
      8 C                     0.247916
      9 C                    -0.051444
     10 C                    -0.007374
     11 O                    -0.333758
     12 O                    -0.342922
     13 C                    -0.086365
     14 H                     0.121985
     15 H                     0.090613
     16 H                     0.091441
     17 C                    -0.087566
     18 H                     0.125023
     19 H                     0.094703
     20 H                     0.088458
     21 C                    -0.288479
     22 S                    -0.051752
     23 C                     0.006769
     24 H                     0.193068
     25 H                     0.204082
     26 C                    -0.138276
     27 S                     0.134040
     28 C                    -0.137964
     29 C                     0.002369
     30 C                    -0.038371
     31 C                     0.320507
     32 C                    -0.108445
     33 S                     0.086107
     34 C                     0.460671
     35 O                    -0.436214
     36 O                    -0.296438
     37 F                    -0.214093
     38 C                    -0.054559
     39 H                     0.117803
     40 H                     0.086171
     41 H                     0.085948
     42 H                     0.224458
  ----------------------------------------
  Sum of atomic charges =     0.000000

                    Cartesian Multipole Moments
 -----------------------------------------------------------------
    Charge (ESU x 10^10)
                -0.0000
    Dipole Moment (Debye)
         X       5.6927      Y       3.5896      Z       3.0748
       Tot       7.3991
    Quadrupole Moments (Debye-Ang)
        XX    -181.1237     XY       8.7200     YY    -183.4999
        XZ     -20.1978     YZ      -8.0550     ZZ    -181.1879

 Total job time:  313.01s(wall), 10092.94s(cpu)
        *  Thank you very much for using Q-Chem.  Have a nice day.  *
