 Q-Chem 5.4, Q-Chem, Inc., Pleasanton, CA (2021)
 Q-Chem 5.4.0 for Intel X86 EM64T Linux

User input:
--------------------------------------------------------------
$molecule
0 1
C	-0.175432	-8.519741	0.208002
C	0.352097	-7.635967	-0.722164
S	-0.936458	-7.651740	1.563424
C	0.160388	-6.261894	-0.386833
H	0.870905	-7.954738	-1.635031
C	-0.553685	-6.079985	0.849637
C	-0.816372	-4.798382	1.357938
C	0.627524	-5.153542	-1.149702
C	0.368399	-3.869626	-0.638941
C	-0.348912	-3.688927	0.597409
O	1.262667	-5.481075	-2.309260
O	-1.453338	-4.479871	2.523296
C	-2.449320	-5.356026	3.036927
H	-2.982577	-4.790496	3.824632
H	-2.011155	-6.268513	3.497250
H	-3.173591	-5.658187	2.249807
C	2.130793	-4.546999	-2.939226
H	2.663289	-5.107564	-3.730721
H	2.873906	-4.131473	-2.225196
H	1.572045	-3.712085	-3.415077
C	-0.536849	-2.314326	0.930765
S	0.763041	-2.295487	-1.347913
C	0.000000	-1.435180	0.000000
H	-1.057554	-1.993211	1.841645
H	-0.170535	-9.615985	0.204438
C	0.000000	0.000000	0.000000
S	0.780044	0.447780	1.510732
C	2.143774	1.236372	0.727629
C	0.786529	0.454137	-1.064665
C	1.988499	1.149844	-0.678287
C	0.729864	0.419512	-2.486150
C	1.825177	1.052041	-3.106916
S	2.903877	1.678680	-1.965735
C	2.047896	1.175232	-4.559972
O	1.240953	0.705897	-5.350277
O	3.160791	1.814024	-5.004375
F	-0.233039	-0.140940	-3.246290
C	3.476510	1.984585	-6.334976
H	4.433735	2.536545	-6.370268
H	2.693835	2.561503	-6.875609
H	3.588239	1.011113	-6.861878
H	2.940569	1.696327	1.321510
$end

$rem
JOBTYPE		SP
EXCHANGE	HF
CORRELATION	pRIMP2
BASIS		cc-pvtz
METHOD		rimp2
AUX_BASIS	rimp2-cc-pvtz
SOLVENT_METHOD	PCM
PURECART	11111
SYMMETRY	false
MEM_TOTAL	110000
SCF_CONVERGENCE = 6
THRESH=10
GUI = 2
$end

$solvent
dielectric 4.90
$end
--------------------------------------------------------------

             Standard Nuclear Orientation (Angstroms)
    I     Atom           X                Y                Z
 ----------------------------------------------------------------
    1      C      -0.1754320000    -8.5197410000     0.2080020000
    2      C       0.3520970000    -7.6359670000    -0.7221640000
    3      S      -0.9364580000    -7.6517400000     1.5634240000
    4      C       0.1603880000    -6.2618940000    -0.3868330000
    5      H       0.8709050000    -7.9547380000    -1.6350310000
    6      C      -0.5536850000    -6.0799850000     0.8496370000
    7      C      -0.8163720000    -4.7983820000     1.3579380000
    8      C       0.6275240000    -5.1535420000    -1.1497020000
    9      C       0.3683990000    -3.8696260000    -0.6389410000
   10      C      -0.3489120000    -3.6889270000     0.5974090000
   11      O       1.2626670000    -5.4810750000    -2.3092600000
   12      O      -1.4533380000    -4.4798710000     2.5232960000
   13      C      -2.4493200000    -5.3560260000     3.0369270000
   14      H      -2.9825770000    -4.7904960000     3.8246320000
   15      H      -2.0111550000    -6.2685130000     3.4972500000
   16      H      -3.1735910000    -5.6581870000     2.2498070000
   17      C       2.1307930000    -4.5469990000    -2.9392260000
   18      H       2.6632890000    -5.1075640000    -3.7307210000
   19      H       2.8739060000    -4.1314730000    -2.2251960000
   20      H       1.5720450000    -3.7120850000    -3.4150770000
   21      C      -0.5368490000    -2.3143260000     0.9307650000
   22      S       0.7630410000    -2.2954870000    -1.3479130000
   23      C       0.0000000000    -1.4351800000     0.0000000000
   24      H      -1.0575540000    -1.9932110000     1.8416450000
   25      H      -0.1705350000    -9.6159850000     0.2044380000
   26      C       0.0000000000     0.0000000000     0.0000000000
   27      S       0.7800440000     0.4477800000     1.5107320000
   28      C       2.1437740000     1.2363720000     0.7276290000
   29      C       0.7865290000     0.4541370000    -1.0646650000
   30      C       1.9884990000     1.1498440000    -0.6782870000
   31      C       0.7298640000     0.4195120000    -2.4861500000
   32      C       1.8251770000     1.0520410000    -3.1069160000
   33      S       2.9038770000     1.6786800000    -1.9657350000
   34      C       2.0478960000     1.1752320000    -4.5599720000
   35      O       1.2409530000     0.7058970000    -5.3502770000
   36      O       3.1607910000     1.8140240000    -5.0043750000
   37      F      -0.2330390000    -0.1409400000    -3.2462900000
   38      C       3.4765100000     1.9845850000    -6.3349760000
   39      H       4.4337350000     2.5365450000    -6.3702680000
   40      H       2.6938350000     2.5615030000    -6.8756090000
   41      H       3.5882390000     1.0111130000    -6.8618780000
   42      H       2.9405690000     1.6963270000     1.3215100000
 ----------------------------------------------------------------

   11   -2754.2257023257      6.04e-07  Convergence criterion met
 Total energy in the final basis set =    -2754.2257023257
        RIMP2         total energy =     -2759.3021049708 a.u.

                    Orbital Energies (a.u.)
 --------------------------------------------------------------

 Alpha MOs
 -- Occupied --
-92.0191 -92.0096 -91.9837 -91.9816 -26.3350 -20.6173 -20.5899 -20.5855
-20.5590 -11.4181 -11.3786 -11.3303 -11.3158 -11.3152 -11.3070 -11.3036
-11.2979 -11.2951 -11.2914 -11.2854 -11.2829 -11.2797 -11.2762 -11.2760
-11.2728 -11.2562 -11.2497 -11.2464 -11.2321  -9.0180  -9.0129  -8.9848
 -8.9816  -6.6985  -6.6976  -6.6975  -6.6941  -6.6935  -6.6922  -6.6658
 -6.6650  -6.6640  -6.6626  -6.6620  -6.6611  -1.6490  -1.4776  -1.4137
 -1.4084  -1.3739  -1.2479  -1.1913  -1.1705  -1.1445  -1.0861  -1.0525
 -1.0455  -1.0360  -0.9985  -0.9911  -0.9775  -0.9563  -0.9471  -0.9396
 -0.8912  -0.8786  -0.8426  -0.8095  -0.7962  -0.7862  -0.7780  -0.7619
 -0.7528  -0.7289  -0.7213  -0.7158  -0.6983  -0.6918  -0.6831  -0.6795
 -0.6771  -0.6649  -0.6559  -0.6489  -0.6259  -0.6159  -0.6147  -0.6133
 -0.6103  -0.6017  -0.5803  -0.5745  -0.5657  -0.5584  -0.5542  -0.5490
 -0.5338  -0.5277  -0.5210  -0.5176  -0.5123  -0.5059  -0.5043  -0.4953
 -0.4901  -0.4823  -0.4719  -0.4691  -0.4654  -0.4632  -0.4548  -0.4156
 -0.3913  -0.3822  -0.3623  -0.3449  -0.3230  -0.2892  -0.2421

          Ground-State Mulliken Net Atomic Charges

     Atom                 Charge (a.u.)
  ----------------------------------------
      1 C                    -0.202774
      2 C                    -0.252283
      3 S                    -0.030876
      4 C                    -0.030610
      5 H                     0.194781
      6 C                    -0.022790
      7 C                     0.220052
      8 C                     0.247549
      9 C                    -0.050637
     10 C                     0.007131
     11 O                    -0.333014
     12 O                    -0.342325
     13 C                    -0.085256
     14 H                     0.120344
     15 H                     0.089556
     16 H                     0.092480
     17 C                    -0.089217
     18 H                     0.125421
     19 H                     0.092913
     20 H                     0.091010
     21 C                    -0.329669
     22 S                    -0.039451
     23 C                     0.058846
     24 H                     0.183047
     25 H                     0.203913
     26 C                    -0.166580
     27 S                     0.149029
     28 C                    -0.136136
     29 C                    -0.011194
     30 C                    -0.033001
     31 C                     0.335244
     32 C                    -0.113161
     33 S                     0.084253
     34 C                     0.459162
     35 O                    -0.436262
     36 O                    -0.296450
     37 F                    -0.211288
     38 C                    -0.054652
     39 H                     0.117835
     40 H                     0.086277
     41 H                     0.085791
     42 H                     0.222993
  ----------------------------------------
  Sum of atomic charges =     0.000000

                    Cartesian Multipole Moments
 -----------------------------------------------------------------
    Charge (ESU x 10^10)
                -0.0000
    Dipole Moment (Debye)
         X       5.5996      Y       3.6304      Z       1.8790
       Tot       6.9330
    Quadrupole Moments (Debye-Ang)
        XX    -173.8590     XY       9.8913     YY    -184.4821
        XZ     -23.1868     YZ      -3.9736     ZZ    -188.6098

 Total job time:  307.13s(wall), 10007.96s(cpu)
        *  Thank you very much for using Q-Chem.  Have a nice day.  *
