 Q-Chem 5.4, Q-Chem, Inc., Pleasanton, CA (2021)
 Q-Chem 5.4.0 for Intel X86 EM64T Linux

User input:
--------------------------------------------------------------
$molecule
0 1
C	-0.268090	-8.519741	0.046574
C	0.733920	-7.635967	-0.326886
S	-1.722318	-7.651740	0.595708
C	0.371516	-6.261894	-0.193236
H	1.718130	-7.954738	-0.692700
C	-0.970283	-6.079985	0.294958
C	-1.498243	-4.798382	0.515487
C	1.219725	-5.153542	-0.477358
C	0.692914	-3.869626	-0.252655
C	-0.651289	-3.688927	0.233366
O	2.451623	-5.481075	-0.957369
O	-2.735264	-4.479871	0.998769
C	-3.828387	-5.356026	0.752029
H	-4.743213	-4.790496	1.012675
H	-3.788623	-6.268513	1.386303
H	-3.877260	-5.658187	-0.316492
C	3.521580	-4.546999	-0.881930
H	4.438260	-5.107564	-1.145969
H	3.631868	-4.131473	0.142712
H	3.399425	-3.712085	-1.605610
C	-1.009535	-2.314326	0.367928
S	1.450945	-2.295487	-0.542088
C	0.000000	-1.435180	0.000000
H	-1.993920	-1.993211	0.730999
H	-0.262047	-9.615985	0.046991
C	0.000000	0.000000	0.000000
S	0.780044	0.447780	1.510732
C	2.143774	1.236372	0.727629
C	0.786529	0.454137	-1.064665
C	1.988499	1.149844	-0.678287
C	0.729864	0.419512	-2.486150
C	1.825177	1.052041	-3.106916
S	2.903877	1.678680	-1.965735
C	2.047896	1.175232	-4.559972
O	1.240953	0.705897	-5.350277
O	3.160791	1.814024	-5.004375
F	-0.233039	-0.140940	-3.246290
C	3.476510	1.984585	-6.334976
H	4.433735	2.536545	-6.370268
H	2.693835	2.561503	-6.875609
H	3.588239	1.011113	-6.861878
H	2.940569	1.696327	1.321510
$end

$rem
JOBTYPE		SP
EXCHANGE	HF
CORRELATION	pRIMP2
BASIS		cc-pvtz
METHOD		rimp2
AUX_BASIS	rimp2-cc-pvtz
SOLVENT_METHOD	PCM
PURECART	11111
SYMMETRY	false
MEM_TOTAL	110000
SCF_CONVERGENCE = 6
THRESH=10
GUI = 2
$end

$solvent
dielectric 4.90
$end
--------------------------------------------------------------

             Standard Nuclear Orientation (Angstroms)
    I     Atom           X                Y                Z
 ----------------------------------------------------------------
    1      C      -0.2680900000    -8.5197410000     0.0465740000
    2      C       0.7339200000    -7.6359670000    -0.3268860000
    3      S      -1.7223180000    -7.6517400000     0.5957080000
    4      C       0.3715160000    -6.2618940000    -0.1932360000
    5      H       1.7181300000    -7.9547380000    -0.6927000000
    6      C      -0.9702830000    -6.0799850000     0.2949580000
    7      C      -1.4982430000    -4.7983820000     0.5154870000
    8      C       1.2197250000    -5.1535420000    -0.4773580000
    9      C       0.6929140000    -3.8696260000    -0.2526550000
   10      C      -0.6512890000    -3.6889270000     0.2333660000
   11      O       2.4516230000    -5.4810750000    -0.9573690000
   12      O      -2.7352640000    -4.4798710000     0.9987690000
   13      C      -3.8283870000    -5.3560260000     0.7520290000
   14      H      -4.7432130000    -4.7904960000     1.0126750000
   15      H      -3.7886230000    -6.2685130000     1.3863030000
   16      H      -3.8772600000    -5.6581870000    -0.3164920000
   17      C       3.5215800000    -4.5469990000    -0.8819300000
   18      H       4.4382600000    -5.1075640000    -1.1459690000
   19      H       3.6318680000    -4.1314730000     0.1427120000
   20      H       3.3994250000    -3.7120850000    -1.6056100000
   21      C      -1.0095350000    -2.3143260000     0.3679280000
   22      S       1.4509450000    -2.2954870000    -0.5420880000
   23      C       0.0000000000    -1.4351800000     0.0000000000
   24      H      -1.9939200000    -1.9932110000     0.7309990000
   25      H      -0.2620470000    -9.6159850000     0.0469910000
   26      C       0.0000000000     0.0000000000     0.0000000000
   27      S       0.7800440000     0.4477800000     1.5107320000
   28      C       2.1437740000     1.2363720000     0.7276290000
   29      C       0.7865290000     0.4541370000    -1.0646650000
   30      C       1.9884990000     1.1498440000    -0.6782870000
   31      C       0.7298640000     0.4195120000    -2.4861500000
   32      C       1.8251770000     1.0520410000    -3.1069160000
   33      S       2.9038770000     1.6786800000    -1.9657350000
   34      C       2.0478960000     1.1752320000    -4.5599720000
   35      O       1.2409530000     0.7058970000    -5.3502770000
   36      O       3.1607910000     1.8140240000    -5.0043750000
   37      F      -0.2330390000    -0.1409400000    -3.2462900000
   38      C       3.4765100000     1.9845850000    -6.3349760000
   39      H       4.4337350000     2.5365450000    -6.3702680000
   40      H       2.6938350000     2.5615030000    -6.8756090000
   41      H       3.5882390000     1.0111130000    -6.8618780000
   42      H       2.9405690000     1.6963270000     1.3215100000
 ----------------------------------------------------------------

   11   -2754.2314053216      5.82e-07  Convergence criterion met
 Total energy in the final basis set =    -2754.2314053216
        RIMP2         total energy =     -2759.3047374092 a.u.

                    Orbital Energies (a.u.)
 --------------------------------------------------------------

 Alpha MOs
 -- Occupied --
-92.0172 -92.0074 -91.9836 -91.9820 -26.3346 -20.6163 -20.5907 -20.5877
-20.5575 -11.4168 -11.3771 -11.3267 -11.3163 -11.3128 -11.3118 -11.3021
-11.2950 -11.2907 -11.2894 -11.2862 -11.2839 -11.2810 -11.2799 -11.2761
-11.2712 -11.2557 -11.2540 -11.2478 -11.2406  -9.0161  -9.0108  -8.9835
 -8.9831  -6.6966  -6.6957  -6.6956  -6.6920  -6.6913  -6.6901  -6.6645
 -6.6641  -6.6639  -6.6634  -6.6630  -6.6624  -1.6475  -1.4765  -1.4146
 -1.4106  -1.3727  -1.2456  -1.1921  -1.1704  -1.1444  -1.0841  -1.0518
 -1.0475  -1.0338  -0.9983  -0.9916  -0.9761  -0.9582  -0.9486  -0.9385
 -0.8925  -0.8765  -0.8428  -0.8059  -0.7943  -0.7856  -0.7788  -0.7650
 -0.7527  -0.7302  -0.7182  -0.7155  -0.6988  -0.6923  -0.6821  -0.6787
 -0.6777  -0.6640  -0.6570  -0.6502  -0.6282  -0.6173  -0.6158  -0.6123
 -0.6092  -0.5996  -0.5822  -0.5758  -0.5651  -0.5627  -0.5534  -0.5424
 -0.5338  -0.5294  -0.5216  -0.5158  -0.5130  -0.5079  -0.5016  -0.4945
 -0.4910  -0.4858  -0.4676  -0.4664  -0.4651  -0.4630  -0.4579  -0.4028
 -0.3989  -0.3819  -0.3570  -0.3485  -0.3130  -0.2949  -0.2529

          Ground-State Mulliken Net Atomic Charges

     Atom                 Charge (a.u.)
  ----------------------------------------
      1 C                    -0.195531
      2 C                    -0.253703
      3 S                    -0.026675
      4 C                    -0.022134
      5 H                     0.195293
      6 C                    -0.025834
      7 C                     0.235057
      8 C                     0.243675
      9 C                    -0.045510
     10 C                    -0.002957
     11 O                    -0.333422
     12 O                    -0.340395
     13 C                    -0.085530
     14 H                     0.121488
     15 H                     0.090039
     16 H                     0.093325
     17 C                    -0.087111
     18 H                     0.124957
     19 H                     0.093293
     20 H                     0.089209
     21 C                    -0.274081
     22 S                    -0.044501
     23 C                    -0.009556
     24 H                     0.191949
     25 H                     0.205060
     26 C                    -0.160131
     27 S                     0.150247
     28 C                    -0.139289
     29 C                    -0.083489
     30 C                    -0.028470
     31 C                     0.401600
     32 C                    -0.127746
     33 S                     0.078420
     34 C                     0.459087
     35 O                    -0.437145
     36 O                    -0.296631
     37 F                    -0.208773
     38 C                    -0.054723
     39 H                     0.117491
     40 H                     0.085999
     41 H                     0.085896
     42 H                     0.221253
  ----------------------------------------
  Sum of atomic charges =     0.000000

                    Cartesian Multipole Moments
 -----------------------------------------------------------------
    Charge (ESU x 10^10)
                -0.0000
    Dipole Moment (Debye)
         X       5.4158      Y       2.4846      Z       2.3197
       Tot       6.3941
    Quadrupole Moments (Debye-Ang)
        XX    -162.0058     XY       9.4219     YY    -178.0073
        XZ     -13.7219     YZ      -4.8334     ZZ    -201.3939

 Total job time:  308.05s(wall), 10063.59s(cpu)
        *  Thank you very much for using Q-Chem.  Have a nice day.  *
