 Q-Chem 5.4, Q-Chem, Inc., Pleasanton, CA (2021)
 Q-Chem 5.4.0 for Intel X86 EM64T Linux

User input:
--------------------------------------------------------------
$molecule
0 1
C	-0.046574	-8.519741	-0.268090
C	0.326886	-7.635967	0.733920
S	-0.595708	-7.651740	-1.722318
C	0.193236	-6.261894	0.371516
H	0.692700	-7.954738	1.718130
C	-0.294958	-6.079985	-0.970283
C	-0.515487	-4.798382	-1.498243
C	0.477358	-5.153542	1.219725
C	0.252655	-3.869626	0.692914
C	-0.233366	-3.688927	-0.651289
O	0.957369	-5.481075	2.451623
O	-0.998769	-4.479871	-2.735264
C	-0.752029	-5.356026	-3.828387
H	-1.012675	-4.790496	-4.743213
H	-1.386303	-6.268513	-3.788623
H	0.316492	-5.658187	-3.877260
C	0.881930	-4.546999	3.521580
H	1.145969	-5.107564	4.438260
H	-0.142712	-4.131473	3.631868
H	1.605610	-3.712085	3.399425
C	-0.367928	-2.314326	-1.009535
S	0.542088	-2.295487	1.450945
C	-0.000000	-1.435180	-0.000000
H	-0.730999	-1.993211	-1.993920
H	-0.046991	-9.615985	-0.262047
C	0.000000	0.000000	0.000000
S	0.158383	0.885376	1.510732
C	0.430876	2.436951	0.727629
C	0.157682	0.894430	-1.064665
C	0.397351	2.262384	-0.678287
C	0.147783	0.828765	-2.486150
C	0.367291	2.074406	-3.106916
S	0.580633	3.303533	-1.965735
C	0.416083	2.324204	-4.559972
O	0.256921	1.404367	-5.350277
O	0.642094	3.587338	-5.004375
F	-0.041828	-0.269113	-3.246290
C	0.714377	3.938827	-6.334976
H	0.906844	5.026898	-6.370268
H	-0.230661	3.710099	-6.875609
H	1.531918	3.398681	-6.861878
H	0.590699	3.342984	1.321510
$end

$rem
JOBTYPE		SP
EXCHANGE	HF
CORRELATION	pRIMP2
BASIS		cc-pvtz
METHOD		rimp2
AUX_BASIS	rimp2-cc-pvtz
SOLVENT_METHOD	PCM
PURECART	11111
SYMMETRY	false
MEM_TOTAL	110000
SCF_CONVERGENCE = 6
THRESH=10
GUI = 2
$end

$solvent
dielectric 4.90
$end
--------------------------------------------------------------

             Standard Nuclear Orientation (Angstroms)
    I     Atom           X                Y                Z
 ----------------------------------------------------------------
    1      C      -0.0465740000    -8.5197410000    -0.2680900000
    2      C       0.3268860000    -7.6359670000     0.7339200000
    3      S      -0.5957080000    -7.6517400000    -1.7223180000
    4      C       0.1932360000    -6.2618940000     0.3715160000
    5      H       0.6927000000    -7.9547380000     1.7181300000
    6      C      -0.2949580000    -6.0799850000    -0.9702830000
    7      C      -0.5154870000    -4.7983820000    -1.4982430000
    8      C       0.4773580000    -5.1535420000     1.2197250000
    9      C       0.2526550000    -3.8696260000     0.6929140000
   10      C      -0.2333660000    -3.6889270000    -0.6512890000
   11      O       0.9573690000    -5.4810750000     2.4516230000
   12      O      -0.9987690000    -4.4798710000    -2.7352640000
   13      C      -0.7520290000    -5.3560260000    -3.8283870000
   14      H      -1.0126750000    -4.7904960000    -4.7432130000
   15      H      -1.3863030000    -6.2685130000    -3.7886230000
   16      H       0.3164920000    -5.6581870000    -3.8772600000
   17      C       0.8819300000    -4.5469990000     3.5215800000
   18      H       1.1459690000    -5.1075640000     4.4382600000
   19      H      -0.1427120000    -4.1314730000     3.6318680000
   20      H       1.6056100000    -3.7120850000     3.3994250000
   21      C      -0.3679280000    -2.3143260000    -1.0095350000
   22      S       0.5420880000    -2.2954870000     1.4509450000
   23      C       0.0000000000    -1.4351800000     0.0000000000
   24      H      -0.7309990000    -1.9932110000    -1.9939200000
   25      H      -0.0469910000    -9.6159850000    -0.2620470000
   26      C       0.0000000000     0.0000000000     0.0000000000
   27      S       0.1583830000     0.8853760000     1.5107320000
   28      C       0.4308760000     2.4369510000     0.7276290000
   29      C       0.1576820000     0.8944300000    -1.0646650000
   30      C       0.3973510000     2.2623840000    -0.6782870000
   31      C       0.1477830000     0.8287650000    -2.4861500000
   32      C       0.3672910000     2.0744060000    -3.1069160000
   33      S       0.5806330000     3.3035330000    -1.9657350000
   34      C       0.4160830000     2.3242040000    -4.5599720000
   35      O       0.2569210000     1.4043670000    -5.3502770000
   36      O       0.6420940000     3.5873380000    -5.0043750000
   37      F      -0.0418280000    -0.2691130000    -3.2462900000
   38      C       0.7143770000     3.9388270000    -6.3349760000
   39      H       0.9068440000     5.0268980000    -6.3702680000
   40      H      -0.2306610000     3.7100990000    -6.8756090000
   41      H       1.5319180000     3.3986810000    -6.8618780000
   42      H       0.5906990000     3.3429840000     1.3215100000
 ----------------------------------------------------------------

   10   -2754.2960542074      8.04e-07  Convergence criterion met
 Total energy in the final basis set =    -2754.2960542074
        RIMP2         total energy =     -2759.3513008417 a.u.

                    Orbital Energies (a.u.)
 --------------------------------------------------------------

 Alpha MOs
 -- Occupied --
-92.0161 -91.9950 -91.9916 -91.9870 -26.3372 -20.6118 -20.5932 -20.5916
-20.5495 -11.4099 -11.3785 -11.3202 -11.3193 -11.3138 -11.2976 -11.2964
-11.2964 -11.2923 -11.2884 -11.2880 -11.2879 -11.2854 -11.2848 -11.2813
-11.2807 -11.2622 -11.2604 -11.2577 -11.2505  -9.0146  -8.9990  -8.9922
 -8.9869  -6.6954  -6.6948  -6.6943  -6.6803  -6.6796  -6.6783  -6.6731
 -6.6725  -6.6715  -6.6679  -6.6673  -6.6664  -1.6511  -1.4715  -1.4173
 -1.4143  -1.3668  -1.2338  -1.1974  -1.1698  -1.1426  -1.0849  -1.0531
 -1.0482  -1.0281  -1.0038  -0.9941  -0.9724  -0.9613  -0.9509  -0.9384
 -0.8972  -0.8696  -0.8520  -0.8062  -0.7958  -0.7888  -0.7724  -0.7697
 -0.7581  -0.7331  -0.7207  -0.7185  -0.7019  -0.6895  -0.6846  -0.6784
 -0.6723  -0.6623  -0.6597  -0.6527  -0.6298  -0.6203  -0.6163  -0.6062
 -0.6003  -0.5942  -0.5885  -0.5768  -0.5692  -0.5601  -0.5547  -0.5485
 -0.5375  -0.5272  -0.5226  -0.5203  -0.5175  -0.5096  -0.5052  -0.4962
 -0.4861  -0.4844  -0.4798  -0.4685  -0.4621  -0.4612  -0.4594  -0.4230
 -0.3984  -0.3863  -0.3596  -0.3507  -0.3253  -0.2852  -0.2481

          Ground-State Mulliken Net Atomic Charges

     Atom                 Charge (a.u.)
  ----------------------------------------
      1 C                    -0.186386
      2 C                    -0.255258
      3 S                    -0.019953
      4 C                    -0.012186
      5 H                     0.196460
      6 C                    -0.029321
      7 C                     0.249760
      8 C                     0.240224
      9 C                    -0.039916
     10 C                    -0.033992
     11 O                    -0.333075
     12 O                    -0.338917
     13 C                    -0.086139
     14 H                     0.124274
     15 H                     0.091187
     16 H                     0.094156
     17 C                    -0.088116
     18 H                     0.125840
     19 H                     0.094935
     20 H                     0.089679
     21 C                    -0.211696
     22 S                    -0.032915
     23 C                    -0.039581
     24 H                     0.201303
     25 H                     0.206861
     26 C                    -0.002708
     27 S                     0.085834
     28 C                    -0.236213
     29 C                    -0.054059
     30 C                    -0.021196
     31 C                     0.381795
     32 C                    -0.140789
     33 S                     0.038200
     34 C                     0.459184
     35 O                    -0.451856
     36 O                    -0.298030
     37 F                    -0.214826
     38 C                    -0.054959
     39 H                     0.116607
     40 H                     0.084370
     41 H                     0.084370
     42 H                     0.217049
  ----------------------------------------
  Sum of atomic charges =     0.000000

                    Cartesian Multipole Moments
 -----------------------------------------------------------------
    Charge (ESU x 10^10)
                -0.0000
    Dipole Moment (Debye)
         X       0.8331      Y       1.1791      Z       3.1391
       Tot       3.4551
    Quadrupole Moments (Debye-Ang)
        XX    -201.0990     XY       1.5523     YY    -157.3411
        XZ       1.0911     YZ      -9.1750     ZZ    -181.6256

 Total job time:  351.03s(wall), 9629.53s(cpu)
        *  Thank you very much for using Q-Chem.  Have a nice day.  *
