 Q-Chem 5.4, Q-Chem, Inc., Pleasanton, CA (2021)
 Q-Chem 5.4.0 for Intel X86 EM64T Linux

User input:
--------------------------------------------------------------
$molecule
0 1
C	0.092419	-8.519741	0.255929
C	-0.449364	-7.635967	-0.666007
S	0.885736	-7.651740	1.592708
C	-0.254813	-6.261894	-0.332317
H	-0.980526	-7.954738	-1.571741
C	0.458965	-6.079985	0.904324
C	0.767823	-4.798382	1.385968
C	-0.681909	-5.153542	-1.118303
C	-0.369139	-3.869626	-0.638514
C	0.342916	-3.688927	0.600871
O	-1.368544	-5.481075	-2.248132
O	1.458570	-4.479871	2.520275
C	1.405396	-5.356026	3.639637
H	1.820940	-4.790496	4.495304
H	2.023129	-6.268513	3.490336
H	0.361595	-5.658187	3.873314
C	-1.480048	-4.546999	-3.314934
H	-1.899255	-5.107564	-4.171837
H	-0.490123	-4.131473	-3.601473
H	-2.171521	-3.712085	-3.068969
C	0.537642	-2.314326	0.930308
S	-0.785807	-2.295487	-1.334769
C	-0.000000	-1.435180	-0.000000
H	1.066134	-1.993211	1.836691
H	0.091781	-9.615985	0.249906
C	0.000000	0.000000	0.000000
S	0.690437	0.576430	1.510732
C	1.896512	1.589852	0.727629
C	0.695720	0.583817	-1.064665
C	1.758621	1.477674	-0.678287
C	0.645928	0.539878	-2.486150
C	1.614763	1.352997	-3.106916
S	2.568261	2.157430	-1.965735
C	1.812707	1.512991	-4.559972
O	1.099523	0.910662	-5.350277
O	2.797769	2.335330	-5.004375
F	-0.205024	-0.179266	-3.246290
C	3.079074	2.558124	-6.334976
H	3.925910	3.267919	-6.370268
H	2.208109	2.990367	-6.875609
H	3.358147	1.618843	-6.861878
H	2.601331	2.181180	1.321510
$end

$rem
JOBTYPE		SP
EXCHANGE	HF
CORRELATION	pRIMP2
BASIS		cc-pvtz
METHOD		rimp2
AUX_BASIS	rimp2-cc-pvtz
SOLVENT_METHOD	PCM
PURECART	11111
SYMMETRY	false
MEM_TOTAL	110000
SCF_CONVERGENCE = 6
THRESH=10
GUI = 2
$end

$solvent
dielectric 4.90
$end
--------------------------------------------------------------

             Standard Nuclear Orientation (Angstroms)
    I     Atom           X                Y                Z
 ----------------------------------------------------------------
    1      C       0.0924190000    -8.5197410000     0.2559290000
    2      C      -0.4493640000    -7.6359670000    -0.6660070000
    3      S       0.8857360000    -7.6517400000     1.5927080000
    4      C      -0.2548130000    -6.2618940000    -0.3323170000
    5      H      -0.9805260000    -7.9547380000    -1.5717410000
    6      C       0.4589650000    -6.0799850000     0.9043240000
    7      C       0.7678230000    -4.7983820000     1.3859680000
    8      C      -0.6819090000    -5.1535420000    -1.1183030000
    9      C      -0.3691390000    -3.8696260000    -0.6385140000
   10      C       0.3429160000    -3.6889270000     0.6008710000
   11      O      -1.3685440000    -5.4810750000    -2.2481320000
   12      O       1.4585700000    -4.4798710000     2.5202750000
   13      C       1.4053960000    -5.3560260000     3.6396370000
   14      H       1.8209400000    -4.7904960000     4.4953040000
   15      H       2.0231290000    -6.2685130000     3.4903360000
   16      H       0.3615950000    -5.6581870000     3.8733140000
   17      C      -1.4800480000    -4.5469990000    -3.3149340000
   18      H      -1.8992550000    -5.1075640000    -4.1718370000
   19      H      -0.4901230000    -4.1314730000    -3.6014730000
   20      H      -2.1715210000    -3.7120850000    -3.0689690000
   21      C       0.5376420000    -2.3143260000     0.9303080000
   22      S      -0.7858070000    -2.2954870000    -1.3347690000
   23      C       0.0000000000    -1.4351800000     0.0000000000
   24      H       1.0661340000    -1.9932110000     1.8366910000
   25      H       0.0917810000    -9.6159850000     0.2499060000
   26      C       0.0000000000     0.0000000000     0.0000000000
   27      S       0.6904370000     0.5764300000     1.5107320000
   28      C       1.8965120000     1.5898520000     0.7276290000
   29      C       0.6957200000     0.5838170000    -1.0646650000
   30      C       1.7586210000     1.4776740000    -0.6782870000
   31      C       0.6459280000     0.5398780000    -2.4861500000
   32      C       1.6147630000     1.3529970000    -3.1069160000
   33      S       2.5682610000     2.1574300000    -1.9657350000
   34      C       1.8127070000     1.5129910000    -4.5599720000
   35      O       1.0995230000     0.9106620000    -5.3502770000
   36      O       2.7977690000     2.3353300000    -5.0043750000
   37      F      -0.2050240000    -0.1792660000    -3.2462900000
   38      C       3.0790740000     2.5581240000    -6.3349760000
   39      H       3.9259100000     3.2679190000    -6.3702680000
   40      H       2.2081090000     2.9903670000    -6.8756090000
   41      H       3.3581470000     1.6188430000    -6.8618780000
   42      H       2.6013310000     2.1811800000     1.3215100000
 ----------------------------------------------------------------

   11   -2754.2504032556      6.29e-07  Convergence criterion met
 Total energy in the final basis set =    -2754.2504032556
        RIMP2         total energy =     -2759.3194269051 a.u.

                    Orbital Energies (a.u.)
 --------------------------------------------------------------

 Alpha MOs
 -- Occupied --
-92.0158 -92.0038 -91.9833 -91.9808 -26.3348 -20.6154 -20.5896 -20.5879
-20.5557 -11.4153 -11.3775 -11.3182 -11.3159 -11.3111 -11.3089 -11.3012
-11.2975 -11.2948 -11.2902 -11.2888 -11.2844 -11.2844 -11.2808 -11.2788
-11.2753 -11.2567 -11.2530 -11.2475 -11.2420  -9.0148  -9.0075  -8.9832
 -8.9819  -6.6954  -6.6946  -6.6944  -6.6887  -6.6880  -6.6867  -6.6642
 -6.6636  -6.6628  -6.6628  -6.6621  -6.6611  -1.6492  -1.4755  -1.4136
 -1.4107  -1.3715  -1.2420  -1.1924  -1.1694  -1.1437  -1.0838  -1.0516
 -1.0475  -1.0330  -0.9983  -0.9920  -0.9755  -0.9572  -0.9476  -0.9388
 -0.8921  -0.8752  -0.8450  -0.8097  -0.7948  -0.7861  -0.7762  -0.7630
 -0.7541  -0.7289  -0.7204  -0.7173  -0.6985  -0.6912  -0.6814  -0.6799
 -0.6771  -0.6620  -0.6562  -0.6501  -0.6267  -0.6170  -0.6142  -0.6107
 -0.6049  -0.6035  -0.5886  -0.5703  -0.5660  -0.5651  -0.5533  -0.5516
 -0.5319  -0.5246  -0.5198  -0.5157  -0.5123  -0.5085  -0.5025  -0.4932
 -0.4869  -0.4843  -0.4725  -0.4656  -0.4639  -0.4616  -0.4523  -0.4232
 -0.3913  -0.3824  -0.3553  -0.3508  -0.3221  -0.2870  -0.2472

          Ground-State Mulliken Net Atomic Charges

     Atom                 Charge (a.u.)
  ----------------------------------------
      1 C                    -0.197149
      2 C                    -0.253218
      3 S                    -0.028816
      4 C                    -0.021100
      5 H                     0.195497
      6 C                    -0.024524
      7 C                     0.230072
      8 C                     0.243530
      9 C                    -0.044886
     10 C                    -0.011619
     11 O                    -0.334032
     12 O                    -0.342418
     13 C                    -0.085519
     14 H                     0.120882
     15 H                     0.090384
     16 H                     0.092945
     17 C                    -0.087159
     18 H                     0.124186
     19 H                     0.094805
     20 H                     0.089771
     21 C                    -0.290916
     22 S                    -0.027800
     23 C                     0.003811
     24 H                     0.190780
     25 H                     0.204818
     26 C                    -0.090212
     27 S                     0.111468
     28 C                    -0.164543
     29 C                    -0.022464
     30 C                    -0.034177
     31 C                     0.350263
     32 C                    -0.114693
     33 S                     0.066403
     34 C                     0.456117
     35 O                    -0.441395
     36 O                    -0.296930
     37 F                    -0.206665
     38 C                    -0.054593
     39 H                     0.117419
     40 H                     0.085369
     41 H                     0.085448
     42 H                     0.220860
  ----------------------------------------
  Sum of atomic charges =     0.000000

                    Cartesian Multipole Moments
 -----------------------------------------------------------------
    Charge (ESU x 10^10)
                -0.0000
    Dipole Moment (Debye)
         X       3.6908      Y       3.1541      Z       2.3502
       Tot       5.3938
    Quadrupole Moments (Debye-Ang)
        XX    -188.3423     XY      11.5566     YY    -177.1805
        XZ      -2.8420     YZ      -7.3154     ZZ    -180.5665

 Total job time:  310.13s(wall), 10189.67s(cpu)
        *  Thank you very much for using Q-Chem.  Have a nice day.  *
