 Q-Chem 5.4, Q-Chem, Inc., Pleasanton, CA (2021)
 Q-Chem 5.4.0 for Intel X86 EM64T Linux

User input:
--------------------------------------------------------------
$molecule
0 1
C	-0.208002	-8.519741	-0.175432
C	0.722164	-7.635967	0.352097
S	-1.563424	-7.651740	-0.936458
C	0.386833	-6.261894	0.160388
H	1.635031	-7.954738	0.870905
C	-0.849637	-6.079985	-0.553685
C	-1.357938	-4.798382	-0.816372
C	1.149702	-5.153542	0.627524
C	0.638941	-3.869626	0.368399
C	-0.597409	-3.688927	-0.348912
O	2.309260	-5.481075	1.262667
O	-2.523296	-4.479871	-1.453338
C	-3.036927	-5.356026	-2.449320
H	-3.824632	-4.790496	-2.982577
H	-3.497250	-6.268513	-2.011155
H	-2.249807	-5.658187	-3.173591
C	2.939226	-4.546999	2.130793
H	3.730721	-5.107564	2.663289
H	2.225196	-4.131473	2.873906
H	3.415077	-3.712085	1.572045
C	-0.930765	-2.314326	-0.536849
S	1.347913	-2.295487	0.763041
C	-0.000000	-1.435180	-0.000000
H	-1.841645	-1.993211	-1.057554
H	-0.204438	-9.615985	-0.170535
C	0.000000	0.000000	0.000000
S	0.690437	0.576430	1.510732
C	1.896512	1.589852	0.727629
C	0.695720	0.583817	-1.064665
C	1.758621	1.477674	-0.678287
C	0.645928	0.539878	-2.486150
C	1.614763	1.352997	-3.106916
S	2.568261	2.157430	-1.965735
C	1.812707	1.512991	-4.559972
O	1.099523	0.910662	-5.350277
O	2.797769	2.335330	-5.004375
F	-0.205024	-0.179266	-3.246290
C	3.079074	2.558124	-6.334976
H	3.925910	3.267919	-6.370268
H	2.208109	2.990367	-6.875609
H	3.358147	1.618843	-6.861878
H	2.601331	2.181180	1.321510
$end

$rem
JOBTYPE		SP
EXCHANGE	HF
CORRELATION	pRIMP2
BASIS		cc-pvtz
METHOD		rimp2
AUX_BASIS	rimp2-cc-pvtz
SOLVENT_METHOD	PCM
PURECART	11111
SYMMETRY	false
MEM_TOTAL	110000
SCF_CONVERGENCE = 6
THRESH=10
GUI = 2
$end

$solvent
dielectric 4.90
$end
--------------------------------------------------------------

             Standard Nuclear Orientation (Angstroms)
    I     Atom           X                Y                Z
 ----------------------------------------------------------------
    1      C      -0.2080020000    -8.5197410000    -0.1754320000
    2      C       0.7221640000    -7.6359670000     0.3520970000
    3      S      -1.5634240000    -7.6517400000    -0.9364580000
    4      C       0.3868330000    -6.2618940000     0.1603880000
    5      H       1.6350310000    -7.9547380000     0.8709050000
    6      C      -0.8496370000    -6.0799850000    -0.5536850000
    7      C      -1.3579380000    -4.7983820000    -0.8163720000
    8      C       1.1497020000    -5.1535420000     0.6275240000
    9      C       0.6389410000    -3.8696260000     0.3683990000
   10      C      -0.5974090000    -3.6889270000    -0.3489120000
   11      O       2.3092600000    -5.4810750000     1.2626670000
   12      O      -2.5232960000    -4.4798710000    -1.4533380000
   13      C      -3.0369270000    -5.3560260000    -2.4493200000
   14      H      -3.8246320000    -4.7904960000    -2.9825770000
   15      H      -3.4972500000    -6.2685130000    -2.0111550000
   16      H      -2.2498070000    -5.6581870000    -3.1735910000
   17      C       2.9392260000    -4.5469990000     2.1307930000
   18      H       3.7307210000    -5.1075640000     2.6632890000
   19      H       2.2251960000    -4.1314730000     2.8739060000
   20      H       3.4150770000    -3.7120850000     1.5720450000
   21      C      -0.9307650000    -2.3143260000    -0.5368490000
   22      S       1.3479130000    -2.2954870000     0.7630410000
   23      C       0.0000000000    -1.4351800000     0.0000000000
   24      H      -1.8416450000    -1.9932110000    -1.0575540000
   25      H      -0.2044380000    -9.6159850000    -0.1705350000
   26      C       0.0000000000     0.0000000000     0.0000000000
   27      S       0.6904370000     0.5764300000     1.5107320000
   28      C       1.8965120000     1.5898520000     0.7276290000
   29      C       0.6957200000     0.5838170000    -1.0646650000
   30      C       1.7586210000     1.4776740000    -0.6782870000
   31      C       0.6459280000     0.5398780000    -2.4861500000
   32      C       1.6147630000     1.3529970000    -3.1069160000
   33      S       2.5682610000     2.1574300000    -1.9657350000
   34      C       1.8127070000     1.5129910000    -4.5599720000
   35      O       1.0995230000     0.9106620000    -5.3502770000
   36      O       2.7977690000     2.3353300000    -5.0043750000
   37      F      -0.2050240000    -0.1792660000    -3.2462900000
   38      C       3.0790740000     2.5581240000    -6.3349760000
   39      H       3.9259100000     3.2679190000    -6.3702680000
   40      H       2.2081090000     2.9903670000    -6.8756090000
   41      H       3.3581470000     1.6188430000    -6.8618780000
   42      H       2.6013310000     2.1811800000     1.3215100000
 ----------------------------------------------------------------

   11   -2754.2490631077      5.39e-07  Convergence criterion met
 Total energy in the final basis set =    -2754.2490631077
        RIMP2         total energy =     -2759.3173698040 a.u.

                    Orbital Energies (a.u.)
 --------------------------------------------------------------

 Alpha MOs
 -- Occupied --
-92.0157 -92.0028 -91.9853 -91.9837 -26.3341 -20.6150 -20.5910 -20.5877
-20.5553 -11.4148 -11.3764 -11.3167 -11.3166 -11.3123 -11.3081 -11.2997
-11.2931 -11.2910 -11.2899 -11.2866 -11.2847 -11.2836 -11.2811 -11.2801
-11.2764 -11.2565 -11.2545 -11.2480 -11.2432  -9.0148  -9.0064  -8.9860
 -8.9836  -6.6954  -6.6946  -6.6944  -6.6876  -6.6870  -6.6857  -6.6669
 -6.6661  -6.6652  -6.6646  -6.6640  -6.6631  -1.6471  -1.4751  -1.4150
 -1.4106  -1.3710  -1.2409  -1.1926  -1.1693  -1.1436  -1.0826  -1.0507
 -1.0484  -1.0316  -0.9988  -0.9915  -0.9748  -0.9588  -0.9487  -0.9373
 -0.8936  -0.8742  -0.8449  -0.8026  -0.7946  -0.7858  -0.7748  -0.7678
 -0.7541  -0.7297  -0.7184  -0.7158  -0.6990  -0.6919  -0.6809  -0.6792
 -0.6755  -0.6610  -0.6574  -0.6502  -0.6284  -0.6175  -0.6154  -0.6103
 -0.6048  -0.5998  -0.5879  -0.5751  -0.5648  -0.5626  -0.5534  -0.5402
 -0.5363  -0.5282  -0.5207  -0.5144  -0.5132  -0.5090  -0.5023  -0.4917
 -0.4887  -0.4865  -0.4726  -0.4652  -0.4639  -0.4613  -0.4594  -0.4135
 -0.3942  -0.3828  -0.3537  -0.3505  -0.3129  -0.2929  -0.2519

          Ground-State Mulliken Net Atomic Charges

     Atom                 Charge (a.u.)
  ----------------------------------------
      1 C                    -0.194517
      2 C                    -0.254365
      3 S                    -0.026016
      4 C                    -0.020108
      5 H                     0.195277
      6 C                    -0.025942
      7 C                     0.234733
      8 C                     0.241079
      9 C                    -0.050471
     10 C                    -0.016944
     11 O                    -0.333593
     12 O                    -0.340448
     13 C                    -0.085355
     14 H                     0.121927
     15 H                     0.089872
     16 H                     0.093349
     17 C                    -0.086877
     18 H                     0.124891
     19 H                     0.093908
     20 H                     0.088781
     21 C                    -0.253702
     22 S                    -0.017336
     23 C                    -0.038329
     24 H                     0.191931
     25 H                     0.205165
     26 C                    -0.087369
     27 S                     0.121246
     28 C                    -0.175529
     29 C                    -0.030811
     30 C                    -0.019297
     31 C                     0.356136
     32 C                    -0.127676
     33 S                     0.063355
     34 C                     0.457371
     35 O                    -0.441086
     36 O                    -0.296976
     37 F                    -0.209029
     38 C                    -0.054619
     39 H                     0.117237
     40 H                     0.085369
     41 H                     0.085504
     42 H                     0.219264
  ----------------------------------------
  Sum of atomic charges =     0.000000

                    Cartesian Multipole Moments
 -----------------------------------------------------------------
    Charge (ESU x 10^10)
                -0.0000
    Dipole Moment (Debye)
         X       4.4409      Y       2.6552      Z       2.7350
       Tot       5.8525
    Quadrupole Moments (Debye-Ang)
        XX    -177.6064     XY       8.5018     YY    -174.5608
        XZ       2.9279     YZ      -6.5993     ZZ    -191.4586

 Total job time:  302.97s(wall), 9825.01s(cpu)
        *  Thank you very much for using Q-Chem.  Have a nice day.  *
