 Q-Chem 5.4, Q-Chem, Inc., Pleasanton, CA (2021)
 Q-Chem 5.4.0 for Intel X86 EM64T Linux

User input:
--------------------------------------------------------------
$molecule
0 1
C	-0.135457	-8.519741	-0.235993
C	0.558188	-7.635967	0.577858
S	-1.148850	-7.651740	-1.414705
C	0.308648	-6.261894	0.283020
H	1.238560	-7.954738	1.377597
C	-0.609026	-6.079985	-0.810887
C	-0.996828	-4.798382	-1.231581
C	0.865740	-5.153542	0.982901
C	0.474408	-3.869626	0.564713
C	-0.442046	-3.688927	-0.532196
O	1.738137	-5.481075	1.976332
O	-1.874052	-4.479871	-2.228709
C	-2.016062	-5.356026	-3.340298
H	-2.573877	-4.790496	-4.110807
H	-2.598484	-6.268513	-3.085998
H	-1.028695	-5.658187	-3.751679
C	2.033195	-4.546999	3.007565
H	2.594833	-5.107564	3.778655
H	1.108067	-4.131473	3.461650
H	2.671451	-3.712085	2.645264
C	-0.691020	-2.314326	-0.822814
S	1.005649	-2.295487	1.178037
C	0.000000	-1.435180	0.000000
H	-1.368875	-1.993211	-1.623656
H	-0.133782	-9.615985	-0.230172
C	0.000000	0.000000	0.000000
S	0.309721	0.844422	1.510732
C	0.847502	2.325108	0.727629
C	0.310602	0.853460	-1.064665
C	0.784173	2.159014	-0.678287
C	0.289451	0.790512	-2.486150
C	0.721927	1.979112	-3.106916
S	1.145464	3.152519	-1.965735
C	0.813355	2.216642	-4.559972
O	0.496884	1.338418	-5.350277
O	1.255274	3.421340	-5.004375
F	-0.087923	-0.257761	-3.246290
C	1.387494	3.754937	-6.334976
H	1.765978	4.793056	-6.370268
H	0.417095	3.693789	-6.875609
H	2.098820	3.081033	-6.861878
H	1.162229	3.189623	1.321510
$end

$rem
JOBTYPE		SP
EXCHANGE	HF
CORRELATION	pRIMP2
BASIS		cc-pvtz
METHOD		rimp2
AUX_BASIS	rimp2-cc-pvtz
SOLVENT_METHOD	PCM
PURECART	11111
SYMMETRY	false
MEM_TOTAL	110000
SCF_CONVERGENCE = 6
THRESH=10
GUI = 2
$end

$solvent
dielectric 4.90
$end
--------------------------------------------------------------

             Standard Nuclear Orientation (Angstroms)
    I     Atom           X                Y                Z
 ----------------------------------------------------------------
    1      C      -0.1354570000    -8.5197410000    -0.2359930000
    2      C       0.5581880000    -7.6359670000     0.5778580000
    3      S      -1.1488500000    -7.6517400000    -1.4147050000
    4      C       0.3086480000    -6.2618940000     0.2830200000
    5      H       1.2385600000    -7.9547380000     1.3775970000
    6      C      -0.6090260000    -6.0799850000    -0.8108870000
    7      C      -0.9968280000    -4.7983820000    -1.2315810000
    8      C       0.8657400000    -5.1535420000     0.9829010000
    9      C       0.4744080000    -3.8696260000     0.5647130000
   10      C      -0.4420460000    -3.6889270000    -0.5321960000
   11      O       1.7381370000    -5.4810750000     1.9763320000
   12      O      -1.8740520000    -4.4798710000    -2.2287090000
   13      C      -2.0160620000    -5.3560260000    -3.3402980000
   14      H      -2.5738770000    -4.7904960000    -4.1108070000
   15      H      -2.5984840000    -6.2685130000    -3.0859980000
   16      H      -1.0286950000    -5.6581870000    -3.7516790000
   17      C       2.0331950000    -4.5469990000     3.0075650000
   18      H       2.5948330000    -5.1075640000     3.7786550000
   19      H       1.1080670000    -4.1314730000     3.4616500000
   20      H       2.6714510000    -3.7120850000     2.6452640000
   21      C      -0.6910200000    -2.3143260000    -0.8228140000
   22      S       1.0056490000    -2.2954870000     1.1780370000
   23      C       0.0000000000    -1.4351800000     0.0000000000
   24      H      -1.3688750000    -1.9932110000    -1.6236560000
   25      H      -0.1337820000    -9.6159850000    -0.2301720000
   26      C       0.0000000000     0.0000000000     0.0000000000
   27      S       0.3097210000     0.8444220000     1.5107320000
   28      C       0.8475020000     2.3251080000     0.7276290000
   29      C       0.3106020000     0.8534600000    -1.0646650000
   30      C       0.7841730000     2.1590140000    -0.6782870000
   31      C       0.2894510000     0.7905120000    -2.4861500000
   32      C       0.7219270000     1.9791120000    -3.1069160000
   33      S       1.1454640000     3.1525190000    -1.9657350000
   34      C       0.8133550000     2.2166420000    -4.5599720000
   35      O       0.4968840000     1.3384180000    -5.3502770000
   36      O       1.2552740000     3.4213400000    -5.0043750000
   37      F      -0.0879230000    -0.2577610000    -3.2462900000
   38      C       1.3874940000     3.7549370000    -6.3349760000
   39      H       1.7659780000     4.7930560000    -6.3702680000
   40      H       0.4170950000     3.6937890000    -6.8756090000
   41      H       2.0988200000     3.0810330000    -6.8618780000
   42      H       1.1622290000     3.1896230000     1.3215100000
 ----------------------------------------------------------------

   10   -2754.2906576928      7.82e-07  Convergence criterion met
 Total energy in the final basis set =    -2754.2906576928
        RIMP2         total energy =     -2759.3469114657 a.u.

                    Orbital Energies (a.u.)
 --------------------------------------------------------------

 Alpha MOs
 -- Occupied --
-92.0162 -91.9956 -91.9916 -91.9862 -26.3349 -20.6122 -20.5927 -20.5908
-20.5502 -11.4105 -11.3776 -11.3196 -11.3176 -11.3097 -11.2979 -11.2976
-11.2955 -11.2952 -11.2885 -11.2877 -11.2861 -11.2851 -11.2840 -11.2835
-11.2797 -11.2612 -11.2590 -11.2555 -11.2499  -9.0146  -8.9996  -8.9920
 -8.9861  -6.6954  -6.6948  -6.6943  -6.6809  -6.6802  -6.6788  -6.6729
 -6.6722  -6.6712  -6.6671  -6.6665  -6.6656  -1.6480  -1.4719  -1.4168
 -1.4135  -1.3673  -1.2344  -1.1962  -1.1691  -1.1426  -1.0841  -1.0521
 -1.0482  -1.0283  -1.0027  -0.9933  -0.9723  -0.9610  -0.9504  -0.9382
 -0.8963  -0.8699  -0.8505  -0.8039  -0.7941  -0.7880  -0.7717  -0.7704
 -0.7575  -0.7322  -0.7192  -0.7161  -0.7013  -0.6893  -0.6830  -0.6786
 -0.6720  -0.6612  -0.6592  -0.6522  -0.6296  -0.6197  -0.6165  -0.6067
 -0.6015  -0.5954  -0.5875  -0.5769  -0.5681  -0.5608  -0.5554  -0.5471
 -0.5376  -0.5268  -0.5224  -0.5172  -0.5167  -0.5086  -0.5041  -0.4950
 -0.4872  -0.4848  -0.4766  -0.4697  -0.4619  -0.4614  -0.4605  -0.4184
 -0.3972  -0.3860  -0.3579  -0.3505  -0.3221  -0.2866  -0.2508

          Ground-State Mulliken Net Atomic Charges

     Atom                 Charge (a.u.)
  ----------------------------------------
      1 C                    -0.188259
      2 C                    -0.255009
      3 S                    -0.021471
      4 C                    -0.013833
      5 H                     0.196257
      6 C                    -0.027260
      7 C                     0.242527
      8 C                     0.240695
      9 C                    -0.046717
     10 C                    -0.026104
     11 O                    -0.332981
     12 O                    -0.339499
     13 C                    -0.085648
     14 H                     0.123354
     15 H                     0.090721
     16 H                     0.094183
     17 C                    -0.087606
     18 H                     0.125417
     19 H                     0.094565
     20 H                     0.089631
     21 C                    -0.228962
     22 S                    -0.013539
     23 C                    -0.041238
     24 H                     0.194109
     25 H                     0.206451
     26 C                     0.001123
     27 S                     0.095427
     28 C                    -0.223819
     29 C                    -0.059508
     30 C                    -0.015662
     31 C                     0.366857
     32 C                    -0.141555
     33 S                     0.041750
     34 C                     0.457394
     35 O                    -0.449798
     36 O                    -0.297942
     37 F                    -0.211159
     38 C                    -0.054814
     39 H                     0.116626
     40 H                     0.084523
     41 H                     0.084507
     42 H                     0.216264
  ----------------------------------------
  Sum of atomic charges =     0.000000

                    Cartesian Multipole Moments
 -----------------------------------------------------------------
    Charge (ESU x 10^10)
                 0.0000
    Dipole Moment (Debye)
         X       1.5199      Y       1.5637      Z       3.0958
       Tot       3.7868
    Quadrupole Moments (Debye-Ang)
        XX    -194.8640     XY       4.2450     YY    -160.6126
        XZ       6.4269     YZ      -8.8360     ZZ    -186.1312

 Total job time:  306.36s(wall), 10329.36s(cpu)
        *  Thank you very much for using Q-Chem.  Have a nice day.  *
