 Q-Chem 5.4, Q-Chem, Inc., Pleasanton, CA (2021)
 Q-Chem 5.4.0 for Intel X86 EM64T Linux

User input:
--------------------------------------------------------------
$molecule
0 1
C	0.208886	-8.519741	-0.174379
C	-0.472151	-7.635967	0.650052
S	1.193717	-7.651740	-1.377058
C	-0.225125	-6.261894	0.353105
H	-1.141594	-7.954738	1.458961
C	0.692811	-6.079985	-0.740583
C	1.039773	-4.798382	-1.195546
C	-0.817634	-5.153542	1.023267
C	-0.473754	-3.869626	0.565262
C	0.447350	-3.688927	-0.527745
O	-1.644483	-5.481075	2.054917
O	1.869424	-4.479871	-2.232592
C	2.939466	-5.356026	-2.565470
H	3.601405	-4.790496	-3.248608
H	2.587892	-6.268513	-3.094885
H	3.516052	-5.658187	-1.664539
C	-2.608813	-4.546999	2.524564
H	-3.270661	-5.107564	3.211568
H	-3.216646	-4.131473	1.692342
H	-2.141184	-3.712085	3.090211
C	0.690319	-2.314326	-0.823402
S	-0.985511	-2.295487	1.194935
C	-0.000000	-1.435180	-0.000000
H	1.361286	-1.993211	-1.630024
H	0.203444	-9.615985	-0.171719
C	0.000000	0.000000	0.000000
S	0.579852	0.687566	1.510732
C	1.591625	1.895024	0.727629
C	0.583771	0.695758	-1.064665
C	1.475308	1.760606	-0.678287
C	0.542366	0.643841	-2.486150
C	1.355286	1.612843	-3.106916
S	2.154609	2.570627	-1.965735
C	1.522440	1.804778	-4.559972
O	0.924684	1.087757	-5.350277
O	2.349739	2.785679	-5.004375
F	-0.170780	-0.212144	-3.246290
C	2.588082	3.053936	-6.334976
H	3.298799	3.899999	-6.370268
H	1.655291	3.328371	-6.875609
H	3.026021	2.177385	-6.861878
H	2.183053	2.599759	1.321510
$end

$rem
JOBTYPE		SP
EXCHANGE	HF
CORRELATION	pRIMP2
BASIS		cc-pvtz
METHOD		rimp2
AUX_BASIS	rimp2-cc-pvtz
SOLVENT_METHOD	PCM
PURECART	11111
SYMMETRY	false
MEM_TOTAL	110000
SCF_CONVERGENCE = 6
THRESH=10
GUI = 2
$end

$solvent
dielectric 4.90
$end
--------------------------------------------------------------

             Standard Nuclear Orientation (Angstroms)
    I     Atom           X                Y                Z
 ----------------------------------------------------------------
    1      C       0.2088860000    -8.5197410000    -0.1743790000
    2      C      -0.4721510000    -7.6359670000     0.6500520000
    3      S       1.1937170000    -7.6517400000    -1.3770580000
    4      C      -0.2251250000    -6.2618940000     0.3531050000
    5      H      -1.1415940000    -7.9547380000     1.4589610000
    6      C       0.6928110000    -6.0799850000    -0.7405830000
    7      C       1.0397730000    -4.7983820000    -1.1955460000
    8      C      -0.8176340000    -5.1535420000     1.0232670000
    9      C      -0.4737540000    -3.8696260000     0.5652620000
   10      C       0.4473500000    -3.6889270000    -0.5277450000
   11      O      -1.6444830000    -5.4810750000     2.0549170000
   12      O       1.8694240000    -4.4798710000    -2.2325920000
   13      C       2.9394660000    -5.3560260000    -2.5654700000
   14      H       3.6014050000    -4.7904960000    -3.2486080000
   15      H       2.5878920000    -6.2685130000    -3.0948850000
   16      H       3.5160520000    -5.6581870000    -1.6645390000
   17      C      -2.6088130000    -4.5469990000     2.5245640000
   18      H      -3.2706610000    -5.1075640000     3.2115680000
   19      H      -3.2166460000    -4.1314730000     1.6923420000
   20      H      -2.1411840000    -3.7120850000     3.0902110000
   21      C       0.6903190000    -2.3143260000    -0.8234020000
   22      S      -0.9855110000    -2.2954870000     1.1949350000
   23      C       0.0000000000    -1.4351800000     0.0000000000
   24      H       1.3612860000    -1.9932110000    -1.6300240000
   25      H       0.2034440000    -9.6159850000    -0.1717190000
   26      C       0.0000000000     0.0000000000     0.0000000000
   27      S       0.5798520000     0.6875660000     1.5107320000
   28      C       1.5916250000     1.8950240000     0.7276290000
   29      C       0.5837710000     0.6957580000    -1.0646650000
   30      C       1.4753080000     1.7606060000    -0.6782870000
   31      C       0.5423660000     0.6438410000    -2.4861500000
   32      C       1.3552860000     1.6128430000    -3.1069160000
   33      S       2.1546090000     2.5706270000    -1.9657350000
   34      C       1.5224400000     1.8047780000    -4.5599720000
   35      O       0.9246840000     1.0877570000    -5.3502770000
   36      O       2.3497390000     2.7856790000    -5.0043750000
   37      F      -0.1707800000    -0.2121440000    -3.2462900000
   38      C       2.5880820000     3.0539360000    -6.3349760000
   39      H       3.2987990000     3.8999990000    -6.3702680000
   40      H       1.6552910000     3.3283710000    -6.8756090000
   41      H       3.0260210000     2.1773850000    -6.8618780000
   42      H       2.1830530000     2.5997590000     1.3215100000
 ----------------------------------------------------------------

   11   -2754.2714788527      4.60e-07  Convergence criterion met
 Total energy in the final basis set =    -2754.2714788527
        RIMP2         total energy =     -2759.3342025133 a.u.

                    Orbital Energies (a.u.)
 --------------------------------------------------------------

 Alpha MOs
 -- Occupied --
-92.0167 -92.0000 -91.9859 -91.9852 -26.3345 -20.6139 -20.5917 -20.5897
-20.5531 -11.4130 -11.3776 -11.3182 -11.3154 -11.3087 -11.3037 -11.2995
-11.2968 -11.2955 -11.2894 -11.2877 -11.2866 -11.2850 -11.2837 -11.2829
-11.2781 -11.2598 -11.2568 -11.2514 -11.2490  -9.0154  -9.0038  -8.9868
 -8.9851  -6.6960  -6.6953  -6.6950  -6.6851  -6.6844  -6.6831  -6.6678
 -6.6671  -6.6661  -6.6661  -6.6655  -6.6646  -1.6476  -1.4738  -1.4157
 -1.4125  -1.3694  -1.2382  -1.1946  -1.1690  -1.1438  -1.0840  -1.0512
 -1.0494  -1.0304  -1.0006  -0.9928  -0.9738  -0.9598  -0.9496  -0.9390
 -0.8949  -0.8723  -0.8472  -0.8029  -0.7954  -0.7872  -0.7728  -0.7713
 -0.7558  -0.7315  -0.7195  -0.7161  -0.7006  -0.6910  -0.6814  -0.6798
 -0.6742  -0.6613  -0.6582  -0.6515  -0.6277  -0.6188  -0.6157  -0.6087
 -0.6053  -0.5988  -0.5817  -0.5753  -0.5696  -0.5622  -0.5553  -0.5484
 -0.5332  -0.5266  -0.5246  -0.5155  -0.5149  -0.5079  -0.5048  -0.4965
 -0.4877  -0.4861  -0.4733  -0.4667  -0.4633  -0.4626  -0.4590  -0.4157
 -0.3961  -0.3850  -0.3579  -0.3507  -0.3222  -0.2870  -0.2503

          Ground-State Mulliken Net Atomic Charges

     Atom                 Charge (a.u.)
  ----------------------------------------
      1 C                    -0.191798
      2 C                    -0.254026
      3 S                    -0.023838
      4 C                    -0.018086
      5 H                     0.195924
      6 C                    -0.027405
      7 C                     0.240798
      8 C                     0.244741
      9 C                    -0.040989
     10 C                    -0.026733
     11 O                    -0.333604
     12 O                    -0.340156
     13 C                    -0.085777
     14 H                     0.122411
     15 H                     0.091038
     16 H                     0.093133
     17 C                    -0.087241
     18 H                     0.125415
     19 H                     0.095166
     20 H                     0.089024
     21 C                    -0.230058
     22 S                    -0.036736
     23 C                     0.011154
     24 H                     0.193717
     25 H                     0.205850
     26 C                    -0.070531
     27 S                     0.130528
     28 C                    -0.202870
     29 C                    -0.088936
     30 C                    -0.015090
     31 C                     0.359235
     32 C                    -0.138286
     33 S                     0.056647
     34 C                     0.459521
     35 O                    -0.444821
     36 O                    -0.297615
     37 F                    -0.210510
     38 C                    -0.054644
     39 H                     0.116988
     40 H                     0.085223
     41 H                     0.084941
     42 H                     0.218295
  ----------------------------------------
  Sum of atomic charges =     0.000000

                    Cartesian Multipole Moments
 -----------------------------------------------------------------
    Charge (ESU x 10^10)
                 0.0000
    Dipole Moment (Debye)
         X       3.0720      Y       2.2499      Z       3.2765
       Tot       5.0234
    Quadrupole Moments (Debye-Ang)
        XX    -178.2043     XY       7.8941     YY    -167.9025
        XZ     -19.3944     YZ      -9.6070     ZZ    -196.1093

 Total job time:  298.09s(wall), 9761.75s(cpu)
        *  Thank you very much for using Q-Chem.  Have a nice day.  *
