 Q-Chem 5.4, Q-Chem, Inc., Pleasanton, CA (2021)
 Q-Chem 5.4.0 for Intel X86 EM64T Linux

User input:
--------------------------------------------------------------
$molecule
0 1
C	0.268090	-8.519741	-0.046574
C	-0.733920	-7.635967	0.326886
S	1.722318	-7.651740	-0.595708
C	-0.371516	-6.261894	0.193236
H	-1.718130	-7.954738	0.692700
C	0.970283	-6.079985	-0.294958
C	1.498243	-4.798382	-0.515487
C	-1.219725	-5.153542	0.477358
C	-0.692914	-3.869626	0.252655
C	0.651289	-3.688927	-0.233366
O	-2.451623	-5.481075	0.957369
O	2.735264	-4.479871	-0.998769
C	3.828387	-5.356026	-0.752029
H	4.743213	-4.790496	-1.012675
H	3.788623	-6.268513	-1.386303
H	3.877260	-5.658187	0.316492
C	-3.521580	-4.546999	0.881930
H	-4.438260	-5.107564	1.145969
H	-3.631868	-4.131473	-0.142712
H	-3.399425	-3.712085	1.605610
C	1.009535	-2.314326	-0.367928
S	-1.450945	-2.295487	0.542088
C	-0.000000	-1.435180	-0.000000
H	1.993920	-1.993211	-0.730999
H	0.262047	-9.615985	-0.046991
C	0.000000	0.000000	0.000000
S	0.690437	0.576430	1.510732
C	1.896512	1.589852	0.727629
C	0.695720	0.583817	-1.064665
C	1.758621	1.477674	-0.678287
C	0.645928	0.539878	-2.486150
C	1.614763	1.352997	-3.106916
S	2.568261	2.157430	-1.965735
C	1.812707	1.512991	-4.559972
O	1.099523	0.910662	-5.350277
O	2.797769	2.335330	-5.004375
F	-0.205024	-0.179266	-3.246290
C	3.079074	2.558124	-6.334976
H	3.925910	3.267919	-6.370268
H	2.208109	2.990367	-6.875609
H	3.358147	1.618843	-6.861878
H	2.601331	2.181180	1.321510
$end

$rem
JOBTYPE		SP
EXCHANGE	HF
CORRELATION	pRIMP2
BASIS		cc-pvtz
METHOD		rimp2
AUX_BASIS	rimp2-cc-pvtz
SOLVENT_METHOD	PCM
PURECART	11111
SYMMETRY	false
MEM_TOTAL	110000
SCF_CONVERGENCE = 6
THRESH=10
GUI = 2
$end

$solvent
dielectric 4.90
$end
--------------------------------------------------------------

             Standard Nuclear Orientation (Angstroms)
    I     Atom           X                Y                Z
 ----------------------------------------------------------------
    1      C       0.2680900000    -8.5197410000    -0.0465740000
    2      C      -0.7339200000    -7.6359670000     0.3268860000
    3      S       1.7223180000    -7.6517400000    -0.5957080000
    4      C      -0.3715160000    -6.2618940000     0.1932360000
    5      H      -1.7181300000    -7.9547380000     0.6927000000
    6      C       0.9702830000    -6.0799850000    -0.2949580000
    7      C       1.4982430000    -4.7983820000    -0.5154870000
    8      C      -1.2197250000    -5.1535420000     0.4773580000
    9      C      -0.6929140000    -3.8696260000     0.2526550000
   10      C       0.6512890000    -3.6889270000    -0.2333660000
   11      O      -2.4516230000    -5.4810750000     0.9573690000
   12      O       2.7352640000    -4.4798710000    -0.9987690000
   13      C       3.8283870000    -5.3560260000    -0.7520290000
   14      H       4.7432130000    -4.7904960000    -1.0126750000
   15      H       3.7886230000    -6.2685130000    -1.3863030000
   16      H       3.8772600000    -5.6581870000     0.3164920000
   17      C      -3.5215800000    -4.5469990000     0.8819300000
   18      H      -4.4382600000    -5.1075640000     1.1459690000
   19      H      -3.6318680000    -4.1314730000    -0.1427120000
   20      H      -3.3994250000    -3.7120850000     1.6056100000
   21      C       1.0095350000    -2.3143260000    -0.3679280000
   22      S      -1.4509450000    -2.2954870000     0.5420880000
   23      C       0.0000000000    -1.4351800000     0.0000000000
   24      H       1.9939200000    -1.9932110000    -0.7309990000
   25      H       0.2620470000    -9.6159850000    -0.0469910000
   26      C       0.0000000000     0.0000000000     0.0000000000
   27      S       0.6904370000     0.5764300000     1.5107320000
   28      C       1.8965120000     1.5898520000     0.7276290000
   29      C       0.6957200000     0.5838170000    -1.0646650000
   30      C       1.7586210000     1.4776740000    -0.6782870000
   31      C       0.6459280000     0.5398780000    -2.4861500000
   32      C       1.6147630000     1.3529970000    -3.1069160000
   33      S       2.5682610000     2.1574300000    -1.9657350000
   34      C       1.8127070000     1.5129910000    -4.5599720000
   35      O       1.0995230000     0.9106620000    -5.3502770000
   36      O       2.7977690000     2.3353300000    -5.0043750000
   37      F      -0.2050240000    -0.1792660000    -3.2462900000
   38      C       3.0790740000     2.5581240000    -6.3349760000
   39      H       3.9259100000     3.2679190000    -6.3702680000
   40      H       2.2081090000     2.9903670000    -6.8756090000
   41      H       3.3581470000     1.6188430000    -6.8618780000
   42      H       2.6013310000     2.1811800000     1.3215100000
 ----------------------------------------------------------------

   11   -2754.2530464159      5.76e-07  Convergence criterion met
 Total energy in the final basis set =    -2754.2530464159
        RIMP2         total energy =     -2759.3191294566 a.u.

                    Orbital Energies (a.u.)
 --------------------------------------------------------------

 Alpha MOs
 -- Occupied --
-92.0156 -92.0022 -91.9842 -91.9823 -26.3340 -20.6149 -20.5907 -20.5892
-20.5551 -11.4147 -11.3767 -11.3172 -11.3167 -11.3138 -11.3078 -11.2991
-11.2924 -11.2919 -11.2899 -11.2855 -11.2850 -11.2823 -11.2818 -11.2809
-11.2771 -11.2580 -11.2552 -11.2483 -11.2481  -9.0143  -9.0059  -8.9842
 -8.9830  -6.6949  -6.6941  -6.6939  -6.6871  -6.6865  -6.6852  -6.6652
 -6.6646  -6.6640  -6.6637  -6.6632  -6.6624  -1.6469  -1.4750  -1.4146
 -1.4120  -1.3709  -1.2401  -1.1928  -1.1686  -1.1437  -1.0832  -1.0506
 -1.0487  -1.0312  -0.9987  -0.9918  -0.9742  -0.9587  -0.9487  -0.9388
 -0.8931  -0.8735  -0.8442  -0.8035  -0.7939  -0.7858  -0.7757  -0.7694
 -0.7543  -0.7307  -0.7182  -0.7155  -0.6999  -0.6918  -0.6808  -0.6802
 -0.6753  -0.6606  -0.6572  -0.6510  -0.6279  -0.6183  -0.6151  -0.6101
 -0.6064  -0.6001  -0.5816  -0.5738  -0.5688  -0.5629  -0.5541  -0.5493
 -0.5316  -0.5258  -0.5229  -0.5146  -0.5131  -0.5080  -0.5011  -0.4941
 -0.4894  -0.4868  -0.4696  -0.4652  -0.4639  -0.4620  -0.4579  -0.4039
 -0.3967  -0.3852  -0.3605  -0.3443  -0.3144  -0.2937  -0.2534

          Ground-State Mulliken Net Atomic Charges

     Atom                 Charge (a.u.)
  ----------------------------------------
      1 C                    -0.193270
      2 C                    -0.254248
      3 S                    -0.026272
      4 C                    -0.018938
      5 H                     0.195701
      6 C                    -0.026887
      7 C                     0.235527
      8 C                     0.244066
      9 C                    -0.047858
     10 C                    -0.016177
     11 O                    -0.333779
     12 O                    -0.341342
     13 C                    -0.085660
     14 H                     0.121476
     15 H                     0.090977
     16 H                     0.092995
     17 C                    -0.086922
     18 H                     0.124588
     19 H                     0.094784
     20 H                     0.089332
     21 C                    -0.261267
     22 S                    -0.023372
     23 C                     0.013805
     24 H                     0.196156
     25 H                     0.205415
     26 C                    -0.117980
     27 S                     0.134905
     28 C                    -0.171452
     29 C                    -0.109576
     30 C                    -0.010628
     31 C                     0.398163
     32 C                    -0.138580
     33 S                     0.062201
     34 C                     0.458934
     35 O                    -0.440958
     36 O                    -0.297005
     37 F                    -0.209984
     38 C                    -0.054642
     39 H                     0.117173
     40 H                     0.085452
     41 H                     0.085521
     42 H                     0.219628
  ----------------------------------------
  Sum of atomic charges =     0.000000

                    Cartesian Multipole Moments
 -----------------------------------------------------------------
    Charge (ESU x 10^10)
                 0.0000
    Dipole Moment (Debye)
         X       3.9586      Y       2.4515      Z       3.0942
       Tot       5.5906
    Quadrupole Moments (Debye-Ang)
        XX    -166.2681     XY       9.2641     YY    -173.4672
        XZ     -11.9206     YZ      -9.0421     ZZ    -203.2164

 Total job time:  303.65s(wall), 9848.27s(cpu)
        *  Thank you very much for using Q-Chem.  Have a nice day.  *
