 Q-Chem 5.4, Q-Chem, Inc., Pleasanton, CA (2021)
 Q-Chem 5.4.0 for Intel X86 EM64T Linux

User input:
--------------------------------------------------------------
$molecule
0 1
C	0.255929	-8.519741	-0.092419
C	-0.666007	-7.635967	0.449364
S	1.592708	-7.651740	-0.885736
C	-0.332317	-6.261894	0.254813
H	-1.571741	-7.954738	0.980526
C	0.904324	-6.079985	-0.458965
C	1.385968	-4.798382	-0.767823
C	-1.118303	-5.153542	0.681909
C	-0.638514	-3.869626	0.369139
C	0.600871	-3.688927	-0.342916
O	-2.248132	-5.481075	1.368544
O	2.520275	-4.479871	-1.458570
C	3.639637	-5.356026	-1.405396
H	4.495304	-4.790496	-1.820940
H	3.490336	-6.268513	-2.023129
H	3.873314	-5.658187	-0.361595
C	-3.314934	-4.546999	1.480048
H	-4.171837	-5.107564	1.899255
H	-3.601473	-4.131473	0.490123
H	-3.068969	-3.712085	2.171521
C	0.930308	-2.314326	-0.537642
S	-1.334769	-2.295487	0.785807
C	0.000000	-1.435180	0.000000
H	1.836691	-1.993211	-1.066134
H	0.249906	-9.615985	-0.091781
C	0.000000	0.000000	0.000000
S	0.080615	0.895811	1.510732
C	0.216842	2.465231	0.727629
C	0.079127	0.904769	-1.064665
C	0.198659	2.288406	-0.678287
C	0.074988	0.838492	-2.486150
C	0.185097	2.098524	-3.106916
S	0.290501	3.341568	-1.965735
C	0.211932	2.351623	-4.559972
O	0.133545	1.421416	-5.350277
O	0.326994	3.629649	-5.004375
F	-0.018214	-0.271734	-3.246290
C	0.368367	3.986101	-6.334976
H	0.465270	5.086806	-6.370268
H	-0.553140	3.675878	-6.875609
H	1.229874	3.519263	-6.861878
H	0.297091	3.381746	1.321510
$end

$rem
JOBTYPE		SP
EXCHANGE	HF
CORRELATION	pRIMP2
BASIS		cc-pvtz
METHOD		rimp2
AUX_BASIS	rimp2-cc-pvtz
SOLVENT_METHOD	PCM
PURECART	11111
SYMMETRY	false
MEM_TOTAL	110000
SCF_CONVERGENCE = 6
THRESH=10
GUI = 2
$end

$solvent
dielectric 4.90
$end
--------------------------------------------------------------

             Standard Nuclear Orientation (Angstroms)
    I     Atom           X                Y                Z
 ----------------------------------------------------------------
    1      C       0.2559290000    -8.5197410000    -0.0924190000
    2      C      -0.6660070000    -7.6359670000     0.4493640000
    3      S       1.5927080000    -7.6517400000    -0.8857360000
    4      C      -0.3323170000    -6.2618940000     0.2548130000
    5      H      -1.5717410000    -7.9547380000     0.9805260000
    6      C       0.9043240000    -6.0799850000    -0.4589650000
    7      C       1.3859680000    -4.7983820000    -0.7678230000
    8      C      -1.1183030000    -5.1535420000     0.6819090000
    9      C      -0.6385140000    -3.8696260000     0.3691390000
   10      C       0.6008710000    -3.6889270000    -0.3429160000
   11      O      -2.2481320000    -5.4810750000     1.3685440000
   12      O       2.5202750000    -4.4798710000    -1.4585700000
   13      C       3.6396370000    -5.3560260000    -1.4053960000
   14      H       4.4953040000    -4.7904960000    -1.8209400000
   15      H       3.4903360000    -6.2685130000    -2.0231290000
   16      H       3.8733140000    -5.6581870000    -0.3615950000
   17      C      -3.3149340000    -4.5469990000     1.4800480000
   18      H      -4.1718370000    -5.1075640000     1.8992550000
   19      H      -3.6014730000    -4.1314730000     0.4901230000
   20      H      -3.0689690000    -3.7120850000     2.1715210000
   21      C       0.9303080000    -2.3143260000    -0.5376420000
   22      S      -1.3347690000    -2.2954870000     0.7858070000
   23      C       0.0000000000    -1.4351800000     0.0000000000
   24      H       1.8366910000    -1.9932110000    -1.0661340000
   25      H       0.2499060000    -9.6159850000    -0.0917810000
   26      C       0.0000000000     0.0000000000     0.0000000000
   27      S       0.0806150000     0.8958110000     1.5107320000
   28      C       0.2168420000     2.4652310000     0.7276290000
   29      C       0.0791270000     0.9047690000    -1.0646650000
   30      C       0.1986590000     2.2884060000    -0.6782870000
   31      C       0.0749880000     0.8384920000    -2.4861500000
   32      C       0.1850970000     2.0985240000    -3.1069160000
   33      S       0.2905010000     3.3415680000    -1.9657350000
   34      C       0.2119320000     2.3516230000    -4.5599720000
   35      O       0.1335450000     1.4214160000    -5.3502770000
   36      O       0.3269940000     3.6296490000    -5.0043750000
   37      F      -0.0182140000    -0.2717340000    -3.2462900000
   38      C       0.3683670000     3.9861010000    -6.3349760000
   39      H       0.4652700000     5.0868060000    -6.3702680000
   40      H      -0.5531400000     3.6758780000    -6.8756090000
   41      H       1.2298740000     3.5192630000    -6.8618780000
   42      H       0.2970910000     3.3817460000     1.3215100000
 ----------------------------------------------------------------

   10   -2754.2965075740      8.26e-07  Convergence criterion met
 Total energy in the final basis set =    -2754.2965075740
        RIMP2         total energy =     -2759.3489621632 a.u.

                    Orbital Energies (a.u.)
 --------------------------------------------------------------

 Alpha MOs
 -- Occupied --
-92.0159 -91.9942 -91.9908 -91.9868 -26.3337 -20.6118 -20.5928 -20.5919
-20.5496 -11.4099 -11.3772 -11.3197 -11.3191 -11.3109 -11.2966 -11.2962
-11.2944 -11.2932 -11.2883 -11.2874 -11.2872 -11.2862 -11.2845 -11.2823
-11.2805 -11.2616 -11.2600 -11.2597 -11.2503  -9.0141  -8.9982  -8.9912
 -8.9867  -6.6949  -6.6943  -6.6938  -6.6795  -6.6788  -6.6775  -6.6721
 -6.6714  -6.6705  -6.6677  -6.6670  -6.6662  -1.6465  -1.4715  -1.4169
 -1.4146  -1.3667  -1.2330  -1.1966  -1.1687  -1.1418  -1.0844  -1.0526
 -1.0473  -1.0274  -1.0029  -0.9935  -0.9712  -0.9616  -0.9507  -0.9384
 -0.8964  -0.8689  -0.8510  -0.8038  -0.7923  -0.7882  -0.7730  -0.7698
 -0.7583  -0.7330  -0.7182  -0.7148  -0.7019  -0.6886  -0.6835  -0.6782
 -0.6708  -0.6609  -0.6593  -0.6529  -0.6305  -0.6204  -0.6171  -0.6061
 -0.6018  -0.5940  -0.5843  -0.5768  -0.5711  -0.5648  -0.5533  -0.5507
 -0.5362  -0.5262  -0.5251  -0.5166  -0.5146  -0.5078  -0.5021  -0.4962
 -0.4899  -0.4838  -0.4762  -0.4693  -0.4616  -0.4611  -0.4602  -0.4125
 -0.3980  -0.3876  -0.3587  -0.3489  -0.3191  -0.2870  -0.2563

          Ground-State Mulliken Net Atomic Charges

     Atom                 Charge (a.u.)
  ----------------------------------------
      1 C                    -0.186818
      2 C                    -0.254200
      3 S                    -0.020672
      4 C                    -0.013374
      5 H                     0.196503
      6 C                    -0.028070
      7 C                     0.245409
      8 C                     0.239446
      9 C                    -0.047890
     10 C                    -0.030443
     11 O                    -0.333237
     12 O                    -0.339126
     13 C                    -0.085712
     14 H                     0.123023
     15 H                     0.091278
     16 H                     0.093852
     17 C                    -0.086788
     18 H                     0.125061
     19 H                     0.095453
     20 H                     0.089354
     21 C                    -0.209646
     22 S                    -0.004644
     23 C                    -0.026848
     24 H                     0.198083
     25 H                     0.206731
     26 C                    -0.038432
     27 S                     0.114484
     28 C                    -0.240625
     29 C                    -0.091865
     30 C                    -0.008156
     31 C                     0.399562
     32 C                    -0.154797
     33 S                     0.036072
     34 C                     0.461051
     35 O                    -0.450695
     36 O                    -0.297926
     37 F                    -0.211204
     38 C                    -0.055095
     39 H                     0.116499
     40 H                     0.084624
     41 H                     0.084410
     42 H                     0.215369
  ----------------------------------------
  Sum of atomic charges =     0.000000

                    Cartesian Multipole Moments
 -----------------------------------------------------------------
    Charge (ESU x 10^10)
                 0.0000
    Dipole Moment (Debye)
         X       0.4317      Y       1.3520      Z       3.4984
       Tot       3.7754
    Quadrupole Moments (Debye-Ang)
        XX    -178.3123     XY       0.1954     YY    -157.8216
        XZ      -8.0141     YZ     -11.5331     ZZ    -204.7559

 Total job time:  279.79s(wall), 9195.35s(cpu)
        *  Thank you very much for using Q-Chem.  Have a nice day.  *
