 Q-Chem 5.4, Q-Chem, Inc., Pleasanton, CA (2021)
 Q-Chem 5.4.0 for Intel X86 EM64T Linux

User input:
--------------------------------------------------------------
$molecule
0 1
C	-0.272104	-8.519741	-0.000687
C	0.779533	-7.635967	-0.194476
S	-1.799596	-7.651740	0.287581
C	0.399427	-6.261894	-0.125787
H	1.812314	-7.954738	-0.383826
C	-1.006762	-6.079985	0.121989
C	-1.564994	-4.798382	0.247488
C	1.284087	-5.153542	-0.258303
C	0.726260	-3.869626	-0.128493
C	-0.681918	-3.688927	0.116725
O	2.580622	-5.481075	-0.517104
O	-2.867144	-4.479871	0.508622
C	-3.900814	-5.356026	0.075811
H	-4.847002	-4.790496	0.173640
H	-3.971794	-6.268513	0.707354
H	-3.763397	-5.658187	-0.984963
C	3.621225	-4.546999	-0.257016
H	4.569828	-5.107564	-0.357864
H	3.551910	-4.131473	0.771211
H	3.626592	-3.712085	-0.990913
C	-1.058088	-2.314326	0.187034
S	1.523035	-2.295487	-0.281899
C	0.000000	-1.435180	0.000000
H	-2.090565	-1.993211	0.373653
H	-0.266226	-9.615985	0.000773
C	0.000000	0.000000	0.000000
S	0.080615	0.895811	1.510732
C	0.216842	2.465231	0.727629
C	0.079127	0.904769	-1.064665
C	0.198659	2.288406	-0.678287
C	0.074988	0.838492	-2.486150
C	0.185097	2.098524	-3.106916
S	0.290501	3.341568	-1.965735
C	0.211932	2.351623	-4.559972
O	0.133545	1.421416	-5.350277
O	0.326994	3.629649	-5.004375
F	-0.018214	-0.271734	-3.246290
C	0.368367	3.986101	-6.334976
H	0.465270	5.086806	-6.370268
H	-0.553140	3.675878	-6.875609
H	1.229874	3.519263	-6.861878
H	0.297091	3.381746	1.321510
$end

$rem
JOBTYPE		SP
EXCHANGE	HF
CORRELATION	pRIMP2
BASIS		cc-pvtz
METHOD		rimp2
AUX_BASIS	rimp2-cc-pvtz
SOLVENT_METHOD	PCM
PURECART	11111
SYMMETRY	false
MEM_TOTAL	110000
SCF_CONVERGENCE = 6
THRESH=10
GUI = 2
$end

$solvent
dielectric 4.90
$end
--------------------------------------------------------------

             Standard Nuclear Orientation (Angstroms)
    I     Atom           X                Y                Z
 ----------------------------------------------------------------
    1      C      -0.2721040000    -8.5197410000    -0.0006870000
    2      C       0.7795330000    -7.6359670000    -0.1944760000
    3      S      -1.7995960000    -7.6517400000     0.2875810000
    4      C       0.3994270000    -6.2618940000    -0.1257870000
    5      H       1.8123140000    -7.9547380000    -0.3838260000
    6      C      -1.0067620000    -6.0799850000     0.1219890000
    7      C      -1.5649940000    -4.7983820000     0.2474880000
    8      C       1.2840870000    -5.1535420000    -0.2583030000
    9      C       0.7262600000    -3.8696260000    -0.1284930000
   10      C      -0.6819180000    -3.6889270000     0.1167250000
   11      O       2.5806220000    -5.4810750000    -0.5171040000
   12      O      -2.8671440000    -4.4798710000     0.5086220000
   13      C      -3.9008140000    -5.3560260000     0.0758110000
   14      H      -4.8470020000    -4.7904960000     0.1736400000
   15      H      -3.9717940000    -6.2685130000     0.7073540000
   16      H      -3.7633970000    -5.6581870000    -0.9849630000
   17      C       3.6212250000    -4.5469990000    -0.2570160000
   18      H       4.5698280000    -5.1075640000    -0.3578640000
   19      H       3.5519100000    -4.1314730000     0.7712110000
   20      H       3.6265920000    -3.7120850000    -0.9909130000
   21      C      -1.0580880000    -2.3143260000     0.1870340000
   22      S       1.5230350000    -2.2954870000    -0.2818990000
   23      C       0.0000000000    -1.4351800000     0.0000000000
   24      H      -2.0905650000    -1.9932110000     0.3736530000
   25      H      -0.2662260000    -9.6159850000     0.0007730000
   26      C       0.0000000000     0.0000000000     0.0000000000
   27      S       0.0806150000     0.8958110000     1.5107320000
   28      C       0.2168420000     2.4652310000     0.7276290000
   29      C       0.0791270000     0.9047690000    -1.0646650000
   30      C       0.1986590000     2.2884060000    -0.6782870000
   31      C       0.0749880000     0.8384920000    -2.4861500000
   32      C       0.1850970000     2.0985240000    -3.1069160000
   33      S       0.2905010000     3.3415680000    -1.9657350000
   34      C       0.2119320000     2.3516230000    -4.5599720000
   35      O       0.1335450000     1.4214160000    -5.3502770000
   36      O       0.3269940000     3.6296490000    -5.0043750000
   37      F      -0.0182140000    -0.2717340000    -3.2462900000
   38      C       0.3683670000     3.9861010000    -6.3349760000
   39      H       0.4652700000     5.0868060000    -6.3702680000
   40      H      -0.5531400000     3.6758780000    -6.8756090000
   41      H       1.2298740000     3.5192630000    -6.8618780000
   42      H       0.2970910000     3.3817460000     1.3215100000
 ----------------------------------------------------------------

   10   -2754.2950629871      8.81e-07  Convergence criterion met
 Total energy in the final basis set =    -2754.2950629871
        RIMP2         total energy =     -2759.3472669645 a.u.

                    Orbital Energies (a.u.)
 --------------------------------------------------------------

 Alpha MOs
 -- Occupied --
-92.0163 -91.9942 -91.9900 -91.9867 -26.3337 -20.6119 -20.5924 -20.5920
-20.5499 -11.4101 -11.3770 -11.3193 -11.3191 -11.3095 -11.2970 -11.2959
-11.2932 -11.2931 -11.2883 -11.2870 -11.2869 -11.2863 -11.2842 -11.2824
-11.2805 -11.2611 -11.2599 -11.2598 -11.2502  -9.0143  -8.9983  -8.9903
 -8.9866  -6.6950  -6.6945  -6.6940  -6.6796  -6.6789  -6.6775  -6.6712
 -6.6705  -6.6696  -6.6676  -6.6670  -6.6661  -1.6466  -1.4716  -1.4165
 -1.4148  -1.3669  -1.2328  -1.1962  -1.1683  -1.1415  -1.0841  -1.0524
 -1.0471  -1.0274  -1.0026  -0.9933  -0.9710  -0.9615  -0.9506  -0.9383
 -0.8960  -0.8689  -0.8509  -0.8054  -0.7900  -0.7885  -0.7741  -0.7678
 -0.7586  -0.7330  -0.7178  -0.7149  -0.7013  -0.6885  -0.6834  -0.6783
 -0.6708  -0.6604  -0.6593  -0.6529  -0.6310  -0.6203  -0.6172  -0.6062
 -0.6019  -0.5941  -0.5828  -0.5790  -0.5675  -0.5659  -0.5564  -0.5516
 -0.5347  -0.5261  -0.5246  -0.5162  -0.5141  -0.5080  -0.5011  -0.4947
 -0.4908  -0.4838  -0.4762  -0.4683  -0.4617  -0.4611  -0.4603  -0.4059
 -0.4014  -0.3874  -0.3575  -0.3488  -0.3150  -0.2889  -0.2596

          Ground-State Mulliken Net Atomic Charges

     Atom                 Charge (a.u.)
  ----------------------------------------
      1 C                    -0.186734
      2 C                    -0.254403
      3 S                    -0.021541
      4 C                    -0.012196
      5 H                     0.196631
      6 C                    -0.027819
      7 C                     0.248068
      8 C                     0.238848
      9 C                    -0.044094
     10 C                    -0.032395
     11 O                    -0.333073
     12 O                    -0.339841
     13 C                    -0.085673
     14 H                     0.122704
     15 H                     0.090956
     16 H                     0.094766
     17 C                    -0.086394
     18 H                     0.124820
     19 H                     0.094260
     20 H                     0.090443
     21 C                    -0.216701
     22 S                     0.001481
     23 C                    -0.053478
     24 H                     0.196781
     25 H                     0.206721
     26 C                    -0.010096
     27 S                     0.120079
     28 C                    -0.241077
     29 C                    -0.099057
     30 C                    -0.004181
     31 C                     0.396670
     32 C                    -0.159128
     33 S                     0.037269
     34 C                     0.460923
     35 O                    -0.450216
     36 O                    -0.297798
     37 F                    -0.210823
     38 C                    -0.055065
     39 H                     0.116515
     40 H                     0.084598
     41 H                     0.084487
     42 H                     0.214766
  ----------------------------------------
  Sum of atomic charges =     0.000000

                    Cartesian Multipole Moments
 -----------------------------------------------------------------
    Charge (ESU x 10^10)
                 0.0000
    Dipole Moment (Debye)
         X       0.3173      Y       1.4239      Z       3.0322
       Tot       3.3649
    Quadrupole Moments (Debye-Ang)
        XX    -176.3186     XY       2.2169     YY    -158.0672
        XZ       0.4433     YZ      -9.2304     ZZ    -206.6077

 Total job time:  298.52s(wall), 9347.25s(cpu)
        *  Thank you very much for using Q-Chem.  Have a nice day.  *
