 Q-Chem 5.4, Q-Chem, Inc., Pleasanton, CA (2021)
 Q-Chem 5.4.0 for Intel X86 EM64T Linux

User input:
--------------------------------------------------------------
$molecule
0 1
C	-0.268090	-8.519741	0.046574
C	0.733920	-7.635967	-0.326886
S	-1.722318	-7.651740	0.595708
C	0.371516	-6.261894	-0.193236
H	1.718130	-7.954738	-0.692700
C	-0.970283	-6.079985	0.294958
C	-1.498243	-4.798382	0.515487
C	1.219725	-5.153542	-0.477358
C	0.692914	-3.869626	-0.252655
C	-0.651289	-3.688927	0.233366
O	2.451623	-5.481075	-0.957369
O	-2.735264	-4.479871	0.998769
C	-3.828387	-5.356026	0.752029
H	-4.743213	-4.790496	1.012675
H	-3.788623	-6.268513	1.386303
H	-3.877260	-5.658187	-0.316492
C	3.521580	-4.546999	-0.881930
H	4.438260	-5.107564	-1.145969
H	3.631868	-4.131473	0.142712
H	3.399425	-3.712085	-1.605610
C	-1.009535	-2.314326	0.367928
S	1.450945	-2.295487	-0.542088
C	-0.000000	-1.435180	-0.000000
H	-1.993920	-1.993211	0.730999
H	-0.262047	-9.615985	0.046991
C	0.000000	0.000000	0.000000
S	0.451648	0.777811	1.510732
C	1.238377	2.142617	0.727629
C	0.454085	0.786559	-1.064665
C	1.147169	1.990043	-0.678287
C	0.422325	0.728240	-2.486150
C	1.054629	1.823683	-3.106916
S	1.675491	2.905718	-1.965735
C	1.185914	2.041729	-4.559972
O	0.721749	1.231802	-5.350277
O	1.830313	3.151386	-5.004375
F	-0.131347	-0.238577	-3.246290
C	2.018453	3.456956	-6.334976
H	2.571455	4.413580	-6.370268
H	1.052178	3.565244	-6.875609
H	2.601950	2.669768	-6.861878
H	1.698444	2.939346	1.321510
$end

$rem
JOBTYPE		SP
EXCHANGE	HF
CORRELATION	pRIMP2
BASIS		cc-pvtz
METHOD		rimp2
AUX_BASIS	rimp2-cc-pvtz
SOLVENT_METHOD	PCM
PURECART	11111
SYMMETRY	false
MEM_TOTAL	110000
SCF_CONVERGENCE = 6
THRESH=10
GUI = 2
$end

$solvent
dielectric 4.90
$end
--------------------------------------------------------------

             Standard Nuclear Orientation (Angstroms)
    I     Atom           X                Y                Z
 ----------------------------------------------------------------
    1      C      -0.2680900000    -8.5197410000     0.0465740000
    2      C       0.7339200000    -7.6359670000    -0.3268860000
    3      S      -1.7223180000    -7.6517400000     0.5957080000
    4      C       0.3715160000    -6.2618940000    -0.1932360000
    5      H       1.7181300000    -7.9547380000    -0.6927000000
    6      C      -0.9702830000    -6.0799850000     0.2949580000
    7      C      -1.4982430000    -4.7983820000     0.5154870000
    8      C       1.2197250000    -5.1535420000    -0.4773580000
    9      C       0.6929140000    -3.8696260000    -0.2526550000
   10      C      -0.6512890000    -3.6889270000     0.2333660000
   11      O       2.4516230000    -5.4810750000    -0.9573690000
   12      O      -2.7352640000    -4.4798710000     0.9987690000
   13      C      -3.8283870000    -5.3560260000     0.7520290000
   14      H      -4.7432130000    -4.7904960000     1.0126750000
   15      H      -3.7886230000    -6.2685130000     1.3863030000
   16      H      -3.8772600000    -5.6581870000    -0.3164920000
   17      C       3.5215800000    -4.5469990000    -0.8819300000
   18      H       4.4382600000    -5.1075640000    -1.1459690000
   19      H       3.6318680000    -4.1314730000     0.1427120000
   20      H       3.3994250000    -3.7120850000    -1.6056100000
   21      C      -1.0095350000    -2.3143260000     0.3679280000
   22      S       1.4509450000    -2.2954870000    -0.5420880000
   23      C       0.0000000000    -1.4351800000     0.0000000000
   24      H      -1.9939200000    -1.9932110000     0.7309990000
   25      H      -0.2620470000    -9.6159850000     0.0469910000
   26      C       0.0000000000     0.0000000000     0.0000000000
   27      S       0.4516480000     0.7778110000     1.5107320000
   28      C       1.2383770000     2.1426170000     0.7276290000
   29      C       0.4540850000     0.7865590000    -1.0646650000
   30      C       1.1471690000     1.9900430000    -0.6782870000
   31      C       0.4223250000     0.7282400000    -2.4861500000
   32      C       1.0546290000     1.8236830000    -3.1069160000
   33      S       1.6754910000     2.9057180000    -1.9657350000
   34      C       1.1859140000     2.0417290000    -4.5599720000
   35      O       0.7217490000     1.2318020000    -5.3502770000
   36      O       1.8303130000     3.1513860000    -5.0043750000
   37      F      -0.1313470000    -0.2385770000    -3.2462900000
   38      C       2.0184530000     3.4569560000    -6.3349760000
   39      H       2.5714550000     4.4135800000    -6.3702680000
   40      H       1.0521780000     3.5652440000    -6.8756090000
   41      H       2.6019500000     2.6697680000    -6.8618780000
   42      H       1.6984440000     2.9393460000     1.3215100000
 ----------------------------------------------------------------

   10   -2754.2811975223      8.69e-07  Convergence criterion met
 Total energy in the final basis set =    -2754.2811975223
        RIMP2         total energy =     -2759.3391509193 a.u.

                    Orbital Energies (a.u.)
 --------------------------------------------------------------

 Alpha MOs
 -- Occupied --
-92.0162 -91.9971 -91.9887 -91.9860 -26.3339 -20.6129 -20.5920 -20.5911
-20.5516 -11.4116 -11.3771 -11.3187 -11.3174 -11.3009 -11.3008 -11.3006
-11.2971 -11.2919 -11.2889 -11.2868 -11.2858 -11.2853 -11.2848 -11.2835
-11.2794 -11.2596 -11.2586 -11.2548 -11.2496  -9.0145  -9.0010  -8.9891
 -8.9859  -6.6951  -6.6945  -6.6941  -6.6823  -6.6816  -6.6803  -6.6700
 -6.6693  -6.6684  -6.6669  -6.6663  -6.6654  -1.6468  -1.4727  -1.4161
 -1.4138  -1.3682  -1.2354  -1.1951  -1.1682  -1.1426  -1.0836  -1.0515
 -1.0482  -1.0287  -1.0016  -0.9925  -0.9722  -0.9607  -0.9501  -0.9384
 -0.8953  -0.8705  -0.8487  -0.8057  -0.7909  -0.7877  -0.7746  -0.7670
 -0.7571  -0.7321  -0.7180  -0.7152  -0.7004  -0.6894  -0.6823  -0.6792
 -0.6723  -0.6608  -0.6588  -0.6523  -0.6297  -0.6196  -0.6169  -0.6074
 -0.6035  -0.5965  -0.5814  -0.5784  -0.5660  -0.5652  -0.5560  -0.5492
 -0.5346  -0.5272  -0.5239  -0.5156  -0.5138  -0.5085  -0.5013  -0.4952
 -0.4897  -0.4851  -0.4733  -0.4681  -0.4625  -0.4618  -0.4603  -0.4057
 -0.4017  -0.3860  -0.3563  -0.3502  -0.3153  -0.2895  -0.2572

          Ground-State Mulliken Net Atomic Charges

     Atom                 Charge (a.u.)
  ----------------------------------------
      1 C                    -0.188561
      2 C                    -0.254690
      3 S                    -0.022884
      4 C                    -0.014004
      5 H                     0.196276
      6 C                    -0.026947
      7 C                     0.240202
      8 C                     0.241361
      9 C                    -0.042674
     10 C                    -0.015096
     11 O                    -0.333219
     12 O                    -0.339868
     13 C                    -0.085624
     14 H                     0.122363
     15 H                     0.090826
     16 H                     0.094403
     17 C                    -0.087062
     18 H                     0.125166
     19 H                     0.094170
     20 H                     0.090251
     21 C                    -0.235688
     22 S                    -0.006422
     23 C                    -0.050678
     24 H                     0.196398
     25 H                     0.206345
     26 C                     0.004233
     27 S                     0.127565
     28 C                    -0.220662
     29 C                    -0.149676
     30 C                     0.002661
     31 C                     0.390151
     32 C                    -0.149769
     33 S                     0.048087
     34 C                     0.459814
     35 O                    -0.446956
     36 O                    -0.297698
     37 F                    -0.209519
     38 C                    -0.054886
     39 H                     0.116759
     40 H                     0.084902
     41 H                     0.084823
     42 H                     0.215828
  ----------------------------------------
  Sum of atomic charges =     0.000000

                    Cartesian Multipole Moments
 -----------------------------------------------------------------
    Charge (ESU x 10^10)
                 0.0000
    Dipole Moment (Debye)
         X       2.0915      Y       1.7843      Z       2.8761
       Tot       3.9787
    Quadrupole Moments (Debye-Ang)
        XX    -172.6876     XY       8.0725     YY    -163.1440
        XZ      -8.6250     YZ      -8.2895     ZZ    -205.2522

 Total job time:  350.30s(wall), 11314.98s(cpu)
        *  Thank you very much for using Q-Chem.  Have a nice day.  *
