 Q-Chem 5.4, Q-Chem, Inc., Pleasanton, CA (2021)
 Q-Chem 5.4.0 for Intel X86 EM64T Linux

User input:
--------------------------------------------------------------
$molecule
0 1
C	0.093711	-8.519741	-0.255459
C	-0.083869	-7.635967	0.799036
S	0.345260	-7.651740	-1.789425
C	-0.018411	-6.261894	0.418360
H	-0.259169	-7.954738	1.834294
C	0.229701	-6.079985	-0.987769
C	0.302697	-4.798382	-1.555260
C	-0.196459	-5.153542	1.294992
C	-0.127651	-3.869626	0.726408
C	0.123544	-3.688927	-0.680716
O	-0.396706	-5.481075	2.601852
O	0.502673	-4.479871	-2.868193
C	1.262918	-5.356026	-3.691495
H	1.494604	-4.790496	-4.614080
H	0.693738	-6.268513	-3.974195
H	2.212720	-5.658187	-3.199559
C	-0.997016	-4.546999	3.490743
H	-1.226691	-5.107564	4.416630
H	-1.939526	-4.131473	3.073934
H	-0.309214	-3.712085	3.746794
C	0.186133	-2.314326	-1.058247
S	-0.256010	-2.295487	1.527599
C	0.000000	-1.435180	0.000000
H	0.363896	-1.993211	-2.092285
H	0.090328	-9.615985	-0.250435
C	0.000000	0.000000	0.000000
S	0.309721	0.844422	1.510732
C	0.847502	2.325108	0.727629
C	0.310602	0.853460	-1.064665
C	0.784173	2.159014	-0.678287
C	0.289451	0.790512	-2.486150
C	0.721927	1.979112	-3.106916
S	1.145464	3.152519	-1.965735
C	0.813355	2.216642	-4.559972
O	0.496884	1.338418	-5.350277
O	1.255274	3.421340	-5.004375
F	-0.087923	-0.257761	-3.246290
C	1.387494	3.754937	-6.334976
H	1.765978	4.793056	-6.370268
H	0.417095	3.693789	-6.875609
H	2.098820	3.081033	-6.861878
H	1.162229	3.189623	1.321510
$end

$rem
JOBTYPE		SP
EXCHANGE	HF
CORRELATION	pRIMP2
BASIS		cc-pvtz
METHOD		rimp2
AUX_BASIS	rimp2-cc-pvtz
SOLVENT_METHOD	PCM
PURECART	11111
SYMMETRY	false
MEM_TOTAL	110000
SCF_CONVERGENCE = 6
THRESH=10
GUI = 2
$end

$solvent
dielectric 4.90
$end
--------------------------------------------------------------

             Standard Nuclear Orientation (Angstroms)
    I     Atom           X                Y                Z
 ----------------------------------------------------------------
    1      C       0.0937110000    -8.5197410000    -0.2554590000
    2      C      -0.0838690000    -7.6359670000     0.7990360000
    3      S       0.3452600000    -7.6517400000    -1.7894250000
    4      C      -0.0184110000    -6.2618940000     0.4183600000
    5      H      -0.2591690000    -7.9547380000     1.8342940000
    6      C       0.2297010000    -6.0799850000    -0.9877690000
    7      C       0.3026970000    -4.7983820000    -1.5552600000
    8      C      -0.1964590000    -5.1535420000     1.2949920000
    9      C      -0.1276510000    -3.8696260000     0.7264080000
   10      C       0.1235440000    -3.6889270000    -0.6807160000
   11      O      -0.3967060000    -5.4810750000     2.6018520000
   12      O       0.5026730000    -4.4798710000    -2.8681930000
   13      C       1.2629180000    -5.3560260000    -3.6914950000
   14      H       1.4946040000    -4.7904960000    -4.6140800000
   15      H       0.6937380000    -6.2685130000    -3.9741950000
   16      H       2.2127200000    -5.6581870000    -3.1995590000
   17      C      -0.9970160000    -4.5469990000     3.4907430000
   18      H      -1.2266910000    -5.1075640000     4.4166300000
   19      H      -1.9395260000    -4.1314730000     3.0739340000
   20      H      -0.3092140000    -3.7120850000     3.7467940000
   21      C       0.1861330000    -2.3143260000    -1.0582470000
   22      S      -0.2560100000    -2.2954870000     1.5275990000
   23      C       0.0000000000    -1.4351800000     0.0000000000
   24      H       0.3638960000    -1.9932110000    -2.0922850000
   25      H       0.0903280000    -9.6159850000    -0.2504350000
   26      C       0.0000000000     0.0000000000     0.0000000000
   27      S       0.3097210000     0.8444220000     1.5107320000
   28      C       0.8475020000     2.3251080000     0.7276290000
   29      C       0.3106020000     0.8534600000    -1.0646650000
   30      C       0.7841730000     2.1590140000    -0.6782870000
   31      C       0.2894510000     0.7905120000    -2.4861500000
   32      C       0.7219270000     1.9791120000    -3.1069160000
   33      S       1.1454640000     3.1525190000    -1.9657350000
   34      C       0.8133550000     2.2166420000    -4.5599720000
   35      O       0.4968840000     1.3384180000    -5.3502770000
   36      O       1.2552740000     3.4213400000    -5.0043750000
   37      F      -0.0879230000    -0.2577610000    -3.2462900000
   38      C       1.3874940000     3.7549370000    -6.3349760000
   39      H       1.7659780000     4.7930560000    -6.3702680000
   40      H       0.4170950000     3.6937890000    -6.8756090000
   41      H       2.0988200000     3.0810330000    -6.8618780000
   42      H       1.1622290000     3.1896230000     1.3215100000
 ----------------------------------------------------------------

   10   -2754.2899205560      8.24e-07  Convergence criterion met
 Total energy in the final basis set =    -2754.2899205560
        RIMP2         total energy =     -2759.3477657548 a.u.

                    Orbital Energies (a.u.)
 --------------------------------------------------------------

 Alpha MOs
 -- Occupied --
-92.0163 -91.9965 -91.9899 -91.9867 -26.3381 -20.6123 -20.5928 -20.5912
-20.5504 -11.4107 -11.3785 -11.3198 -11.3186 -11.3110 -11.2983 -11.2983
-11.2964 -11.2954 -11.2886 -11.2876 -11.2874 -11.2853 -11.2844 -11.2822
-11.2802 -11.2617 -11.2597 -11.2557 -11.2502  -9.0149  -9.0004  -8.9906
 -8.9866  -6.6956  -6.6950  -6.6945  -6.6817  -6.6810  -6.6797  -6.6716
 -6.6709  -6.6700  -6.6676  -6.6669  -6.6661  -1.6524  -1.4721  -1.4169
 -1.4139  -1.3675  -1.2348  -1.1968  -1.1697  -1.1430  -1.0848  -1.0527
 -1.0488  -1.0288  -1.0033  -0.9939  -0.9729  -0.9609  -0.9506  -0.9386
 -0.8968  -0.8704  -0.8513  -0.8065  -0.7968  -0.7887  -0.7723  -0.7701
 -0.7577  -0.7334  -0.7222  -0.7193  -0.7016  -0.6899  -0.6841  -0.6788
 -0.6730  -0.6623  -0.6594  -0.6524  -0.6288  -0.6200  -0.6157  -0.6068
 -0.6012  -0.5954  -0.5875  -0.5757  -0.5695  -0.5609  -0.5540  -0.5478
 -0.5363  -0.5275  -0.5250  -0.5187  -0.5173  -0.5094  -0.5059  -0.4968
 -0.4863  -0.4849  -0.4789  -0.4674  -0.4620  -0.4615  -0.4587  -0.4245
 -0.3983  -0.3855  -0.3594  -0.3509  -0.3256  -0.2848  -0.2470

          Ground-State Mulliken Net Atomic Charges

     Atom                 Charge (a.u.)
  ----------------------------------------
      1 C                    -0.187695
      2 C                    -0.254791
      3 S                    -0.020625
      4 C                    -0.014832
      5 H                     0.196368
      6 C                    -0.028545
      7 C                     0.248543
      8 C                     0.243278
      9 C                    -0.038086
     10 C                    -0.030290
     11 O                    -0.333286
     12 O                    -0.339193
     13 C                    -0.086365
     14 H                     0.124082
     15 H                     0.091441
     16 H                     0.093748
     17 C                    -0.088351
     18 H                     0.126167
     19 H                     0.095188
     20 H                     0.089407
     21 C                    -0.218146
     22 S                    -0.041644
     23 C                    -0.025640
     24 H                     0.208706
     25 H                     0.206695
     26 C                     0.015117
     27 S                     0.100950
     28 C                    -0.240897
     29 C                    -0.093309
     30 C                    -0.017769
     31 C                     0.362029
     32 C                    -0.133583
     33 S                     0.045886
     34 C                     0.459471
     35 O                    -0.450288
     36 O                    -0.298007
     37 F                    -0.214375
     38 C                    -0.054793
     39 H                     0.116771
     40 H                     0.084686
     41 H                     0.084370
     42 H                     0.217603
  ----------------------------------------
  Sum of atomic charges =     0.000000

                    Cartesian Multipole Moments
 -----------------------------------------------------------------
    Charge (ESU x 10^10)
                 0.0000
    Dipole Moment (Debye)
         X       1.5222      Y       1.4478      Z       3.2036
       Tot       3.8309
    Quadrupole Moments (Debye-Ang)
        XX    -195.9841     XY       3.7390     YY    -159.3065
        XZ     -13.0558     YZ      -9.7250     ZZ    -184.8997

 Total job time:  327.69s(wall), 10929.76s(cpu)
        *  Thank you very much for using Q-Chem.  Have a nice day.  *
