 Q-Chem 5.4, Q-Chem, Inc., Pleasanton, CA (2021)
 Q-Chem 5.4.0 for Intel X86 EM64T Linux

User input:
--------------------------------------------------------------
$molecule
0 1
C	0.136647	-8.519741	-0.235306
C	-0.221346	-7.635967	0.772334
S	0.650746	-7.651740	-1.702286
C	-0.090779	-6.261894	0.408807
H	-0.573754	-7.954738	1.761423
C	0.397735	-6.079985	-0.932876
C	0.568166	-4.798382	-1.479069
C	-0.418347	-5.153542	1.241204
C	-0.251852	-3.869626	0.693206
C	0.239872	-3.688927	-0.648921
O	-0.842486	-5.481075	2.493437
O	0.993092	-4.479871	-2.737331
C	1.884752	-5.356026	-3.416110
H	2.273124	-4.790496	-4.284447
H	1.373310	-6.268513	-3.793352
H	2.734702	-5.658187	-2.766716
C	-1.588030	-4.546999	3.264581
H	-1.974995	-5.107564	4.136519
H	-2.443843	-4.131473	2.690439
H	-0.955140	-3.712085	3.636177
C	0.367068	-2.314326	-1.009848
S	-0.517386	-2.295487	1.459936
C	-0.000000	-1.435180	-0.000000
H	0.721689	-1.993211	-1.997308
H	0.132444	-9.615985	-0.230945
C	0.000000	0.000000	0.000000
S	0.690437	0.576430	1.510732
C	1.896512	1.589852	0.727629
C	0.695720	0.583817	-1.064665
C	1.758621	1.477674	-0.678287
C	0.645928	0.539878	-2.486150
C	1.614763	1.352997	-3.106916
S	2.568261	2.157430	-1.965735
C	1.812707	1.512991	-4.559972
O	1.099523	0.910662	-5.350277
O	2.797769	2.335330	-5.004375
F	-0.205024	-0.179266	-3.246290
C	3.079074	2.558124	-6.334976
H	3.925910	3.267919	-6.370268
H	2.208109	2.990367	-6.875609
H	3.358147	1.618843	-6.861878
H	2.601331	2.181180	1.321510
$end

$rem
JOBTYPE		SP
EXCHANGE	HF
CORRELATION	pRIMP2
BASIS		cc-pvtz
METHOD		rimp2
AUX_BASIS	rimp2-cc-pvtz
SOLVENT_METHOD	PCM
PURECART	11111
SYMMETRY	false
MEM_TOTAL	110000
SCF_CONVERGENCE = 6
THRESH=10
GUI = 2
$end

$solvent
dielectric 4.90
$end
--------------------------------------------------------------

             Standard Nuclear Orientation (Angstroms)
    I     Atom           X                Y                Z
 ----------------------------------------------------------------
    1      C       0.1366470000    -8.5197410000    -0.2353060000
    2      C      -0.2213460000    -7.6359670000     0.7723340000
    3      S       0.6507460000    -7.6517400000    -1.7022860000
    4      C      -0.0907790000    -6.2618940000     0.4088070000
    5      H      -0.5737540000    -7.9547380000     1.7614230000
    6      C       0.3977350000    -6.0799850000    -0.9328760000
    7      C       0.5681660000    -4.7983820000    -1.4790690000
    8      C      -0.4183470000    -5.1535420000     1.2412040000
    9      C      -0.2518520000    -3.8696260000     0.6932060000
   10      C       0.2398720000    -3.6889270000    -0.6489210000
   11      O      -0.8424860000    -5.4810750000     2.4934370000
   12      O       0.9930920000    -4.4798710000    -2.7373310000
   13      C       1.8847520000    -5.3560260000    -3.4161100000
   14      H       2.2731240000    -4.7904960000    -4.2844470000
   15      H       1.3733100000    -6.2685130000    -3.7933520000
   16      H       2.7347020000    -5.6581870000    -2.7667160000
   17      C      -1.5880300000    -4.5469990000     3.2645810000
   18      H      -1.9749950000    -5.1075640000     4.1365190000
   19      H      -2.4438430000    -4.1314730000     2.6904390000
   20      H      -0.9551400000    -3.7120850000     3.6361770000
   21      C       0.3670680000    -2.3143260000    -1.0098480000
   22      S      -0.5173860000    -2.2954870000     1.4599360000
   23      C       0.0000000000    -1.4351800000     0.0000000000
   24      H       0.7216890000    -1.9932110000    -1.9973080000
   25      H       0.1324440000    -9.6159850000    -0.2309450000
   26      C       0.0000000000     0.0000000000     0.0000000000
   27      S       0.6904370000     0.5764300000     1.5107320000
   28      C       1.8965120000     1.5898520000     0.7276290000
   29      C       0.6957200000     0.5838170000    -1.0646650000
   30      C       1.7586210000     1.4776740000    -0.6782870000
   31      C       0.6459280000     0.5398780000    -2.4861500000
   32      C       1.6147630000     1.3529970000    -3.1069160000
   33      S       2.5682610000     2.1574300000    -1.9657350000
   34      C       1.8127070000     1.5129910000    -4.5599720000
   35      O       1.0995230000     0.9106620000    -5.3502770000
   36      O       2.7977690000     2.3353300000    -5.0043750000
   37      F      -0.2050240000    -0.1792660000    -3.2462900000
   38      C       3.0790740000     2.5581240000    -6.3349760000
   39      H       3.9259100000     3.2679190000    -6.3702680000
   40      H       2.2081090000     2.9903670000    -6.8756090000
   41      H       3.3581470000     1.6188430000    -6.8618780000
   42      H       2.6013310000     2.1811800000     1.3215100000
 ----------------------------------------------------------------

   11   -2754.2520737715      5.75e-07  Convergence criterion met
 Total energy in the final basis set =    -2754.2520737715
        RIMP2         total energy =     -2759.3213527862 a.u.

                    Orbital Energies (a.u.)
 --------------------------------------------------------------

 Alpha MOs
 -- Occupied --
-92.0180 -92.0050 -91.9838 -91.9836 -26.3362 -20.6155 -20.5910 -20.5876
-20.5559 -11.4155 -11.3776 -11.3188 -11.3171 -11.3119 -11.3095 -11.3019
-11.2965 -11.2921 -11.2903 -11.2886 -11.2862 -11.2837 -11.2814 -11.2810
-11.2758 -11.2582 -11.2539 -11.2479 -11.2432  -9.0170  -9.0085  -8.9847
 -8.9837  -6.6976  -6.6968  -6.6966  -6.6897  -6.6891  -6.6878  -6.6657
 -6.6650  -6.6647  -6.6641  -6.6641  -6.6632  -1.6498  -1.4756  -1.4149
 -1.4105  -1.3716  -1.2422  -1.1933  -1.1700  -1.1446  -1.0843  -1.0523
 -1.0482  -1.0329  -0.9992  -0.9928  -0.9758  -0.9586  -0.9486  -0.9386
 -0.8942  -0.8750  -0.8456  -0.8028  -0.7984  -0.7869  -0.7739  -0.7699
 -0.7545  -0.7311  -0.7223  -0.7173  -0.6993  -0.6928  -0.6819  -0.6788
 -0.6768  -0.6620  -0.6573  -0.6501  -0.6260  -0.6175  -0.6146  -0.6109
 -0.6066  -0.6016  -0.5831  -0.5739  -0.5674  -0.5602  -0.5570  -0.5451
 -0.5341  -0.5264  -0.5234  -0.5173  -0.5151  -0.5085  -0.5061  -0.4966
 -0.4881  -0.4836  -0.4728  -0.4678  -0.4640  -0.4618  -0.4569  -0.4212
 -0.3951  -0.3819  -0.3564  -0.3517  -0.3242  -0.2862  -0.2459

          Ground-State Mulliken Net Atomic Charges

     Atom                 Charge (a.u.)
  ----------------------------------------
      1 C                    -0.196243
      2 C                    -0.254215
      3 S                    -0.026194
      4 C                    -0.021434
      5 H                     0.195267
      6 C                    -0.025034
      7 C                     0.237136
      8 C                     0.246571
      9 C                    -0.045351
     10 C                    -0.019550
     11 O                    -0.333706
     12 O                    -0.341482
     13 C                    -0.086108
     14 H                     0.122367
     15 H                     0.090800
     16 H                     0.092378
     17 C                    -0.087328
     18 H                     0.125268
     19 H                     0.094960
     20 H                     0.088823
     21 C                    -0.248476
     22 S                    -0.049076
     23 C                     0.002785
     24 H                     0.189674
     25 H                     0.205033
     26 C                    -0.088925
     27 S                     0.130966
     28 C                    -0.173885
     29 C                    -0.042049
     30 C                    -0.028629
     31 C                     0.332660
     32 C                    -0.123658
     33 S                     0.071896
     34 C                     0.460261
     35 O                    -0.440951
     36 O                    -0.297094
     37 F                    -0.213116
     38 C                    -0.054495
     39 H                     0.117383
     40 H                     0.085610
     41 H                     0.085403
     42 H                     0.221757
  ----------------------------------------
  Sum of atomic charges =     0.000000

                    Cartesian Multipole Moments
 -----------------------------------------------------------------
    Charge (ESU x 10^10)
                 0.0000
    Dipole Moment (Debye)
         X       4.2936      Y       2.9980      Z       3.1610
       Tot       6.1168
    Quadrupole Moments (Debye-Ang)
        XX    -182.4787     XY       8.9065     YY    -175.0595
        XZ     -20.7279     YZ      -8.7975     ZZ    -186.2710

 Total job time:  306.59s(wall), 9928.49s(cpu)
        *  Thank you very much for using Q-Chem.  Have a nice day.  *
