 Q-Chem 5.4, Q-Chem, Inc., Pleasanton, CA (2021)
 Q-Chem 5.4.0 for Intel X86 EM64T Linux

User input:
--------------------------------------------------------------
$molecule
0 1
C	0.268090	-8.519741	-0.046574
C	-0.733920	-7.635967	0.326886
S	1.722318	-7.651740	-0.595708
C	-0.371516	-6.261894	0.193236
H	-1.718130	-7.954738	0.692700
C	0.970283	-6.079985	-0.294958
C	1.498243	-4.798382	-0.515487
C	-1.219725	-5.153542	0.477358
C	-0.692914	-3.869626	0.252655
C	0.651289	-3.688927	-0.233366
O	-2.451623	-5.481075	0.957369
O	2.735264	-4.479871	-0.998769
C	3.828387	-5.356026	-0.752029
H	4.743213	-4.790496	-1.012675
H	3.788623	-6.268513	-1.386303
H	3.877260	-5.658187	0.316492
C	-3.521580	-4.546999	0.881930
H	-4.438260	-5.107564	1.145969
H	-3.631868	-4.131473	-0.142712
H	-3.399425	-3.712085	1.605610
C	1.009535	-2.314326	-0.367928
S	-1.450945	-2.295487	0.542088
C	-0.000000	-1.435180	-0.000000
H	1.993920	-1.993211	-0.730999
H	0.262047	-9.615985	-0.046991
C	0.000000	0.000000	0.000000
S	0.451648	0.777811	1.510732
C	1.238377	2.142617	0.727629
C	0.454085	0.786559	-1.064665
C	1.147169	1.990043	-0.678287
C	0.422325	0.728240	-2.486150
C	1.054629	1.823683	-3.106916
S	1.675491	2.905718	-1.965735
C	1.185914	2.041729	-4.559972
O	0.721749	1.231802	-5.350277
O	1.830313	3.151386	-5.004375
F	-0.131347	-0.238577	-3.246290
C	2.018453	3.456956	-6.334976
H	2.571455	4.413580	-6.370268
H	1.052178	3.565244	-6.875609
H	2.601950	2.669768	-6.861878
H	1.698444	2.939346	1.321510
$end

$rem
JOBTYPE		SP
EXCHANGE	HF
CORRELATION	pRIMP2
BASIS		cc-pvtz
METHOD		rimp2
AUX_BASIS	rimp2-cc-pvtz
SOLVENT_METHOD	PCM
PURECART	11111
SYMMETRY	false
MEM_TOTAL	110000
SCF_CONVERGENCE = 6
THRESH=10
GUI = 2
$end

$solvent
dielectric 4.90
$end
--------------------------------------------------------------

             Standard Nuclear Orientation (Angstroms)
    I     Atom           X                Y                Z
 ----------------------------------------------------------------
    1      C       0.2680900000    -8.5197410000    -0.0465740000
    2      C      -0.7339200000    -7.6359670000     0.3268860000
    3      S       1.7223180000    -7.6517400000    -0.5957080000
    4      C      -0.3715160000    -6.2618940000     0.1932360000
    5      H      -1.7181300000    -7.9547380000     0.6927000000
    6      C       0.9702830000    -6.0799850000    -0.2949580000
    7      C       1.4982430000    -4.7983820000    -0.5154870000
    8      C      -1.2197250000    -5.1535420000     0.4773580000
    9      C      -0.6929140000    -3.8696260000     0.2526550000
   10      C       0.6512890000    -3.6889270000    -0.2333660000
   11      O      -2.4516230000    -5.4810750000     0.9573690000
   12      O       2.7352640000    -4.4798710000    -0.9987690000
   13      C       3.8283870000    -5.3560260000    -0.7520290000
   14      H       4.7432130000    -4.7904960000    -1.0126750000
   15      H       3.7886230000    -6.2685130000    -1.3863030000
   16      H       3.8772600000    -5.6581870000     0.3164920000
   17      C      -3.5215800000    -4.5469990000     0.8819300000
   18      H      -4.4382600000    -5.1075640000     1.1459690000
   19      H      -3.6318680000    -4.1314730000    -0.1427120000
   20      H      -3.3994250000    -3.7120850000     1.6056100000
   21      C       1.0095350000    -2.3143260000    -0.3679280000
   22      S      -1.4509450000    -2.2954870000     0.5420880000
   23      C       0.0000000000    -1.4351800000     0.0000000000
   24      H       1.9939200000    -1.9932110000    -0.7309990000
   25      H       0.2620470000    -9.6159850000    -0.0469910000
   26      C       0.0000000000     0.0000000000     0.0000000000
   27      S       0.4516480000     0.7778110000     1.5107320000
   28      C       1.2383770000     2.1426170000     0.7276290000
   29      C       0.4540850000     0.7865590000    -1.0646650000
   30      C       1.1471690000     1.9900430000    -0.6782870000
   31      C       0.4223250000     0.7282400000    -2.4861500000
   32      C       1.0546290000     1.8236830000    -3.1069160000
   33      S       1.6754910000     2.9057180000    -1.9657350000
   34      C       1.1859140000     2.0417290000    -4.5599720000
   35      O       0.7217490000     1.2318020000    -5.3502770000
   36      O       1.8303130000     3.1513860000    -5.0043750000
   37      F      -0.1313470000    -0.2385770000    -3.2462900000
   38      C       2.0184530000     3.4569560000    -6.3349760000
   39      H       2.5714550000     4.4135800000    -6.3702680000
   40      H       1.0521780000     3.5652440000    -6.8756090000
   41      H       2.6019500000     2.6697680000    -6.8618780000
   42      H       1.6984440000     2.9393460000     1.3215100000
 ----------------------------------------------------------------

   10   -2754.2804942685      9.27e-07  Convergence criterion met
 Total energy in the final basis set =    -2754.2804942685
        RIMP2         total energy =     -2759.3383042858 a.u.

                    Orbital Energies (a.u.)
 --------------------------------------------------------------

 Alpha MOs
 -- Occupied --
-92.0156 -91.9968 -91.9869 -91.9858 -26.3337 -20.6129 -20.5919 -20.5909
-20.5516 -11.4117 -11.3769 -11.3184 -11.3171 -11.3020 -11.3007 -11.3002
-11.2968 -11.2931 -11.2888 -11.2865 -11.2858 -11.2858 -11.2847 -11.2834
-11.2792 -11.2601 -11.2581 -11.2559 -11.2495  -9.0140  -9.0008  -8.9874
 -8.9857  -6.6947  -6.6940  -6.6936  -6.6820  -6.6814  -6.6800  -6.6684
 -6.6677  -6.6668  -6.6667  -6.6661  -6.6652  -1.6466  -1.4727  -1.4159
 -1.4137  -1.3682  -1.2351  -1.1949  -1.1680  -1.1425  -1.0835  -1.0512
 -1.0484  -1.0286  -1.0011  -0.9926  -0.9721  -0.9604  -0.9499  -0.9387
 -0.8949  -0.8704  -0.8482  -0.8036  -0.7922  -0.7874  -0.7734  -0.7702
 -0.7568  -0.7320  -0.7181  -0.7150  -0.7010  -0.6897  -0.6822  -0.6791
 -0.6723  -0.6604  -0.6584  -0.6521  -0.6293  -0.6195  -0.6162  -0.6074
 -0.6034  -0.5966  -0.5815  -0.5763  -0.5707  -0.5645  -0.5533  -0.5518
 -0.5324  -0.5265  -0.5242  -0.5155  -0.5137  -0.5078  -0.5015  -0.4949
 -0.4895  -0.4857  -0.4736  -0.4663  -0.4624  -0.4618  -0.4598  -0.4069
 -0.3984  -0.3869  -0.3592  -0.3467  -0.3159  -0.2901  -0.2564

          Ground-State Mulliken Net Atomic Charges

     Atom                 Charge (a.u.)
  ----------------------------------------
      1 C                    -0.189292
      2 C                    -0.254285
      3 S                    -0.022830
      4 C                    -0.016451
      5 H                     0.196202
      6 C                    -0.029100
      7 C                     0.241689
      8 C                     0.244855
      9 C                    -0.051900
     10 C                    -0.015304
     11 O                    -0.333586
     12 O                    -0.340038
     13 C                    -0.085619
     14 H                     0.122349
     15 H                     0.091218
     16 H                     0.093544
     17 C                    -0.086601
     18 H                     0.124756
     19 H                     0.095098
     20 H                     0.089155
     21 C                    -0.219982
     22 S                    -0.006914
     23 C                    -0.016645
     24 H                     0.199093
     25 H                     0.206231
     26 C                    -0.051509
     27 S                     0.124008
     28 C                    -0.217819
     29 C                    -0.128785
     30 C                    -0.001443
     31 C                     0.390709
     32 C                    -0.150135
     33 S                     0.046422
     34 C                     0.459817
     35 O                    -0.446896
     36 O                    -0.297643
     37 F                    -0.210429
     38 C                    -0.054923
     39 H                     0.116755
     40 H                     0.084900
     41 H                     0.084880
     42 H                     0.216448
  ----------------------------------------
  Sum of atomic charges =     0.000000

                    Cartesian Multipole Moments
 -----------------------------------------------------------------
    Charge (ESU x 10^10)
                -0.0000
    Dipole Moment (Debye)
         X       2.1093      Y       1.9003      Z       3.3697
       Tot       4.4062
    Quadrupole Moments (Debye-Ang)
        XX    -172.7787     XY       6.5322     YY    -163.8807
        XZ      -8.4988     YZ     -10.8267     ZZ    -205.3307

 Total job time:  358.70s(wall), 12157.18s(cpu)
        *  Thank you very much for using Q-Chem.  Have a nice day.  *
