 Q-Chem 5.4, Q-Chem, Inc., Pleasanton, CA (2021)
 Q-Chem 5.4.0 for Intel X86 EM64T Linux

User input:
--------------------------------------------------------------
$molecule
0 1
C	0.272104	-8.519741	0.000687
C	-0.779533	-7.635967	0.194476
S	1.799596	-7.651740	-0.287581
C	-0.399427	-6.261894	0.125787
H	-1.812314	-7.954738	0.383826
C	1.006762	-6.079985	-0.121989
C	1.564994	-4.798382	-0.247488
C	-1.284087	-5.153542	0.258303
C	-0.726260	-3.869626	0.128493
C	0.681918	-3.688927	-0.116725
O	-2.580622	-5.481075	0.517104
O	2.867144	-4.479871	-0.508622
C	3.900814	-5.356026	-0.075811
H	4.847002	-4.790496	-0.173640
H	3.971794	-6.268513	-0.707354
H	3.763397	-5.658187	0.984963
C	-3.621225	-4.546999	0.257016
H	-4.569828	-5.107564	0.357864
H	-3.551910	-4.131473	-0.771211
H	-3.626592	-3.712085	0.990913
C	1.058088	-2.314326	-0.187034
S	-1.523035	-2.295487	0.281899
C	0.000000	-1.435180	0.000000
H	2.090565	-1.993211	-0.373653
H	0.266226	-9.615985	-0.000773
C	0.000000	0.000000	0.000000
S	0.080615	0.895811	1.510732
C	0.216842	2.465231	0.727629
C	0.079127	0.904769	-1.064665
C	0.198659	2.288406	-0.678287
C	0.074988	0.838492	-2.486150
C	0.185097	2.098524	-3.106916
S	0.290501	3.341568	-1.965735
C	0.211932	2.351623	-4.559972
O	0.133545	1.421416	-5.350277
O	0.326994	3.629649	-5.004375
F	-0.018214	-0.271734	-3.246290
C	0.368367	3.986101	-6.334976
H	0.465270	5.086806	-6.370268
H	-0.553140	3.675878	-6.875609
H	1.229874	3.519263	-6.861878
H	0.297091	3.381746	1.321510
$end

$rem
JOBTYPE		SP
EXCHANGE	HF
CORRELATION	pRIMP2
BASIS		cc-pvtz
METHOD		rimp2
AUX_BASIS	rimp2-cc-pvtz
SOLVENT_METHOD	PCM
PURECART	11111
SYMMETRY	false
MEM_TOTAL	110000
SCF_CONVERGENCE = 6
THRESH=10
GUI = 2
$end

$solvent
dielectric 4.90
$end
--------------------------------------------------------------

             Standard Nuclear Orientation (Angstroms)
    I     Atom           X                Y                Z
 ----------------------------------------------------------------
    1      C       0.2721040000    -8.5197410000     0.0006870000
    2      C      -0.7795330000    -7.6359670000     0.1944760000
    3      S       1.7995960000    -7.6517400000    -0.2875810000
    4      C      -0.3994270000    -6.2618940000     0.1257870000
    5      H      -1.8123140000    -7.9547380000     0.3838260000
    6      C       1.0067620000    -6.0799850000    -0.1219890000
    7      C       1.5649940000    -4.7983820000    -0.2474880000
    8      C      -1.2840870000    -5.1535420000     0.2583030000
    9      C      -0.7262600000    -3.8696260000     0.1284930000
   10      C       0.6819180000    -3.6889270000    -0.1167250000
   11      O      -2.5806220000    -5.4810750000     0.5171040000
   12      O       2.8671440000    -4.4798710000    -0.5086220000
   13      C       3.9008140000    -5.3560260000    -0.0758110000
   14      H       4.8470020000    -4.7904960000    -0.1736400000
   15      H       3.9717940000    -6.2685130000    -0.7073540000
   16      H       3.7633970000    -5.6581870000     0.9849630000
   17      C      -3.6212250000    -4.5469990000     0.2570160000
   18      H      -4.5698280000    -5.1075640000     0.3578640000
   19      H      -3.5519100000    -4.1314730000    -0.7712110000
   20      H      -3.6265920000    -3.7120850000     0.9909130000
   21      C       1.0580880000    -2.3143260000    -0.1870340000
   22      S      -1.5230350000    -2.2954870000     0.2818990000
   23      C       0.0000000000    -1.4351800000     0.0000000000
   24      H       2.0905650000    -1.9932110000    -0.3736530000
   25      H       0.2662260000    -9.6159850000    -0.0007730000
   26      C       0.0000000000     0.0000000000     0.0000000000
   27      S       0.0806150000     0.8958110000     1.5107320000
   28      C       0.2168420000     2.4652310000     0.7276290000
   29      C       0.0791270000     0.9047690000    -1.0646650000
   30      C       0.1986590000     2.2884060000    -0.6782870000
   31      C       0.0749880000     0.8384920000    -2.4861500000
   32      C       0.1850970000     2.0985240000    -3.1069160000
   33      S       0.2905010000     3.3415680000    -1.9657350000
   34      C       0.2119320000     2.3516230000    -4.5599720000
   35      O       0.1335450000     1.4214160000    -5.3502770000
   36      O       0.3269940000     3.6296490000    -5.0043750000
   37      F      -0.0182140000    -0.2717340000    -3.2462900000
   38      C       0.3683670000     3.9861010000    -6.3349760000
   39      H       0.4652700000     5.0868060000    -6.3702680000
   40      H      -0.5531400000     3.6758780000    -6.8756090000
   41      H       1.2298740000     3.5192630000    -6.8618780000
   42      H       0.2970910000     3.3817460000     1.3215100000
 ----------------------------------------------------------------

   10   -2754.2946415144      8.75e-07  Convergence criterion met
 Total energy in the final basis set =    -2754.2946415144
        RIMP2         total energy =     -2759.3468805927 a.u.

                    Orbital Energies (a.u.)
 --------------------------------------------------------------

 Alpha MOs
 -- Occupied --
-92.0160 -91.9942 -91.9899 -91.9866 -26.3336 -20.6119 -20.5924 -20.5919
-20.5499 -11.4101 -11.3770 -11.3193 -11.3190 -11.3093 -11.2970 -11.2958
-11.2935 -11.2932 -11.2883 -11.2870 -11.2868 -11.2863 -11.2842 -11.2827
-11.2804 -11.2612 -11.2598 -11.2598 -11.2502  -9.0141  -8.9982  -8.9902
 -8.9866  -6.6948  -6.6942  -6.6938  -6.6795  -6.6788  -6.6775  -6.6711
 -6.6704  -6.6695  -6.6675  -6.6669  -6.6661  -1.6464  -1.4716  -1.4166
 -1.4147  -1.3669  -1.2328  -1.1962  -1.1682  -1.1415  -1.0840  -1.0523
 -1.0471  -1.0273  -1.0025  -0.9933  -0.9710  -0.9615  -0.9505  -0.9383
 -0.8960  -0.8688  -0.8508  -0.8043  -0.7909  -0.7882  -0.7735  -0.7691
 -0.7584  -0.7329  -0.7179  -0.7147  -0.7016  -0.6886  -0.6833  -0.6783
 -0.6707  -0.6606  -0.6589  -0.6528  -0.6309  -0.6203  -0.6171  -0.6062
 -0.6017  -0.5941  -0.5827  -0.5776  -0.5711  -0.5658  -0.5541  -0.5511
 -0.5350  -0.5262  -0.5245  -0.5164  -0.5142  -0.5074  -0.5013  -0.4946
 -0.4907  -0.4838  -0.4763  -0.4684  -0.4616  -0.4610  -0.4605  -0.4068
 -0.3998  -0.3877  -0.3583  -0.3480  -0.3151  -0.2891  -0.2593

          Ground-State Mulliken Net Atomic Charges

     Atom                 Charge (a.u.)
  ----------------------------------------
      1 C                    -0.186980
      2 C                    -0.254284
      3 S                    -0.021211
      4 C                    -0.012966
      5 H                     0.196549
      6 C                    -0.028101
      7 C                     0.245523
      8 C                     0.239789
      9 C                    -0.050753
     10 C                    -0.030845
     11 O                    -0.333310
     12 O                    -0.339525
     13 C                    -0.085727
     14 H                     0.122800
     15 H                     0.091355
     16 H                     0.093908
     17 C                    -0.086542
     18 H                     0.124669
     19 H                     0.095554
     20 H                     0.089399
     21 C                    -0.206719
     22 S                     0.002913
     23 C                    -0.039288
     24 H                     0.197351
     25 H                     0.206679
     26 C                    -0.037797
     27 S                     0.119094
     28 C                    -0.239182
     29 C                    -0.090194
     30 C                    -0.006932
     31 C                     0.399382
     32 C                    -0.158737
     33 S                     0.036711
     34 C                     0.460899
     35 O                    -0.450131
     36 O                    -0.297772
     37 F                    -0.211158
     38 C                    -0.055079
     39 H                     0.116513
     40 H                     0.084613
     41 H                     0.084505
     42 H                     0.215025
  ----------------------------------------
  Sum of atomic charges =     0.000000

                    Cartesian Multipole Moments
 -----------------------------------------------------------------
    Charge (ESU x 10^10)
                -0.0000
    Dipole Moment (Debye)
         X       0.3401      Y       1.4526      Z       3.5177
       Tot       3.8210
    Quadrupole Moments (Debye-Ang)
        XX    -176.3378     XY       0.6092     YY    -158.2141
        XZ       0.4947     YZ     -11.9820     ZZ    -206.6104

 Total job time:  295.10s(wall), 10246.27s(cpu)
        *  Thank you very much for using Q-Chem.  Have a nice day.  *
