 Q-Chem 5.4, Q-Chem, Inc., Pleasanton, CA (2021)
 Q-Chem 5.4.0 for Intel X86 EM64T Linux

User input:
--------------------------------------------------------------
$molecule
0 1
C	-0.135457	-8.519741	-0.235993
C	0.558188	-7.635967	0.577858
S	-1.148850	-7.651740	-1.414705
C	0.308648	-6.261894	0.283020
H	1.238560	-7.954738	1.377597
C	-0.609026	-6.079985	-0.810887
C	-0.996828	-4.798382	-1.231581
C	0.865740	-5.153542	0.982901
C	0.474408	-3.869626	0.564713
C	-0.442046	-3.688927	-0.532196
O	1.738137	-5.481075	1.976332
O	-1.874052	-4.479871	-2.228709
C	-2.016062	-5.356026	-3.340298
H	-2.573877	-4.790496	-4.110807
H	-2.598484	-6.268513	-3.085998
H	-1.028695	-5.658187	-3.751679
C	2.033195	-4.546999	3.007565
H	2.594833	-5.107564	3.778655
H	1.108067	-4.131473	3.461650
H	2.671451	-3.712085	2.645264
C	-0.691020	-2.314326	-0.822814
S	1.005649	-2.295487	1.178037
C	0.000000	-1.435180	0.000000
H	-1.368875	-1.993211	-1.623656
H	-0.133782	-9.615985	-0.230172
C	0.000000	0.000000	0.000000
S	0.002233	0.899428	1.510732
C	0.001157	2.474749	0.727629
C	-0.000030	0.908223	-1.064665
C	-0.001545	2.297013	-0.678287
C	0.001624	0.841837	-2.486150
C	0.001494	2.106670	-3.106916
S	-0.001841	3.354171	-1.965735
C	0.006168	2.361146	-4.559972
O	0.009152	1.427646	-5.350277
O	0.009405	3.644337	-5.004375
F	0.005539	-0.272288	-3.246290
C	0.019554	4.003038	-6.334976
H	0.020155	5.108000	-6.370268
H	-0.871409	3.613681	-6.875609
H	0.918470	3.613062	-6.861878
H	0.001222	3.394771	1.321510
$end

$rem
JOBTYPE		SP
EXCHANGE	HF
CORRELATION	pRIMP2
BASIS		cc-pvtz
METHOD		rimp2
AUX_BASIS	rimp2-cc-pvtz
SOLVENT_METHOD	PCM
PURECART	11111
SYMMETRY	false
MEM_TOTAL	110000
SCF_CONVERGENCE = 6
THRESH=10
GUI = 2
$end

$solvent
dielectric 4.90
$end
--------------------------------------------------------------

             Standard Nuclear Orientation (Angstroms)
    I     Atom           X                Y                Z
 ----------------------------------------------------------------
    1      C      -0.1354570000    -8.5197410000    -0.2359930000
    2      C       0.5581880000    -7.6359670000     0.5778580000
    3      S      -1.1488500000    -7.6517400000    -1.4147050000
    4      C       0.3086480000    -6.2618940000     0.2830200000
    5      H       1.2385600000    -7.9547380000     1.3775970000
    6      C      -0.6090260000    -6.0799850000    -0.8108870000
    7      C      -0.9968280000    -4.7983820000    -1.2315810000
    8      C       0.8657400000    -5.1535420000     0.9829010000
    9      C       0.4744080000    -3.8696260000     0.5647130000
   10      C      -0.4420460000    -3.6889270000    -0.5321960000
   11      O       1.7381370000    -5.4810750000     1.9763320000
   12      O      -1.8740520000    -4.4798710000    -2.2287090000
   13      C      -2.0160620000    -5.3560260000    -3.3402980000
   14      H      -2.5738770000    -4.7904960000    -4.1108070000
   15      H      -2.5984840000    -6.2685130000    -3.0859980000
   16      H      -1.0286950000    -5.6581870000    -3.7516790000
   17      C       2.0331950000    -4.5469990000     3.0075650000
   18      H       2.5948330000    -5.1075640000     3.7786550000
   19      H       1.1080670000    -4.1314730000     3.4616500000
   20      H       2.6714510000    -3.7120850000     2.6452640000
   21      C      -0.6910200000    -2.3143260000    -0.8228140000
   22      S       1.0056490000    -2.2954870000     1.1780370000
   23      C       0.0000000000    -1.4351800000     0.0000000000
   24      H      -1.3688750000    -1.9932110000    -1.6236560000
   25      H      -0.1337820000    -9.6159850000    -0.2301720000
   26      C       0.0000000000     0.0000000000     0.0000000000
   27      S       0.0022330000     0.8994280000     1.5107320000
   28      C       0.0011570000     2.4747490000     0.7276290000
   29      C      -0.0000300000     0.9082230000    -1.0646650000
   30      C      -0.0015450000     2.2970130000    -0.6782870000
   31      C       0.0016240000     0.8418370000    -2.4861500000
   32      C       0.0014940000     2.1066700000    -3.1069160000
   33      S      -0.0018410000     3.3541710000    -1.9657350000
   34      C       0.0061680000     2.3611460000    -4.5599720000
   35      O       0.0091520000     1.4276460000    -5.3502770000
   36      O       0.0094050000     3.6443370000    -5.0043750000
   37      F       0.0055390000    -0.2722880000    -3.2462900000
   38      C       0.0195540000     4.0030380000    -6.3349760000
   39      H       0.0201550000     5.1080000000    -6.3702680000
   40      H      -0.8714090000     3.6136810000    -6.8756090000
   41      H       0.9184700000     3.6130620000    -6.8618780000
   42      H       0.0012220000     3.3947710000     1.3215100000
 ----------------------------------------------------------------

   10   -2754.2987697068      7.81e-07  Convergence criterion met
 Total energy in the final basis set =    -2754.2987697068
        RIMP2         total energy =     -2759.3519020111 a.u.

                    Orbital Energies (a.u.)
 --------------------------------------------------------------

 Alpha MOs
 -- Occupied --
-92.0160 -91.9943 -91.9918 -91.9870 -26.3347 -20.6117 -20.5931 -20.5917
-20.5494 -11.4098 -11.3777 -11.3201 -11.3193 -11.3132 -11.2968 -11.2960
-11.2957 -11.2922 -11.2883 -11.2879 -11.2878 -11.2856 -11.2847 -11.2814
-11.2807 -11.2623 -11.2603 -11.2595 -11.2504  -9.0144  -8.9984  -8.9922
 -8.9869  -6.6951  -6.6946  -6.6941  -6.6796  -6.6790  -6.6776  -6.6732
 -6.6725  -6.6715  -6.6678  -6.6672  -6.6664  -1.6478  -1.4714  -1.4172
 -1.4145  -1.3667  -1.2332  -1.1972  -1.1693  -1.1421  -1.0848  -1.0530
 -1.0476  -1.0276  -1.0035  -0.9939  -0.9717  -0.9616  -0.9509  -0.9385
 -0.8969  -0.8691  -0.8516  -0.8042  -0.7939  -0.7884  -0.7727  -0.7698
 -0.7583  -0.7332  -0.7189  -0.7159  -0.7020  -0.6888  -0.6837  -0.6782
 -0.6712  -0.6615  -0.6597  -0.6528  -0.6302  -0.6204  -0.6169  -0.6061
 -0.6015  -0.5938  -0.5865  -0.5778  -0.5688  -0.5609  -0.5553  -0.5508
 -0.5373  -0.5263  -0.5231  -0.5180  -0.5170  -0.5089  -0.5037  -0.4953
 -0.4877  -0.4840  -0.4790  -0.4698  -0.4621  -0.4611  -0.4601  -0.4177
 -0.3980  -0.3870  -0.3590  -0.3502  -0.3230  -0.2860  -0.2518

          Ground-State Mulliken Net Atomic Charges

     Atom                 Charge (a.u.)
  ----------------------------------------
      1 C                    -0.186452
      2 C                    -0.254665
      3 S                    -0.020030
      4 C                    -0.012772
      5 H                     0.196552
      6 C                    -0.028167
      7 C                     0.246651
      8 C                     0.240019
      9 C                    -0.044409
     10 C                    -0.032675
     11 O                    -0.332987
     12 O                    -0.339183
     13 C                    -0.085772
     14 H                     0.123614
     15 H                     0.090895
     16 H                     0.094580
     17 C                    -0.087467
     18 H                     0.125437
     19 H                     0.094619
     20 H                     0.089960
     21 C                    -0.209396
     22 S                    -0.016908
     23 C                    -0.020737
     24 H                     0.195820
     25 H                     0.206815
     26 C                    -0.024624
     27 S                     0.102175
     28 C                    -0.243987
     29 C                    -0.079909
     30 C                    -0.009964
     31 C                     0.391251
     32 C                    -0.147976
     33 S                     0.035731
     34 C                     0.460867
     35 O                    -0.451912
     36 O                    -0.298036
     37 F                    -0.213009
     38 C                    -0.055042
     39 H                     0.116566
     40 H                     0.084349
     41 H                     0.084420
     42 H                     0.215759
  ----------------------------------------
  Sum of atomic charges =     0.000000

                    Cartesian Multipole Moments
 -----------------------------------------------------------------
    Charge (ESU x 10^10)
                 0.0000
    Dipole Moment (Debye)
         X       0.1837      Y       1.1852      Z       3.1261
       Tot       3.3483
    Quadrupole Moments (Debye-Ang)
        XX    -196.7172     XY      -0.7049     YY    -157.0302
        XZ      10.2926     YZ      -9.0117     ZZ    -186.6444

 Total job time:  283.34s(wall), 9281.71s(cpu)
        *  Thank you very much for using Q-Chem.  Have a nice day.  *
