 Q-Chem 5.4, Q-Chem, Inc., Pleasanton, CA (2021)
 Q-Chem 5.4.0 for Intel X86 EM64T Linux

User input:
--------------------------------------------------------------
$molecule
0 1
C	0.092419	-8.519741	0.255929
C	-0.449364	-7.635967	-0.666007
S	0.885736	-7.651740	1.592708
C	-0.254813	-6.261894	-0.332317
H	-0.980526	-7.954738	-1.571741
C	0.458965	-6.079985	0.904324
C	0.767823	-4.798382	1.385968
C	-0.681909	-5.153542	-1.118303
C	-0.369139	-3.869626	-0.638514
C	0.342916	-3.688927	0.600871
O	-1.368544	-5.481075	-2.248132
O	1.458570	-4.479871	2.520275
C	1.405396	-5.356026	3.639637
H	1.820940	-4.790496	4.495304
H	2.023129	-6.268513	3.490336
H	0.361595	-5.658187	3.873314
C	-1.480048	-4.546999	-3.314934
H	-1.899255	-5.107564	-4.171837
H	-0.490123	-4.131473	-3.601473
H	-2.171521	-3.712085	-3.068969
C	0.537642	-2.314326	0.930308
S	-0.785807	-2.295487	-1.334769
C	0.000000	-1.435180	0.000000
H	1.066134	-1.993211	1.836691
H	0.091781	-9.615985	0.249906
C	0.000000	0.000000	0.000000
S	0.002233	0.899428	1.510732
C	0.001157	2.474749	0.727629
C	-0.000030	0.908223	-1.064665
C	-0.001545	2.297013	-0.678287
C	0.001624	0.841837	-2.486150
C	0.001494	2.106670	-3.106916
S	-0.001841	3.354171	-1.965735
C	0.006168	2.361146	-4.559972
O	0.009152	1.427646	-5.350277
O	0.009405	3.644337	-5.004375
F	0.005539	-0.272288	-3.246290
C	0.019554	4.003038	-6.334976
H	0.020155	5.108000	-6.370268
H	-0.871409	3.613681	-6.875609
H	0.918470	3.613062	-6.861878
H	0.001222	3.394771	1.321510
$end

$rem
JOBTYPE		SP
EXCHANGE	HF
CORRELATION	pRIMP2
BASIS		cc-pvtz
METHOD		rimp2
AUX_BASIS	rimp2-cc-pvtz
SOLVENT_METHOD	PCM
PURECART	11111
SYMMETRY	false
MEM_TOTAL	110000
SCF_CONVERGENCE = 6
THRESH=10
GUI = 2
$end

$solvent
dielectric 4.90
$end
--------------------------------------------------------------

             Standard Nuclear Orientation (Angstroms)
    I     Atom           X                Y                Z
 ----------------------------------------------------------------
    1      C       0.0924190000    -8.5197410000     0.2559290000
    2      C      -0.4493640000    -7.6359670000    -0.6660070000
    3      S       0.8857360000    -7.6517400000     1.5927080000
    4      C      -0.2548130000    -6.2618940000    -0.3323170000
    5      H      -0.9805260000    -7.9547380000    -1.5717410000
    6      C       0.4589650000    -6.0799850000     0.9043240000
    7      C       0.7678230000    -4.7983820000     1.3859680000
    8      C      -0.6819090000    -5.1535420000    -1.1183030000
    9      C      -0.3691390000    -3.8696260000    -0.6385140000
   10      C       0.3429160000    -3.6889270000     0.6008710000
   11      O      -1.3685440000    -5.4810750000    -2.2481320000
   12      O       1.4585700000    -4.4798710000     2.5202750000
   13      C       1.4053960000    -5.3560260000     3.6396370000
   14      H       1.8209400000    -4.7904960000     4.4953040000
   15      H       2.0231290000    -6.2685130000     3.4903360000
   16      H       0.3615950000    -5.6581870000     3.8733140000
   17      C      -1.4800480000    -4.5469990000    -3.3149340000
   18      H      -1.8992550000    -5.1075640000    -4.1718370000
   19      H      -0.4901230000    -4.1314730000    -3.6014730000
   20      H      -2.1715210000    -3.7120850000    -3.0689690000
   21      C       0.5376420000    -2.3143260000     0.9303080000
   22      S      -0.7858070000    -2.2954870000    -1.3347690000
   23      C       0.0000000000    -1.4351800000     0.0000000000
   24      H       1.0661340000    -1.9932110000     1.8366910000
   25      H       0.0917810000    -9.6159850000     0.2499060000
   26      C       0.0000000000     0.0000000000     0.0000000000
   27      S       0.0022330000     0.8994280000     1.5107320000
   28      C       0.0011570000     2.4747490000     0.7276290000
   29      C      -0.0000300000     0.9082230000    -1.0646650000
   30      C      -0.0015450000     2.2970130000    -0.6782870000
   31      C       0.0016240000     0.8418370000    -2.4861500000
   32      C       0.0014940000     2.1066700000    -3.1069160000
   33      S      -0.0018410000     3.3541710000    -1.9657350000
   34      C       0.0061680000     2.3611460000    -4.5599720000
   35      O       0.0091520000     1.4276460000    -5.3502770000
   36      O       0.0094050000     3.6443370000    -5.0043750000
   37      F       0.0055390000    -0.2722880000    -3.2462900000
   38      C       0.0195540000     4.0030380000    -6.3349760000
   39      H       0.0201550000     5.1080000000    -6.3702680000
   40      H      -0.8714090000     3.6136810000    -6.8756090000
   41      H       0.9184700000     3.6130620000    -6.8618780000
   42      H       0.0012220000     3.3947710000     1.3215100000
 ----------------------------------------------------------------

   10   -2754.2960365538      8.14e-07  Convergence criterion met
 Total energy in the final basis set =    -2754.2960365538
        RIMP2         total energy =     -2759.3509668324 a.u.

                    Orbital Energies (a.u.)
 --------------------------------------------------------------

 Alpha MOs
 -- Occupied --
-92.0156 -91.9945 -91.9876 -91.9866 -26.3343 -20.6119 -20.5923 -20.5917
-20.5495 -11.4100 -11.3781 -11.3189 -11.3188 -11.3138 -11.2970 -11.2969
-11.2963 -11.2923 -11.2884 -11.2867 -11.2864 -11.2859 -11.2841 -11.2818
-11.2803 -11.2618 -11.2596 -11.2595 -11.2501  -9.0139  -8.9986  -8.9883
 -8.9865  -6.6946  -6.6941  -6.6936  -6.6798  -6.6792  -6.6778  -6.6692
 -6.6685  -6.6675  -6.6675  -6.6669  -6.6660  -1.6487  -1.4716  -1.4160
 -1.4148  -1.3668  -1.2337  -1.1965  -1.1690  -1.1419  -1.0848  -1.0524
 -1.0477  -1.0282  -1.0026  -0.9938  -0.9719  -0.9610  -0.9502  -0.9383
 -0.8961  -0.8692  -0.8519  -0.8088  -0.7933  -0.7872  -0.7750  -0.7643
 -0.7585  -0.7328  -0.7193  -0.7165  -0.7008  -0.6884  -0.6839  -0.6784
 -0.6722  -0.6617  -0.6588  -0.6527  -0.6294  -0.6200  -0.6166  -0.6063
 -0.6015  -0.5945  -0.5875  -0.5733  -0.5690  -0.5675  -0.5577  -0.5522
 -0.5310  -0.5271  -0.5222  -0.5187  -0.5149  -0.5091  -0.5017  -0.4949
 -0.4872  -0.4827  -0.4806  -0.4668  -0.4616  -0.4607  -0.4602  -0.4204
 -0.3959  -0.3869  -0.3594  -0.3502  -0.3235  -0.2846  -0.2495

          Ground-State Mulliken Net Atomic Charges

     Atom                 Charge (a.u.)
  ----------------------------------------
      1 C                    -0.187099
      2 C                    -0.254085
      3 S                    -0.022567
      4 C                    -0.012492
      5 H                     0.196719
      6 C                    -0.030068
      7 C                     0.245577
      8 C                     0.239093
      9 C                    -0.044837
     10 C                    -0.024634
     11 O                    -0.333671
     12 O                    -0.340187
     13 C                    -0.085641
     14 H                     0.122554
     15 H                     0.091356
     16 H                     0.094195
     17 C                    -0.087964
     18 H                     0.124991
     19 H                     0.096211
     20 H                     0.089518
     21 C                    -0.249692
     22 S                    -0.005171
     23 C                     0.011354
     24 H                     0.192811
     25 H                     0.206674
     26 C                     0.002769
     27 S                     0.102128
     28 C                    -0.240883
     29 C                    -0.105797
     30 C                    -0.014073
     31 C                     0.384312
     32 C                    -0.144887
     33 S                     0.035708
     34 C                     0.460759
     35 O                    -0.451849
     36 O                    -0.297993
     37 F                    -0.208978
     38 C                    -0.055041
     39 H                     0.116631
     40 H                     0.084345
     41 H                     0.084418
     42 H                     0.215488
  ----------------------------------------
  Sum of atomic charges =     0.000000

                    Cartesian Multipole Moments
 -----------------------------------------------------------------
    Charge (ESU x 10^10)
                -0.0000
    Dipole Moment (Debye)
         X      -0.2587      Y       1.4219      Z       3.1794
       Tot       3.4924
    Quadrupole Moments (Debye-Ang)
        XX    -199.9083     XY       1.1916     YY    -158.7148
        XZ       7.0267     YZ     -11.2848     ZZ    -183.2162

 Total job time:  287.36s(wall), 9222.90s(cpu)
        *  Thank you very much for using Q-Chem.  Have a nice day.  *
