 Q-Chem 5.4, Q-Chem, Inc., Pleasanton, CA (2021)
 Q-Chem 5.4.0 for Intel X86 EM64T Linux

User input:
--------------------------------------------------------------
$molecule
0 1
C	-0.208002	-8.519741	-0.175432
C	0.722164	-7.635967	0.352097
S	-1.563424	-7.651740	-0.936458
C	0.386833	-6.261894	0.160388
H	1.635031	-7.954738	0.870905
C	-0.849637	-6.079985	-0.553685
C	-1.357938	-4.798382	-0.816372
C	1.149702	-5.153542	0.627524
C	0.638941	-3.869626	0.368399
C	-0.597409	-3.688927	-0.348912
O	2.309260	-5.481075	1.262667
O	-2.523296	-4.479871	-1.453338
C	-3.036927	-5.356026	-2.449320
H	-3.824632	-4.790496	-2.982577
H	-3.497250	-6.268513	-2.011155
H	-2.249807	-5.658187	-3.173591
C	2.939226	-4.546999	2.130793
H	3.730721	-5.107564	2.663289
H	2.225196	-4.131473	2.873906
H	3.415077	-3.712085	1.572045
C	-0.930765	-2.314326	-0.536849
S	1.347913	-2.295487	0.763041
C	-0.000000	-1.435180	-0.000000
H	-1.841645	-1.993211	-1.057554
H	-0.204438	-9.615985	-0.170535
C	0.000000	0.000000	0.000000
S	0.158383	0.885376	1.510732
C	0.430876	2.436951	0.727629
C	0.157682	0.894430	-1.064665
C	0.397351	2.262384	-0.678287
C	0.147783	0.828765	-2.486150
C	0.367291	2.074406	-3.106916
S	0.580633	3.303533	-1.965735
C	0.416083	2.324204	-4.559972
O	0.256921	1.404367	-5.350277
O	0.642094	3.587338	-5.004375
F	-0.041828	-0.269113	-3.246290
C	0.714377	3.938827	-6.334976
H	0.906844	5.026898	-6.370268
H	-0.230661	3.710099	-6.875609
H	1.531918	3.398681	-6.861878
H	0.590699	3.342984	1.321510
$end

$rem
JOBTYPE		SP
EXCHANGE	HF
CORRELATION	pRIMP2
BASIS		cc-pvtz
METHOD		rimp2
AUX_BASIS	rimp2-cc-pvtz
SOLVENT_METHOD	PCM
PURECART	11111
SYMMETRY	false
MEM_TOTAL	110000
SCF_CONVERGENCE = 6
THRESH=10
GUI = 2
$end

$solvent
dielectric 4.90
$end
--------------------------------------------------------------

             Standard Nuclear Orientation (Angstroms)
    I     Atom           X                Y                Z
 ----------------------------------------------------------------
    1      C      -0.2080020000    -8.5197410000    -0.1754320000
    2      C       0.7221640000    -7.6359670000     0.3520970000
    3      S      -1.5634240000    -7.6517400000    -0.9364580000
    4      C       0.3868330000    -6.2618940000     0.1603880000
    5      H       1.6350310000    -7.9547380000     0.8709050000
    6      C      -0.8496370000    -6.0799850000    -0.5536850000
    7      C      -1.3579380000    -4.7983820000    -0.8163720000
    8      C       1.1497020000    -5.1535420000     0.6275240000
    9      C       0.6389410000    -3.8696260000     0.3683990000
   10      C      -0.5974090000    -3.6889270000    -0.3489120000
   11      O       2.3092600000    -5.4810750000     1.2626670000
   12      O      -2.5232960000    -4.4798710000    -1.4533380000
   13      C      -3.0369270000    -5.3560260000    -2.4493200000
   14      H      -3.8246320000    -4.7904960000    -2.9825770000
   15      H      -3.4972500000    -6.2685130000    -2.0111550000
   16      H      -2.2498070000    -5.6581870000    -3.1735910000
   17      C       2.9392260000    -4.5469990000     2.1307930000
   18      H       3.7307210000    -5.1075640000     2.6632890000
   19      H       2.2251960000    -4.1314730000     2.8739060000
   20      H       3.4150770000    -3.7120850000     1.5720450000
   21      C      -0.9307650000    -2.3143260000    -0.5368490000
   22      S       1.3479130000    -2.2954870000     0.7630410000
   23      C       0.0000000000    -1.4351800000     0.0000000000
   24      H      -1.8416450000    -1.9932110000    -1.0575540000
   25      H      -0.2044380000    -9.6159850000    -0.1705350000
   26      C       0.0000000000     0.0000000000     0.0000000000
   27      S       0.1583830000     0.8853760000     1.5107320000
   28      C       0.4308760000     2.4369510000     0.7276290000
   29      C       0.1576820000     0.8944300000    -1.0646650000
   30      C       0.3973510000     2.2623840000    -0.6782870000
   31      C       0.1477830000     0.8287650000    -2.4861500000
   32      C       0.3672910000     2.0744060000    -3.1069160000
   33      S       0.5806330000     3.3035330000    -1.9657350000
   34      C       0.4160830000     2.3242040000    -4.5599720000
   35      O       0.2569210000     1.4043670000    -5.3502770000
   36      O       0.6420940000     3.5873380000    -5.0043750000
   37      F      -0.0418280000    -0.2691130000    -3.2462900000
   38      C       0.7143770000     3.9388270000    -6.3349760000
   39      H       0.9068440000     5.0268980000    -6.3702680000
   40      H      -0.2306610000     3.7100990000    -6.8756090000
   41      H       1.5319180000     3.3986810000    -6.8618780000
   42      H       0.5906990000     3.3429840000     1.3215100000
 ----------------------------------------------------------------

   10   -2754.2949685289      8.21e-07  Convergence criterion met
 Total energy in the final basis set =    -2754.2949685289
        RIMP2         total energy =     -2759.3480009898 a.u.

                    Orbital Energies (a.u.)
 --------------------------------------------------------------

 Alpha MOs
 -- Occupied --
-92.0159 -91.9944 -91.9912 -91.9866 -26.3339 -20.6119 -20.5927 -20.5915
-20.5498 -11.4101 -11.3772 -11.3196 -11.3187 -11.3103 -11.2969 -11.2963
-11.2939 -11.2936 -11.2884 -11.2875 -11.2869 -11.2857 -11.2843 -11.2827
-11.2803 -11.2612 -11.2597 -11.2585 -11.2502  -9.0142  -8.9984  -8.9915
 -8.9865  -6.6949  -6.6943  -6.6938  -6.6797  -6.6790  -6.6777  -6.6724
 -6.6717  -6.6708  -6.6675  -6.6669  -6.6660  -1.6467  -1.4716  -1.4168
 -1.4143  -1.3669  -1.2332  -1.1964  -1.1686  -1.1419  -1.0841  -1.0524
 -1.0474  -1.0275  -1.0028  -0.9934  -0.9714  -0.9614  -0.9506  -0.9382
 -0.8963  -0.8691  -0.8509  -0.8038  -0.7923  -0.7881  -0.7725  -0.7699
 -0.7582  -0.7328  -0.7182  -0.7150  -0.7016  -0.6888  -0.6832  -0.6783
 -0.6710  -0.6606  -0.6594  -0.6526  -0.6306  -0.6201  -0.6171  -0.6062
 -0.6018  -0.5943  -0.5851  -0.5784  -0.5679  -0.5624  -0.5558  -0.5497
 -0.5372  -0.5260  -0.5234  -0.5164  -0.5157  -0.5080  -0.5025  -0.4940
 -0.4897  -0.4838  -0.4765  -0.4701  -0.4619  -0.4611  -0.4608  -0.4121
 -0.3978  -0.3873  -0.3581  -0.3494  -0.3184  -0.2877  -0.2559

          Ground-State Mulliken Net Atomic Charges

     Atom                 Charge (a.u.)
  ----------------------------------------
      1 C                    -0.186966
      2 C                    -0.254869
      3 S                    -0.021062
      4 C                    -0.012852
      5 H                     0.196429
      6 C                    -0.026780
      7 C                     0.245381
      8 C                     0.239688
      9 C                    -0.044570
     10 C                    -0.029038
     11 O                    -0.333024
     12 O                    -0.339796
     13 C                    -0.085611
     14 H                     0.122999
     15 H                     0.090759
     16 H                     0.094745
     17 C                    -0.086989
     18 H                     0.125073
     19 H                     0.094468
     20 H                     0.089972
     21 C                    -0.219560
     22 S                    -0.002915
     23 C                    -0.053402
     24 H                     0.196408
     25 H                     0.206655
     26 C                    -0.005803
     27 S                     0.110806
     28 C                    -0.236390
     29 C                    -0.079688
     30 C                    -0.006410
     31 C                     0.381251
     32 C                    -0.152800
     33 S                     0.037644
     34 C                     0.459484
     35 O                    -0.450404
     36 O                    -0.297851
     37 F                    -0.210774
     38 C                    -0.054942
     39 H                     0.116524
     40 H                     0.084436
     41 H                     0.084516
     42 H                     0.215260
  ----------------------------------------
  Sum of atomic charges =     0.000000

                    Cartesian Multipole Moments
 -----------------------------------------------------------------
    Charge (ESU x 10^10)
                 0.0000
    Dipole Moment (Debye)
         X       0.7762      Y       1.4028      Z       3.0594
       Tot       3.4540
    Quadrupole Moments (Debye-Ang)
        XX    -187.8623     XY       2.4169     YY    -158.4843
        XZ      10.8104     YZ      -8.8776     ZZ    -194.7553

 Total job time:  276.71s(wall), 9123.30s(cpu)
        *  Thank you very much for using Q-Chem.  Have a nice day.  *
