 Q-Chem 5.4, Q-Chem, Inc., Pleasanton, CA (2021)
 Q-Chem 5.4.0 for Intel X86 EM64T Linux

User input:
--------------------------------------------------------------
$molecule
0 1
C	-0.267851	-8.519741	-0.047927
C	0.801461	-7.635967	-0.056157
S	-1.822194	-7.651740	-0.029285
C	0.415201	-6.261894	-0.054516
H	1.851431	-7.954738	-0.063290
C	-1.012650	-6.079985	-0.054687
C	-1.584194	-4.798382	-0.028030
C	1.309433	-5.153542	-0.031399
C	0.737539	-3.869626	-0.000427
C	-0.691828	-3.688927	-0.003462
O	2.631211	-5.481075	-0.061128
O	-2.911907	-4.479871	0.003021
C	-3.854716	-5.356026	-0.602710
H	-4.803517	-4.790496	-0.670671
H	-4.034285	-6.268513	0.006913
H	-3.535185	-5.658187	-1.623507
C	3.610841	-4.546999	0.375708
H	4.562544	-5.107564	0.441115
H	3.364029	-4.131473	1.376277
H	3.743566	-3.712085	-0.346107
C	-1.074491	-2.314326	0.000458
S	1.548848	-2.295487	-0.013144
C	0.000000	-1.435180	0.000000
H	-2.123688	-1.993211	0.004953
H	-0.262315	-9.615985	-0.045468
C	0.000000	0.000000	0.000000
S	0.080615	0.895811	1.510732
C	0.216842	2.465231	0.727629
C	0.079127	0.904769	-1.064665
C	0.198659	2.288406	-0.678287
C	0.074988	0.838492	-2.486150
C	0.185097	2.098524	-3.106916
S	0.290501	3.341568	-1.965735
C	0.211932	2.351623	-4.559972
O	0.133545	1.421416	-5.350277
O	0.326994	3.629649	-5.004375
F	-0.018214	-0.271734	-3.246290
C	0.368367	3.986101	-6.334976
H	0.465270	5.086806	-6.370268
H	-0.553140	3.675878	-6.875609
H	1.229874	3.519263	-6.861878
H	0.297091	3.381746	1.321510
$end

$rem
JOBTYPE		SP
EXCHANGE	HF
CORRELATION	pRIMP2
BASIS		cc-pvtz
METHOD		rimp2
AUX_BASIS	rimp2-cc-pvtz
SOLVENT_METHOD	PCM
PURECART	11111
SYMMETRY	false
MEM_TOTAL	110000
SCF_CONVERGENCE = 6
THRESH=10
GUI = 2
$end

$solvent
dielectric 4.90
$end
--------------------------------------------------------------

             Standard Nuclear Orientation (Angstroms)
    I     Atom           X                Y                Z
 ----------------------------------------------------------------
    1      C      -0.2678510000    -8.5197410000    -0.0479270000
    2      C       0.8014610000    -7.6359670000    -0.0561570000
    3      S      -1.8221940000    -7.6517400000    -0.0292850000
    4      C       0.4152010000    -6.2618940000    -0.0545160000
    5      H       1.8514310000    -7.9547380000    -0.0632900000
    6      C      -1.0126500000    -6.0799850000    -0.0546870000
    7      C      -1.5841940000    -4.7983820000    -0.0280300000
    8      C       1.3094330000    -5.1535420000    -0.0313990000
    9      C       0.7375390000    -3.8696260000    -0.0004270000
   10      C      -0.6918280000    -3.6889270000    -0.0034620000
   11      O       2.6312110000    -5.4810750000    -0.0611280000
   12      O      -2.9119070000    -4.4798710000     0.0030210000
   13      C      -3.8547160000    -5.3560260000    -0.6027100000
   14      H      -4.8035170000    -4.7904960000    -0.6706710000
   15      H      -4.0342850000    -6.2685130000     0.0069130000
   16      H      -3.5351850000    -5.6581870000    -1.6235070000
   17      C       3.6108410000    -4.5469990000     0.3757080000
   18      H       4.5625440000    -5.1075640000     0.4411150000
   19      H       3.3640290000    -4.1314730000     1.3762770000
   20      H       3.7435660000    -3.7120850000    -0.3461070000
   21      C      -1.0744910000    -2.3143260000     0.0004580000
   22      S       1.5488480000    -2.2954870000    -0.0131440000
   23      C       0.0000000000    -1.4351800000     0.0000000000
   24      H      -2.1236880000    -1.9932110000     0.0049530000
   25      H      -0.2623150000    -9.6159850000    -0.0454680000
   26      C       0.0000000000     0.0000000000     0.0000000000
   27      S       0.0806150000     0.8958110000     1.5107320000
   28      C       0.2168420000     2.4652310000     0.7276290000
   29      C       0.0791270000     0.9047690000    -1.0646650000
   30      C       0.1986590000     2.2884060000    -0.6782870000
   31      C       0.0749880000     0.8384920000    -2.4861500000
   32      C       0.1850970000     2.0985240000    -3.1069160000
   33      S       0.2905010000     3.3415680000    -1.9657350000
   34      C       0.2119320000     2.3516230000    -4.5599720000
   35      O       0.1335450000     1.4214160000    -5.3502770000
   36      O       0.3269940000     3.6296490000    -5.0043750000
   37      F      -0.0182140000    -0.2717340000    -3.2462900000
   38      C       0.3683670000     3.9861010000    -6.3349760000
   39      H       0.4652700000     5.0868060000    -6.3702680000
   40      H      -0.5531400000     3.6758780000    -6.8756090000
   41      H       1.2298740000     3.5192630000    -6.8618780000
   42      H       0.2970910000     3.3817460000     1.3215100000
 ----------------------------------------------------------------

   10   -2754.2946538571      8.80e-07  Convergence criterion met
 Total energy in the final basis set =    -2754.2946538571
        RIMP2         total energy =     -2759.3467784663 a.u.

                    Orbital Energies (a.u.)
 --------------------------------------------------------------

 Alpha MOs
 -- Occupied --
-92.0160 -91.9942 -91.9900 -91.9867 -26.3337 -20.6119 -20.5924 -20.5919
-20.5499 -11.4102 -11.3770 -11.3193 -11.3191 -11.3092 -11.2971 -11.2958
-11.2933 -11.2928 -11.2883 -11.2872 -11.2869 -11.2862 -11.2842 -11.2826
-11.2805 -11.2610 -11.2599 -11.2597 -11.2502  -9.0142  -8.9982  -8.9903
 -8.9866  -6.6948  -6.6943  -6.6938  -6.6795  -6.6788  -6.6775  -6.6712
 -6.6705  -6.6696  -6.6676  -6.6670  -6.6661  -1.6465  -1.4717  -1.4166
 -1.4147  -1.3670  -1.2328  -1.1961  -1.1682  -1.1415  -1.0840  -1.0524
 -1.0471  -1.0273  -1.0026  -0.9932  -0.9710  -0.9615  -0.9506  -0.9382
 -0.8960  -0.8689  -0.8508  -0.8048  -0.7904  -0.7884  -0.7737  -0.7685
 -0.7585  -0.7329  -0.7178  -0.7148  -0.7015  -0.6886  -0.6833  -0.6783
 -0.6708  -0.6603  -0.6593  -0.6528  -0.6310  -0.6203  -0.6172  -0.6062
 -0.6019  -0.5941  -0.5825  -0.5796  -0.5674  -0.5653  -0.5562  -0.5513
 -0.5354  -0.5260  -0.5243  -0.5162  -0.5144  -0.5079  -0.5012  -0.4939
 -0.4912  -0.4837  -0.4762  -0.4685  -0.4617  -0.4611  -0.4605  -0.4051
 -0.4013  -0.3876  -0.3577  -0.3486  -0.3143  -0.2894  -0.2600

          Ground-State Mulliken Net Atomic Charges

     Atom                 Charge (a.u.)
  ----------------------------------------
      1 C                    -0.186614
      2 C                    -0.254685
      3 S                    -0.021519
      4 C                    -0.012197
      5 H                     0.196690
      6 C                    -0.028141
      7 C                     0.248465
      8 C                     0.239006
      9 C                    -0.045305
     10 C                    -0.033338
     11 O                    -0.332985
     12 O                    -0.339764
     13 C                    -0.085652
     14 H                     0.122776
     15 H                     0.090809
     16 H                     0.094759
     17 C                    -0.086385
     18 H                     0.124836
     19 H                     0.094144
     20 H                     0.090321
     21 C                    -0.212244
     22 S                     0.002399
     23 C                    -0.057788
     24 H                     0.196649
     25 H                     0.206707
     26 C                    -0.013009
     27 S                     0.120082
     28 C                    -0.240239
     29 C                    -0.093022
     30 C                    -0.004300
     31 C                     0.394428
     32 C                    -0.159587
     33 S                     0.037193
     34 C                     0.460806
     35 O                    -0.450122
     36 O                    -0.297759
     37 F                    -0.210786
     38 C                    -0.055063
     39 H                     0.116528
     40 H                     0.084577
     41 H                     0.084521
     42 H                     0.214807
  ----------------------------------------
  Sum of atomic charges =     0.000000

                    Cartesian Multipole Moments
 -----------------------------------------------------------------
    Charge (ESU x 10^10)
                -0.0000
    Dipole Moment (Debye)
         X       0.3478      Y       1.4356      Z       3.0256
       Tot       3.3669
    Quadrupole Moments (Debye-Ang)
        XX    -177.5802     XY       1.9826     YY    -158.0986
        XZ       4.6916     YZ      -9.1256     ZZ    -205.3280

 Total job time:  290.44s(wall), 9604.57s(cpu)
        *  Thank you very much for using Q-Chem.  Have a nice day.  *
