 Q-Chem 5.4, Q-Chem, Inc., Pleasanton, CA (2021)
 Q-Chem 5.4.0 for Intel X86 EM64T Linux

User input:
--------------------------------------------------------------
$molecule
0 1
C	0.208002	-8.519741	0.175432
C	-0.722164	-7.635967	-0.352097
S	1.563424	-7.651740	0.936458
C	-0.386833	-6.261894	-0.160388
H	-1.635031	-7.954738	-0.870905
C	0.849637	-6.079985	0.553685
C	1.357938	-4.798382	0.816372
C	-1.149702	-5.153542	-0.627524
C	-0.638941	-3.869626	-0.368399
C	0.597409	-3.688927	0.348912
O	-2.309260	-5.481075	-1.262667
O	2.523296	-4.479871	1.453338
C	3.036927	-5.356026	2.449320
H	3.824632	-4.790496	2.982577
H	3.497250	-6.268513	2.011155
H	2.249807	-5.658187	3.173591
C	-2.939226	-4.546999	-2.130793
H	-3.730721	-5.107564	-2.663289
H	-2.225196	-4.131473	-2.873906
H	-3.415077	-3.712085	-1.572045
C	0.930765	-2.314326	0.536849
S	-1.347913	-2.295487	-0.763041
C	0.000000	-1.435180	0.000000
H	1.841645	-1.993211	1.057554
H	0.204438	-9.615985	0.170535
C	0.000000	0.000000	0.000000
S	0.080615	0.895811	1.510732
C	0.216842	2.465231	0.727629
C	0.079127	0.904769	-1.064665
C	0.198659	2.288406	-0.678287
C	0.074988	0.838492	-2.486150
C	0.185097	2.098524	-3.106916
S	0.290501	3.341568	-1.965735
C	0.211932	2.351623	-4.559972
O	0.133545	1.421416	-5.350277
O	0.326994	3.629649	-5.004375
F	-0.018214	-0.271734	-3.246290
C	0.368367	3.986101	-6.334976
H	0.465270	5.086806	-6.370268
H	-0.553140	3.675878	-6.875609
H	1.229874	3.519263	-6.861878
H	0.297091	3.381746	1.321510
$end

$rem
JOBTYPE		SP
EXCHANGE	HF
CORRELATION	pRIMP2
BASIS		cc-pvtz
METHOD		rimp2
AUX_BASIS	rimp2-cc-pvtz
SOLVENT_METHOD	PCM
PURECART	11111
SYMMETRY	false
MEM_TOTAL	110000
SCF_CONVERGENCE = 6
THRESH=10
GUI = 2
$end

$solvent
dielectric 4.90
$end
--------------------------------------------------------------

             Standard Nuclear Orientation (Angstroms)
    I     Atom           X                Y                Z
 ----------------------------------------------------------------
    1      C       0.2080020000    -8.5197410000     0.1754320000
    2      C      -0.7221640000    -7.6359670000    -0.3520970000
    3      S       1.5634240000    -7.6517400000     0.9364580000
    4      C      -0.3868330000    -6.2618940000    -0.1603880000
    5      H      -1.6350310000    -7.9547380000    -0.8709050000
    6      C       0.8496370000    -6.0799850000     0.5536850000
    7      C       1.3579380000    -4.7983820000     0.8163720000
    8      C      -1.1497020000    -5.1535420000    -0.6275240000
    9      C      -0.6389410000    -3.8696260000    -0.3683990000
   10      C       0.5974090000    -3.6889270000     0.3489120000
   11      O      -2.3092600000    -5.4810750000    -1.2626670000
   12      O       2.5232960000    -4.4798710000     1.4533380000
   13      C       3.0369270000    -5.3560260000     2.4493200000
   14      H       3.8246320000    -4.7904960000     2.9825770000
   15      H       3.4972500000    -6.2685130000     2.0111550000
   16      H       2.2498070000    -5.6581870000     3.1735910000
   17      C      -2.9392260000    -4.5469990000    -2.1307930000
   18      H      -3.7307210000    -5.1075640000    -2.6632890000
   19      H      -2.2251960000    -4.1314730000    -2.8739060000
   20      H      -3.4150770000    -3.7120850000    -1.5720450000
   21      C       0.9307650000    -2.3143260000     0.5368490000
   22      S      -1.3479130000    -2.2954870000    -0.7630410000
   23      C       0.0000000000    -1.4351800000     0.0000000000
   24      H       1.8416450000    -1.9932110000     1.0575540000
   25      H       0.2044380000    -9.6159850000     0.1705350000
   26      C       0.0000000000     0.0000000000     0.0000000000
   27      S       0.0806150000     0.8958110000     1.5107320000
   28      C       0.2168420000     2.4652310000     0.7276290000
   29      C       0.0791270000     0.9047690000    -1.0646650000
   30      C       0.1986590000     2.2884060000    -0.6782870000
   31      C       0.0749880000     0.8384920000    -2.4861500000
   32      C       0.1850970000     2.0985240000    -3.1069160000
   33      S       0.2905010000     3.3415680000    -1.9657350000
   34      C       0.2119320000     2.3516230000    -4.5599720000
   35      O       0.1335450000     1.4214160000    -5.3502770000
   36      O       0.3269940000     3.6296490000    -5.0043750000
   37      F      -0.0182140000    -0.2717340000    -3.2462900000
   38      C       0.3683670000     3.9861010000    -6.3349760000
   39      H       0.4652700000     5.0868060000    -6.3702680000
   40      H      -0.5531400000     3.6758780000    -6.8756090000
   41      H       1.2298740000     3.5192630000    -6.8618780000
   42      H       0.2970910000     3.3817460000     1.3215100000
 ----------------------------------------------------------------

   10   -2754.2964109733      8.57e-07  Convergence criterion met
 Total energy in the final basis set =    -2754.2964109733
        RIMP2         total energy =     -2759.3493000628 a.u.

                    Orbital Energies (a.u.)
 --------------------------------------------------------------

 Alpha MOs
 -- Occupied --
-92.0168 -91.9944 -91.9895 -91.9867 -26.3338 -20.6118 -20.5922 -20.5921
-20.5496 -11.4100 -11.3773 -11.3193 -11.3190 -11.3110 -11.2966 -11.2964
-11.2950 -11.2927 -11.2883 -11.2868 -11.2866 -11.2864 -11.2843 -11.2822
-11.2804 -11.2615 -11.2599 -11.2598 -11.2502  -9.0148  -8.9984  -8.9899
 -8.9866  -6.6955  -6.6949  -6.6945  -6.6797  -6.6790  -6.6776  -6.6708
 -6.6701  -6.6692  -6.6676  -6.6670  -6.6661  -1.6469  -1.4715  -1.4164
 -1.4148  -1.3668  -1.2331  -1.1964  -1.1686  -1.1417  -1.0844  -1.0524
 -1.0473  -1.0276  -1.0026  -0.9935  -0.9712  -0.9614  -0.9504  -0.9385
 -0.8959  -0.8690  -0.8511  -0.8068  -0.7904  -0.7882  -0.7748  -0.7665
 -0.7586  -0.7329  -0.7180  -0.7151  -0.7011  -0.6883  -0.6835  -0.6783
 -0.6710  -0.6610  -0.6588  -0.6528  -0.6306  -0.6203  -0.6170  -0.6061
 -0.6015  -0.5942  -0.5847  -0.5759  -0.5705  -0.5674  -0.5559  -0.5518
 -0.5322  -0.5266  -0.5235  -0.5169  -0.5148  -0.5079  -0.5016  -0.4937
 -0.4901  -0.4838  -0.4784  -0.4677  -0.4616  -0.4607  -0.4605  -0.4113
 -0.3989  -0.3871  -0.3580  -0.3493  -0.3185  -0.2874  -0.2562

          Ground-State Mulliken Net Atomic Charges

     Atom                 Charge (a.u.)
  ----------------------------------------
      1 C                    -0.187011
      2 C                    -0.254109
      3 S                    -0.021644
      4 C                    -0.013180
      5 H                     0.196667
      6 C                    -0.028346
      7 C                     0.245148
      8 C                     0.241106
      9 C                    -0.046746
     10 C                    -0.032118
     11 O                    -0.333495
     12 O                    -0.340037
     13 C                    -0.085740
     14 H                     0.122617
     15 H                     0.091382
     16 H                     0.094092
     17 C                    -0.087136
     18 H                     0.124622
     19 H                     0.096435
     20 H                     0.089462
     21 C                    -0.223920
     22 S                     0.001335
     23 C                    -0.028026
     24 H                     0.199399
     25 H                     0.206674
     26 C                    -0.019527
     27 S                     0.115710
     28 C                    -0.241218
     29 C                    -0.095838
     30 C                    -0.007658
     31 C                     0.392024
     32 C                    -0.154215
     33 S                     0.037282
     34 C                     0.460252
     35 O                    -0.450900
     36 O                    -0.297884
     37 F                    -0.210724
     38 C                    -0.055074
     39 H                     0.116514
     40 H                     0.084436
     41 H                     0.084501
     42 H                     0.214890
  ----------------------------------------
  Sum of atomic charges =     0.000000

                    Cartesian Multipole Moments
 -----------------------------------------------------------------
    Charge (ESU x 10^10)
                -0.0000
    Dipole Moment (Debye)
         X       0.1132      Y       1.4199      Z       3.4478
       Tot       3.7304
    Quadrupole Moments (Debye-Ang)
        XX    -188.2821     XY       1.7861     YY    -158.3318
        XZ      11.7883     YZ     -11.9689     ZZ    -194.8000

 Total job time:  288.95s(wall), 9677.94s(cpu)
        *  Thank you very much for using Q-Chem.  Have a nice day.  *
