 Q-Chem 5.4, Q-Chem, Inc., Pleasanton, CA (2021)
 Q-Chem 5.4.0 for Intel X86 EM64T Linux

User input:
--------------------------------------------------------------
$molecule
0 1
C	1.432238	-8.398629	0.267851
C	1.270668	-7.529711	-0.801461
S	1.299871	-7.540578	1.822194
C	1.033679	-6.176229	-0.415201
H	1.318997	-7.844878	-1.851431
C	1.001923	-5.997113	1.012650
C	0.805626	-4.730351	1.584194
C	0.863981	-5.080701	-1.309433
C	0.671533	-3.810912	-0.737539
C	0.637166	-3.633485	0.691828
O	0.891580	-5.408420	-2.631211
O	0.780896	-4.411287	2.911907
C	0.336511	-5.379315	3.854716
H	0.171379	-4.834178	4.803517
H	1.095324	-6.172080	4.034285
H	-0.616308	-5.854145	3.535185
C	1.159578	-4.412679	-3.610841
H	1.321333	-4.953370	-4.562544
H	2.072791	-3.829719	-3.364029
H	0.303747	-3.715791	-3.743566
C	0.402329	-2.279087	1.074491
S	0.385663	-2.262896	-1.548848
C	0.249216	-1.413377	0.000000
H	0.350996	-1.962069	2.123688
H	1.625021	-9.477792	0.262315
C	0.000000	0.000000	0.000000
S	0.690437	0.576430	1.510732
C	1.896512	1.589852	0.727629
C	0.695720	0.583817	-1.064665
C	1.758621	1.477674	-0.678287
C	0.645928	0.539878	-2.486150
C	1.614763	1.352997	-3.106916
S	2.568261	2.157430	-1.965735
C	1.812707	1.512991	-4.559972
O	1.099523	0.910662	-5.350277
O	2.797769	2.335330	-5.004375
F	-0.205024	-0.179266	-3.246290
C	3.079074	2.558124	-6.334976
H	3.925910	3.267919	-6.370268
H	2.208109	2.990367	-6.875609
H	3.358147	1.618843	-6.861878
H	2.601331	2.181180	1.321510
$end

$rem
JOBTYPE		SP
EXCHANGE	HF
CORRELATION	pRIMP2
BASIS		cc-pvtz
METHOD		rimp2
AUX_BASIS	rimp2-cc-pvtz
SOLVENT_METHOD	PCM
PURECART	11111
SYMMETRY	false
MEM_TOTAL	110000
SCF_CONVERGENCE = 6
THRESH=10
GUI = 2
$end

$solvent
dielectric 4.90
$end
--------------------------------------------------------------

             Standard Nuclear Orientation (Angstroms)
    I     Atom           X                Y                Z
 ----------------------------------------------------------------
    1      C       1.4322380000    -8.3986290000     0.2678510000
    2      C       1.2706680000    -7.5297110000    -0.8014610000
    3      S       1.2998710000    -7.5405780000     1.8221940000
    4      C       1.0336790000    -6.1762290000    -0.4152010000
    5      H       1.3189970000    -7.8448780000    -1.8514310000
    6      C       1.0019230000    -5.9971130000     1.0126500000
    7      C       0.8056260000    -4.7303510000     1.5841940000
    8      C       0.8639810000    -5.0807010000    -1.3094330000
    9      C       0.6715330000    -3.8109120000    -0.7375390000
   10      C       0.6371660000    -3.6334850000     0.6918280000
   11      O       0.8915800000    -5.4084200000    -2.6312110000
   12      O       0.7808960000    -4.4112870000     2.9119070000
   13      C       0.3365110000    -5.3793150000     3.8547160000
   14      H       0.1713790000    -4.8341780000     4.8035170000
   15      H       1.0953240000    -6.1720800000     4.0342850000
   16      H      -0.6163080000    -5.8541450000     3.5351850000
   17      C       1.1595780000    -4.4126790000    -3.6108410000
   18      H       1.3213330000    -4.9533700000    -4.5625440000
   19      H       2.0727910000    -3.8297190000    -3.3640290000
   20      H       0.3037470000    -3.7157910000    -3.7435660000
   21      C       0.4023290000    -2.2790870000     1.0744910000
   22      S       0.3856630000    -2.2628960000    -1.5488480000
   23      C       0.2492160000    -1.4133770000     0.0000000000
   24      H       0.3509960000    -1.9620690000     2.1236880000
   25      H       1.6250210000    -9.4777920000     0.2623150000
   26      C       0.0000000000     0.0000000000     0.0000000000
   27      S       0.6904370000     0.5764300000     1.5107320000
   28      C       1.8965120000     1.5898520000     0.7276290000
   29      C       0.6957200000     0.5838170000    -1.0646650000
   30      C       1.7586210000     1.4776740000    -0.6782870000
   31      C       0.6459280000     0.5398780000    -2.4861500000
   32      C       1.6147630000     1.3529970000    -3.1069160000
   33      S       2.5682610000     2.1574300000    -1.9657350000
   34      C       1.8127070000     1.5129910000    -4.5599720000
   35      O       1.0995230000     0.9106620000    -5.3502770000
   36      O       2.7977690000     2.3353300000    -5.0043750000
   37      F      -0.2050240000    -0.1792660000    -3.2462900000
   38      C       3.0790740000     2.5581240000    -6.3349760000
   39      H       3.9259100000     3.2679190000    -6.3702680000
   40      H       2.2081090000     2.9903670000    -6.8756090000
   41      H       3.3581470000     1.6188430000    -6.8618780000
   42      H       2.6013310000     2.1811800000     1.3215100000
 ----------------------------------------------------------------

   11   -2754.2235804523      6.59e-07  Convergence criterion met
 Total energy in the final basis set =    -2754.2235804523
        RIMP2         total energy =     -2759.2986398435 a.u.

                    Orbital Energies (a.u.)
 --------------------------------------------------------------

 Alpha MOs
 -- Occupied --
-92.0159 -92.0102 -91.9813 -91.9791 -26.3367 -20.6180 -20.5890 -20.5852
-20.5601 -11.4191 -11.3786 -11.3321 -11.3176 -11.3150 -11.3062 -11.3038
-11.3010 -11.2972 -11.2917 -11.2842 -11.2829 -11.2792 -11.2774 -11.2745
-11.2722 -11.2553 -11.2489 -11.2461 -11.2320  -9.0154  -9.0135  -8.9813
 -8.9807  -6.6959  -6.6950  -6.6949  -6.6947  -6.6941  -6.6928  -6.6623
 -6.6617  -6.6616  -6.6609  -6.6609  -6.6598  -1.6520  -1.4783  -1.4129
 -1.4081  -1.3748  -1.2481  -1.1912  -1.1707  -1.1441  -1.0858  -1.0532
 -1.0452  -1.0365  -0.9980  -0.9915  -0.9779  -0.9556  -0.9464  -0.9392
 -0.8908  -0.8794  -0.8430  -0.8116  -0.7978  -0.7871  -0.7769  -0.7607
 -0.7535  -0.7286  -0.7240  -0.7174  -0.6985  -0.6918  -0.6838  -0.6814
 -0.6772  -0.6643  -0.6551  -0.6486  -0.6253  -0.6154  -0.6142  -0.6136
 -0.6091  -0.6048  -0.5846  -0.5700  -0.5659  -0.5601  -0.5542  -0.5503
 -0.5360  -0.5247  -0.5198  -0.5184  -0.5110  -0.5067  -0.5044  -0.4932
 -0.4876  -0.4816  -0.4731  -0.4691  -0.4659  -0.4599  -0.4499  -0.4250
 -0.3862  -0.3817  -0.3606  -0.3488  -0.3230  -0.2880  -0.2411

          Ground-State Mulliken Net Atomic Charges

     Atom                 Charge (a.u.)
  ----------------------------------------
      1 C                    -0.204055
      2 C                    -0.251905
      3 S                    -0.031863
      4 C                    -0.028197
      5 H                     0.194729
      6 C                    -0.020831
      7 C                     0.220291
      8 C                     0.245743
      9 C                    -0.050491
     10 C                     0.000776
     11 O                    -0.333713
     12 O                    -0.343446
     13 C                    -0.085427
     14 H                     0.120086
     15 H                     0.089611
     16 H                     0.092287
     17 C                    -0.087917
     18 H                     0.124615
     19 H                     0.092546
     20 H                     0.091597
     21 C                    -0.306729
     22 S                    -0.046843
     23 C                     0.020409
     24 H                     0.178131
     25 H                     0.203665
     26 C                    -0.142510
     27 S                     0.125917
     28 C                    -0.124661
     29 C                     0.027232
     30 C                    -0.048449
     31 C                     0.312878
     32 C                    -0.094643
     33 S                     0.084089
     34 C                     0.457676
     35 O                    -0.434945
     36 O                    -0.296043
     37 F                    -0.209747
     38 C                    -0.054424
     39 H                     0.118071
     40 H                     0.086222
     41 H                     0.085991
     42 H                     0.224280
  ----------------------------------------
  Sum of atomic charges =     0.000000

                    Cartesian Multipole Moments
 -----------------------------------------------------------------
    Charge (ESU x 10^10)
                -0.0000
    Dipole Moment (Debye)
         X       4.6042      Y       4.8524      Z       1.6205
       Tot       6.8826
    Quadrupole Moments (Debye-Ang)
        XX    -187.4507     XY      11.0064     YY    -182.2680
        XZ     -16.0274     YZ      -7.4091     ZZ    -178.1220

 Total job time:  313.61s(wall), 10147.05s(cpu)
        *  Thank you very much for using Q-Chem.  Have a nice day.  *
