 Q-Chem 5.4, Q-Chem, Inc., Pleasanton, CA (2021)
 Q-Chem 5.4.0 for Intel X86 EM64T Linux

User input:
--------------------------------------------------------------
$molecule
0 1
C	0.255459	-8.519741	0.093711
C	-0.799036	-7.635967	-0.083869
S	1.789425	-7.651740	0.345260
C	-0.418360	-6.261894	-0.018411
H	-1.834294	-7.954738	-0.259169
C	0.987769	-6.079985	0.229701
C	1.555260	-4.798382	0.302697
C	-1.294992	-5.153542	-0.196459
C	-0.726408	-3.869626	-0.127651
C	0.680716	-3.688927	0.123544
O	-2.601852	-5.481075	-0.396706
O	2.868193	-4.479871	0.502673
C	3.691495	-5.356026	1.262918
H	4.614080	-4.790496	1.494604
H	3.974195	-6.268513	0.693738
H	3.199559	-5.658187	2.212720
C	-3.490743	-4.546999	-0.997016
H	-4.416630	-5.107564	-1.226691
H	-3.073934	-4.131473	-1.939526
H	-3.746794	-3.712085	-0.309214
C	1.058247	-2.314326	0.186133
S	-1.527599	-2.295487	-0.256010
C	0.000000	-1.435180	0.000000
H	2.092285	-1.993211	0.363896
H	0.250435	-9.615985	0.090328
C	0.000000	0.000000	0.000000
S	0.309721	0.844422	1.510732
C	0.847502	2.325108	0.727629
C	0.310602	0.853460	-1.064665
C	0.784173	2.159014	-0.678287
C	0.289451	0.790512	-2.486150
C	0.721927	1.979112	-3.106916
S	1.145464	3.152519	-1.965735
C	0.813355	2.216642	-4.559972
O	0.496884	1.338418	-5.350277
O	1.255274	3.421340	-5.004375
F	-0.087923	-0.257761	-3.246290
C	1.387494	3.754937	-6.334976
H	1.765978	4.793056	-6.370268
H	0.417095	3.693789	-6.875609
H	2.098820	3.081033	-6.861878
H	1.162229	3.189623	1.321510
$end

$rem
JOBTYPE		SP
EXCHANGE	HF
CORRELATION	pRIMP2
BASIS		cc-pvtz
METHOD		rimp2
AUX_BASIS	rimp2-cc-pvtz
SOLVENT_METHOD	PCM
PURECART	11111
SYMMETRY	false
MEM_TOTAL	110000
SCF_CONVERGENCE = 6
THRESH=10
GUI = 2
$end

$solvent
dielectric 4.90
$end
--------------------------------------------------------------

             Standard Nuclear Orientation (Angstroms)
    I     Atom           X                Y                Z
 ----------------------------------------------------------------
    1      C       0.2554590000    -8.5197410000     0.0937110000
    2      C      -0.7990360000    -7.6359670000    -0.0838690000
    3      S       1.7894250000    -7.6517400000     0.3452600000
    4      C      -0.4183600000    -6.2618940000    -0.0184110000
    5      H      -1.8342940000    -7.9547380000    -0.2591690000
    6      C       0.9877690000    -6.0799850000     0.2297010000
    7      C       1.5552600000    -4.7983820000     0.3026970000
    8      C      -1.2949920000    -5.1535420000    -0.1964590000
    9      C      -0.7264080000    -3.8696260000    -0.1276510000
   10      C       0.6807160000    -3.6889270000     0.1235440000
   11      O      -2.6018520000    -5.4810750000    -0.3967060000
   12      O       2.8681930000    -4.4798710000     0.5026730000
   13      C       3.6914950000    -5.3560260000     1.2629180000
   14      H       4.6140800000    -4.7904960000     1.4946040000
   15      H       3.9741950000    -6.2685130000     0.6937380000
   16      H       3.1995590000    -5.6581870000     2.2127200000
   17      C      -3.4907430000    -4.5469990000    -0.9970160000
   18      H      -4.4166300000    -5.1075640000    -1.2266910000
   19      H      -3.0739340000    -4.1314730000    -1.9395260000
   20      H      -3.7467940000    -3.7120850000    -0.3092140000
   21      C       1.0582470000    -2.3143260000     0.1861330000
   22      S      -1.5275990000    -2.2954870000    -0.2560100000
   23      C       0.0000000000    -1.4351800000     0.0000000000
   24      H       2.0922850000    -1.9932110000     0.3638960000
   25      H       0.2504350000    -9.6159850000     0.0903280000
   26      C       0.0000000000     0.0000000000     0.0000000000
   27      S       0.3097210000     0.8444220000     1.5107320000
   28      C       0.8475020000     2.3251080000     0.7276290000
   29      C       0.3106020000     0.8534600000    -1.0646650000
   30      C       0.7841730000     2.1590140000    -0.6782870000
   31      C       0.2894510000     0.7905120000    -2.4861500000
   32      C       0.7219270000     1.9791120000    -3.1069160000
   33      S       1.1454640000     3.1525190000    -1.9657350000
   34      C       0.8133550000     2.2166420000    -4.5599720000
   35      O       0.4968840000     1.3384180000    -5.3502770000
   36      O       1.2552740000     3.4213400000    -5.0043750000
   37      F      -0.0879230000    -0.2577610000    -3.2462900000
   38      C       1.3874940000     3.7549370000    -6.3349760000
   39      H       1.7659780000     4.7930560000    -6.3702680000
   40      H       0.4170950000     3.6937890000    -6.8756090000
   41      H       2.0988200000     3.0810330000    -6.8618780000
   42      H       1.1622290000     3.1896230000     1.3215100000
 ----------------------------------------------------------------

   10   -2754.2878216867      9.08e-07  Convergence criterion met
 Total energy in the final basis set =    -2754.2878216867
        RIMP2         total energy =     -2759.3429270455 a.u.

                    Orbital Energies (a.u.)
 --------------------------------------------------------------

 Alpha MOs
 -- Occupied --
-92.0165 -91.9954 -91.9880 -91.9862 -26.3338 -20.6123 -20.5919 -20.5916
-20.5506 -11.4108 -11.3767 -11.3187 -11.3181 -11.3052 -11.2986 -11.2970
-11.2958 -11.2933 -11.2885 -11.2864 -11.2862 -11.2855 -11.2841 -11.2837
-11.2798 -11.2606 -11.2589 -11.2583 -11.2498  -9.0146  -8.9993  -8.9884
 -8.9861  -6.6952  -6.6947  -6.6942  -6.6806  -6.6799  -6.6786  -6.6693
 -6.6686  -6.6677  -6.6671  -6.6665  -6.6656  -1.6467  -1.4721  -1.4161
 -1.4143  -1.3675  -1.2337  -1.1954  -1.1680  -1.1418  -1.0836  -1.0517
 -1.0476  -1.0279  -1.0017  -0.9929  -0.9714  -0.9609  -0.9501  -0.9385
 -0.8952  -0.8695  -0.8496  -0.8053  -0.7903  -0.7879  -0.7744  -0.7681
 -0.7578  -0.7324  -0.7179  -0.7150  -0.7010  -0.6889  -0.6828  -0.6786
 -0.6714  -0.6604  -0.6584  -0.6525  -0.6304  -0.6199  -0.6165  -0.6067
 -0.6020  -0.5954  -0.5836  -0.5760  -0.5708  -0.5664  -0.5542  -0.5525
 -0.5316  -0.5265  -0.5237  -0.5161  -0.5139  -0.5075  -0.5013  -0.4929
 -0.4910  -0.4849  -0.4757  -0.4665  -0.4617  -0.4614  -0.4601  -0.4058
 -0.4003  -0.3869  -0.3584  -0.3468  -0.3141  -0.2906  -0.2584

          Ground-State Mulliken Net Atomic Charges

     Atom                 Charge (a.u.)
  ----------------------------------------
      1 C                    -0.188192
      2 C                    -0.254125
      3 S                    -0.022435
      4 C                    -0.014968
      5 H                     0.196457
      6 C                    -0.028987
      7 C                     0.242503
      8 C                     0.244003
      9 C                    -0.052630
     10 C                    -0.022501
     11 O                    -0.333609
     12 O                    -0.340112
     13 C                    -0.085602
     14 H                     0.122462
     15 H                     0.091264
     16 H                     0.093810
     17 C                    -0.086252
     18 H                     0.124434
     19 H                     0.095717
     20 H                     0.089196
     21 C                    -0.205806
     22 S                     0.002773
     23 C                    -0.034399
     24 H                     0.199442
     25 H                     0.206458
     26 C                    -0.046469
     27 S                     0.121310
     28 C                    -0.231795
     29 C                    -0.096049
     30 C                    -0.003384
     31 C                     0.380631
     32 C                    -0.154310
     33 S                     0.042275
     34 C                     0.459298
     35 O                    -0.448634
     36 O                    -0.297710
     37 F                    -0.210187
     38 C                    -0.054873
     39 H                     0.116585
     40 H                     0.084676
     41 H                     0.084621
     42 H                     0.215116
  ----------------------------------------
  Sum of atomic charges =     0.000000

                    Cartesian Multipole Moments
 -----------------------------------------------------------------
    Charge (ESU x 10^10)
                -0.0000
    Dipole Moment (Debye)
         X       1.2035      Y       1.7132      Z       3.4341
       Tot       4.0220
    Quadrupole Moments (Debye-Ang)
        XX    -178.6390     XY       5.0925     YY    -161.0599
        XZ       5.3955     YZ     -11.6784     ZZ    -202.2039

 Total job time:  326.49s(wall), 10862.91s(cpu)
        *  Thank you very much for using Q-Chem.  Have a nice day.  *
