 Q-Chem 5.4, Q-Chem, Inc., Pleasanton, CA (2021)
 Q-Chem 5.4.0 for Intel X86 EM64T Linux

User input:
--------------------------------------------------------------
$molecule
0 1
C	0.135457	-8.519741	0.235993
C	-0.558188	-7.635967	-0.577858
S	1.148850	-7.651740	1.414705
C	-0.308648	-6.261894	-0.283020
H	-1.238560	-7.954738	-1.377597
C	0.609026	-6.079985	0.810887
C	0.996828	-4.798382	1.231581
C	-0.865740	-5.153542	-0.982901
C	-0.474408	-3.869626	-0.564713
C	0.442046	-3.688927	0.532196
O	-1.738137	-5.481075	-1.976332
O	1.874052	-4.479871	2.228709
C	2.016062	-5.356026	3.340298
H	2.573877	-4.790496	4.110807
H	2.598484	-6.268513	3.085998
H	1.028695	-5.658187	3.751679
C	-2.033195	-4.546999	-3.007565
H	-2.594833	-5.107564	-3.778655
H	-1.108067	-4.131473	-3.461650
H	-2.671451	-3.712085	-2.645264
C	0.691020	-2.314326	0.822814
S	-1.005649	-2.295487	-1.178037
C	0.000000	-1.435180	0.000000
H	1.368875	-1.993211	1.623656
H	0.133782	-9.615985	0.230172
C	0.000000	0.000000	0.000000
S	0.780044	0.447780	1.510732
C	2.143774	1.236372	0.727629
C	0.786529	0.454137	-1.064665
C	1.988499	1.149844	-0.678287
C	0.729864	0.419512	-2.486150
C	1.825177	1.052041	-3.106916
S	2.903877	1.678680	-1.965735
C	2.047896	1.175232	-4.559972
O	1.240953	0.705897	-5.350277
O	3.160791	1.814024	-5.004375
F	-0.233039	-0.140940	-3.246290
C	3.476510	1.984585	-6.334976
H	4.433735	2.536545	-6.370268
H	2.693835	2.561503	-6.875609
H	3.588239	1.011113	-6.861878
H	2.940569	1.696327	1.321510
$end

$rem
JOBTYPE		SP
EXCHANGE	HF
CORRELATION	pRIMP2
BASIS		cc-pvtz
METHOD		rimp2
AUX_BASIS	rimp2-cc-pvtz
SOLVENT_METHOD	PCM
PURECART	11111
SYMMETRY	false
MEM_TOTAL	110000
SCF_CONVERGENCE = 6
THRESH=10
GUI = 2
$end

$solvent
dielectric 4.90
$end
--------------------------------------------------------------

             Standard Nuclear Orientation (Angstroms)
    I     Atom           X                Y                Z
 ----------------------------------------------------------------
    1      C       0.1354570000    -8.5197410000     0.2359930000
    2      C      -0.5581880000    -7.6359670000    -0.5778580000
    3      S       1.1488500000    -7.6517400000     1.4147050000
    4      C      -0.3086480000    -6.2618940000    -0.2830200000
    5      H      -1.2385600000    -7.9547380000    -1.3775970000
    6      C       0.6090260000    -6.0799850000     0.8108870000
    7      C       0.9968280000    -4.7983820000     1.2315810000
    8      C      -0.8657400000    -5.1535420000    -0.9829010000
    9      C      -0.4744080000    -3.8696260000    -0.5647130000
   10      C       0.4420460000    -3.6889270000     0.5321960000
   11      O      -1.7381370000    -5.4810750000    -1.9763320000
   12      O       1.8740520000    -4.4798710000     2.2287090000
   13      C       2.0160620000    -5.3560260000     3.3402980000
   14      H       2.5738770000    -4.7904960000     4.1108070000
   15      H       2.5984840000    -6.2685130000     3.0859980000
   16      H       1.0286950000    -5.6581870000     3.7516790000
   17      C      -2.0331950000    -4.5469990000    -3.0075650000
   18      H      -2.5948330000    -5.1075640000    -3.7786550000
   19      H      -1.1080670000    -4.1314730000    -3.4616500000
   20      H      -2.6714510000    -3.7120850000    -2.6452640000
   21      C       0.6910200000    -2.3143260000     0.8228140000
   22      S      -1.0056490000    -2.2954870000    -1.1780370000
   23      C       0.0000000000    -1.4351800000     0.0000000000
   24      H       1.3688750000    -1.9932110000     1.6236560000
   25      H       0.1337820000    -9.6159850000     0.2301720000
   26      C       0.0000000000     0.0000000000     0.0000000000
   27      S       0.7800440000     0.4477800000     1.5107320000
   28      C       2.1437740000     1.2363720000     0.7276290000
   29      C       0.7865290000     0.4541370000    -1.0646650000
   30      C       1.9884990000     1.1498440000    -0.6782870000
   31      C       0.7298640000     0.4195120000    -2.4861500000
   32      C       1.8251770000     1.0520410000    -3.1069160000
   33      S       2.9038770000     1.6786800000    -1.9657350000
   34      C       2.0478960000     1.1752320000    -4.5599720000
   35      O       1.2409530000     0.7058970000    -5.3502770000
   36      O       3.1607910000     1.8140240000    -5.0043750000
   37      F      -0.2330390000    -0.1409400000    -3.2462900000
   38      C       3.4765100000     1.9845850000    -6.3349760000
   39      H       4.4337350000     2.5365450000    -6.3702680000
   40      H       2.6938350000     2.5615030000    -6.8756090000
   41      H       3.5882390000     1.0111130000    -6.8618780000
   42      H       2.9405690000     1.6963270000     1.3215100000
 ----------------------------------------------------------------

   11   -2754.2309307310      7.39e-07  Convergence criterion met
 Total energy in the final basis set =    -2754.2309307310
        RIMP2         total energy =     -2759.3040032965 a.u.

                    Orbital Energies (a.u.)
 --------------------------------------------------------------

 Alpha MOs
 -- Occupied --
-92.0163 -92.0073 -91.9826 -91.9793 -26.3342 -20.6162 -20.5892 -20.5871
-20.5574 -11.4167 -11.3765 -11.3274 -11.3151 -11.3126 -11.3094 -11.3020
-11.2988 -11.2972 -11.2907 -11.2841 -11.2841 -11.2800 -11.2773 -11.2772
-11.2742 -11.2553 -11.2515 -11.2469 -11.2375  -9.0154  -9.0107  -8.9825
 -8.9803  -6.6960  -6.6951  -6.6950  -6.6919  -6.6913  -6.6900  -6.6635
 -6.6629  -6.6621  -6.6613  -6.6606  -6.6596  -1.6480  -1.4764  -1.4131
 -1.4099  -1.3726  -1.2452  -1.1919  -1.1707  -1.1438  -1.0841  -1.0522
 -1.0466  -1.0343  -0.9974  -0.9916  -0.9765  -0.9564  -0.9471  -0.9389
 -0.8912  -0.8771  -0.8422  -0.8098  -0.7948  -0.7856  -0.7771  -0.7630
 -0.7527  -0.7282  -0.7193  -0.7164  -0.6984  -0.6917  -0.6820  -0.6788
 -0.6783  -0.6623  -0.6556  -0.6495  -0.6274  -0.6166  -0.6140  -0.6122
 -0.6070  -0.6040  -0.5890  -0.5713  -0.5652  -0.5643  -0.5523  -0.5503
 -0.5325  -0.5235  -0.5197  -0.5137  -0.5117  -0.5089  -0.5019  -0.4927
 -0.4877  -0.4846  -0.4689  -0.4670  -0.4645  -0.4606  -0.4494  -0.4212
 -0.3898  -0.3814  -0.3569  -0.3460  -0.3212  -0.2899  -0.2483

          Ground-State Mulliken Net Atomic Charges

     Atom                 Charge (a.u.)
  ----------------------------------------
      1 C                    -0.199134
      2 C                    -0.253327
      3 S                    -0.030315
      4 C                    -0.022552
      5 H                     0.195270
      6 C                    -0.023607
      7 C                     0.226204
      8 C                     0.243758
      9 C                    -0.044054
     10 C                    -0.008699
     11 O                    -0.334067
     12 O                    -0.343024
     13 C                    -0.085663
     14 H                     0.120375
     15 H                     0.090412
     16 H                     0.092654
     17 C                    -0.087039
     18 H                     0.123970
     19 H                     0.094758
     20 H                     0.089719
     21 C                    -0.304973
     22 S                    -0.034145
     23 C                     0.017709
     24 H                     0.190129
     25 H                     0.204393
     26 C                    -0.143083
     27 S                     0.125404
     28 C                    -0.150608
     29 C                    -0.004863
     30 C                    -0.029791
     31 C                     0.347469
     32 C                    -0.111165
     33 S                     0.076367
     34 C                     0.456485
     35 O                    -0.438254
     36 O                    -0.296580
     37 F                    -0.207400
     38 C                    -0.054716
     39 H                     0.117598
     40 H                     0.085734
     41 H                     0.085790
     42 H                     0.222860
  ----------------------------------------
  Sum of atomic charges =     0.000000

                    Cartesian Multipole Moments
 -----------------------------------------------------------------
    Charge (ESU x 10^10)
                 0.0000
    Dipole Moment (Debye)
         X       4.7491      Y       3.0942      Z       2.2996
       Tot       6.1168
    Quadrupole Moments (Debye-Ang)
        XX    -181.2676     XY      11.2140     YY    -182.3424
        XZ      -1.5021     YZ      -5.9749     ZZ    -182.5329

 Total job time:  306.59s(wall), 10039.31s(cpu)
        *  Thank you very much for using Q-Chem.  Have a nice day.  *
