 Q-Chem 5.4, Q-Chem, Inc., Pleasanton, CA (2021)
 Q-Chem 5.4.0 for Intel X86 EM64T Linux

User input:
--------------------------------------------------------------
$molecule
0 1
C	0.235306	-8.519741	0.136647
C	-0.772334	-7.635967	-0.221346
S	1.702286	-7.651740	0.650746
C	-0.408807	-6.261894	-0.090779
H	-1.761423	-7.954738	-0.573754
C	0.932876	-6.079985	0.397735
C	1.479069	-4.798382	0.568166
C	-1.241204	-5.153542	-0.418347
C	-0.693206	-3.869626	-0.251852
C	0.648921	-3.688927	0.239872
O	-2.493437	-5.481075	-0.842486
O	2.737331	-4.479871	0.993092
C	3.416110	-5.356026	1.884752
H	4.284447	-4.790496	2.273124
H	3.793352	-6.268513	1.373310
H	2.766716	-5.658187	2.734702
C	-3.264581	-4.546999	-1.588030
H	-4.136519	-5.107564	-1.974995
H	-2.690439	-4.131473	-2.443843
H	-3.636177	-3.712085	-0.955140
C	1.009848	-2.314326	0.367068
S	-1.459936	-2.295487	-0.517386
C	-0.000000	-1.435180	-0.000000
H	1.997308	-1.993211	0.721689
H	0.230945	-9.615985	0.132444
C	0.000000	0.000000	0.000000
S	0.382139	0.814215	1.510732
C	1.046923	2.242395	0.727629
C	0.383804	0.823142	-1.064665
C	0.969360	2.082453	-0.678287
C	0.357247	0.762277	-2.486150
C	0.891671	1.908660	-3.106916
S	1.415865	3.040689	-1.965735
C	1.003453	2.137318	-4.559972
O	0.611644	1.290019	-5.350277
O	1.548687	3.298916	-5.004375
F	-0.110054	-0.249117	-3.246290
C	1.709479	3.619721	-6.334976
H	2.177001	4.620902	-6.370268
H	0.737443	3.643380	-6.875609
H	2.359363	2.886384	-6.861878
H	1.435800	3.076190	1.321510
$end

$rem
JOBTYPE		SP
EXCHANGE	HF
CORRELATION	pRIMP2
BASIS		cc-pvtz
METHOD		rimp2
AUX_BASIS	rimp2-cc-pvtz
SOLVENT_METHOD	PCM
PURECART	11111
SYMMETRY	false
MEM_TOTAL	110000
SCF_CONVERGENCE = 6
THRESH=10
GUI = 2
$end

$solvent
dielectric 4.90
$end
--------------------------------------------------------------

             Standard Nuclear Orientation (Angstroms)
    I     Atom           X                Y                Z
 ----------------------------------------------------------------
    1      C       0.2353060000    -8.5197410000     0.1366470000
    2      C      -0.7723340000    -7.6359670000    -0.2213460000
    3      S       1.7022860000    -7.6517400000     0.6507460000
    4      C      -0.4088070000    -6.2618940000    -0.0907790000
    5      H      -1.7614230000    -7.9547380000    -0.5737540000
    6      C       0.9328760000    -6.0799850000     0.3977350000
    7      C       1.4790690000    -4.7983820000     0.5681660000
    8      C      -1.2412040000    -5.1535420000    -0.4183470000
    9      C      -0.6932060000    -3.8696260000    -0.2518520000
   10      C       0.6489210000    -3.6889270000     0.2398720000
   11      O      -2.4934370000    -5.4810750000    -0.8424860000
   12      O       2.7373310000    -4.4798710000     0.9930920000
   13      C       3.4161100000    -5.3560260000     1.8847520000
   14      H       4.2844470000    -4.7904960000     2.2731240000
   15      H       3.7933520000    -6.2685130000     1.3733100000
   16      H       2.7667160000    -5.6581870000     2.7347020000
   17      C      -3.2645810000    -4.5469990000    -1.5880300000
   18      H      -4.1365190000    -5.1075640000    -1.9749950000
   19      H      -2.6904390000    -4.1314730000    -2.4438430000
   20      H      -3.6361770000    -3.7120850000    -0.9551400000
   21      C       1.0098480000    -2.3143260000     0.3670680000
   22      S      -1.4599360000    -2.2954870000    -0.5173860000
   23      C       0.0000000000    -1.4351800000     0.0000000000
   24      H       1.9973080000    -1.9932110000     0.7216890000
   25      H       0.2309450000    -9.6159850000     0.1324440000
   26      C       0.0000000000     0.0000000000     0.0000000000
   27      S       0.3821390000     0.8142150000     1.5107320000
   28      C       1.0469230000     2.2423950000     0.7276290000
   29      C       0.3838040000     0.8231420000    -1.0646650000
   30      C       0.9693600000     2.0824530000    -0.6782870000
   31      C       0.3572470000     0.7622770000    -2.4861500000
   32      C       0.8916710000     1.9086600000    -3.1069160000
   33      S       1.4158650000     3.0406890000    -1.9657350000
   34      C       1.0034530000     2.1373180000    -4.5599720000
   35      O       0.6116440000     1.2900190000    -5.3502770000
   36      O       1.5486870000     3.2989160000    -5.0043750000
   37      F      -0.1100540000    -0.2491170000    -3.2462900000
   38      C       1.7094790000     3.6197210000    -6.3349760000
   39      H       2.1770010000     4.6209020000    -6.3702680000
   40      H       0.7374430000     3.6433800000    -6.8756090000
   41      H       2.3593630000     2.8863840000    -6.8618780000
   42      H       1.4358000000     3.0761900000     1.3215100000
 ----------------------------------------------------------------

   10   -2754.2845750418      9.15e-07  Convergence criterion met
 Total energy in the final basis set =    -2754.2845750418
        RIMP2         total energy =     -2759.3413983469 a.u.

                    Orbital Energies (a.u.)
 --------------------------------------------------------------

 Alpha MOs
 -- Occupied --
-92.0168 -91.9961 -91.9872 -91.9860 -26.3338 -20.6125 -20.5916 -20.5913
-20.5510 -11.4111 -11.3766 -11.3184 -11.3175 -11.3036 -11.2994 -11.2986
-11.2965 -11.2939 -11.2886 -11.2862 -11.2861 -11.2850 -11.2848 -11.2835
-11.2794 -11.2603 -11.2584 -11.2570 -11.2496  -9.0149  -9.0001  -8.9876
 -8.9859  -6.6956  -6.6950  -6.6946  -6.6813  -6.6807  -6.6793  -6.6686
 -6.6679  -6.6669  -6.6669  -6.6662  -6.6654  -1.6468  -1.4723  -1.4158
 -1.4140  -1.3678  -1.2343  -1.1952  -1.1680  -1.1421  -1.0836  -1.0513
 -1.0479  -1.0283  -1.0013  -0.9928  -0.9718  -0.9605  -0.9498  -0.9386
 -0.8948  -0.8700  -0.8490  -0.8060  -0.7904  -0.7876  -0.7748  -0.7673
 -0.7574  -0.7320  -0.7180  -0.7151  -0.7007  -0.6891  -0.6825  -0.6788
 -0.6718  -0.6605  -0.6582  -0.6523  -0.6300  -0.6197  -0.6162  -0.6070
 -0.6021  -0.5962  -0.5850  -0.5746  -0.5704  -0.5665  -0.5543  -0.5526
 -0.5301  -0.5269  -0.5231  -0.5159  -0.5138  -0.5077  -0.5015  -0.4926
 -0.4905  -0.4854  -0.4755  -0.4658  -0.4618  -0.4616  -0.4597  -0.4089
 -0.3986  -0.3862  -0.3584  -0.3469  -0.3153  -0.2901  -0.2569

          Ground-State Mulliken Net Atomic Charges

     Atom                 Charge (a.u.)
  ----------------------------------------
      1 C                    -0.188933
      2 C                    -0.254204
      3 S                    -0.023001
      4 C                    -0.015605
      5 H                     0.196365
      6 C                    -0.029218
      7 C                     0.241897
      8 C                     0.244664
      9 C                    -0.050196
     10 C                    -0.020721
     11 O                    -0.333708
     12 O                    -0.340365
     13 C                    -0.085595
     14 H                     0.122295
     15 H                     0.091133
     16 H                     0.093811
     17 C                    -0.086374
     18 H                     0.124367
     19 H                     0.095879
     20 H                     0.089259
     21 C                    -0.218312
     22 S                    -0.000380
     23 C                    -0.031795
     24 H                     0.200500
     25 H                     0.206316
     26 C                    -0.046486
     27 S                     0.119636
     28 C                    -0.225524
     29 C                    -0.085860
     30 C                    -0.005207
     31 C                     0.370443
     32 C                    -0.149750
     33 S                     0.044987
     34 C                     0.458512
     35 O                    -0.448087
     36 O                    -0.297719
     37 F                    -0.209650
     38 C                    -0.054832
     39 H                     0.116654
     40 H                     0.084659
     41 H                     0.084731
     42 H                     0.215414
  ----------------------------------------
  Sum of atomic charges =     0.000000

                    Cartesian Multipole Moments
 -----------------------------------------------------------------
    Charge (ESU x 10^10)
                -0.0000
    Dipole Moment (Debye)
         X       1.4921      Y       1.8404      Z       3.3531
       Tot       4.1057
    Quadrupole Moments (Debye-Ang)
        XX    -181.3469     XY       6.5908     YY    -162.7148
        XZ       6.8350     YZ     -11.2858     ZZ    -198.3145

 Total job time:  315.18s(wall), 9534.82s(cpu)
        *  Thank you very much for using Q-Chem.  Have a nice day.  *
