 Q-Chem 5.4, Q-Chem, Inc., Pleasanton, CA (2021)
 Q-Chem 5.4.0 for Intel X86 EM64T Linux

User input:
--------------------------------------------------------------
$molecule
0 1
C	0.175432	-8.519741	-0.208002
C	-0.352097	-7.635967	0.722164
S	0.936458	-7.651740	-1.563424
C	-0.160388	-6.261894	0.386833
H	-0.870905	-7.954738	1.635031
C	0.553685	-6.079985	-0.849637
C	0.816372	-4.798382	-1.357938
C	-0.627524	-5.153542	1.149702
C	-0.368399	-3.869626	0.638941
C	0.348912	-3.688927	-0.597409
O	-1.262667	-5.481075	2.309260
O	1.453338	-4.479871	-2.523296
C	2.449320	-5.356026	-3.036927
H	2.982577	-4.790496	-3.824632
H	2.011155	-6.268513	-3.497250
H	3.173591	-5.658187	-2.249807
C	-2.130793	-4.546999	2.939226
H	-2.663289	-5.107564	3.730721
H	-2.873906	-4.131473	2.225196
H	-1.572045	-3.712085	3.415077
C	0.536849	-2.314326	-0.930765
S	-0.763041	-2.295487	1.347913
C	-0.000000	-1.435180	-0.000000
H	1.057554	-1.993211	-1.841645
H	0.170535	-9.615985	-0.204438
C	0.000000	0.000000	0.000000
S	0.579852	0.687566	1.510732
C	1.591625	1.895024	0.727629
C	0.583771	0.695758	-1.064665
C	1.475308	1.760606	-0.678287
C	0.542366	0.643841	-2.486150
C	1.355286	1.612843	-3.106916
S	2.154609	2.570627	-1.965735
C	1.522440	1.804778	-4.559972
O	0.924684	1.087757	-5.350277
O	2.349739	2.785679	-5.004375
F	-0.170780	-0.212144	-3.246290
C	2.588082	3.053936	-6.334976
H	3.298799	3.899999	-6.370268
H	1.655291	3.328371	-6.875609
H	3.026021	2.177385	-6.861878
H	2.183053	2.599759	1.321510
$end

$rem
JOBTYPE		SP
EXCHANGE	HF
CORRELATION	pRIMP2
BASIS		cc-pvtz
METHOD		rimp2
AUX_BASIS	rimp2-cc-pvtz
SOLVENT_METHOD	PCM
PURECART	11111
SYMMETRY	false
MEM_TOTAL	110000
SCF_CONVERGENCE = 6
THRESH=10
GUI = 2
$end

$solvent
dielectric 4.90
$end
--------------------------------------------------------------

             Standard Nuclear Orientation (Angstroms)
    I     Atom           X                Y                Z
 ----------------------------------------------------------------
    1      C       0.1754320000    -8.5197410000    -0.2080020000
    2      C      -0.3520970000    -7.6359670000     0.7221640000
    3      S       0.9364580000    -7.6517400000    -1.5634240000
    4      C      -0.1603880000    -6.2618940000     0.3868330000
    5      H      -0.8709050000    -7.9547380000     1.6350310000
    6      C       0.5536850000    -6.0799850000    -0.8496370000
    7      C       0.8163720000    -4.7983820000    -1.3579380000
    8      C      -0.6275240000    -5.1535420000     1.1497020000
    9      C      -0.3683990000    -3.8696260000     0.6389410000
   10      C       0.3489120000    -3.6889270000    -0.5974090000
   11      O      -1.2626670000    -5.4810750000     2.3092600000
   12      O       1.4533380000    -4.4798710000    -2.5232960000
   13      C       2.4493200000    -5.3560260000    -3.0369270000
   14      H       2.9825770000    -4.7904960000    -3.8246320000
   15      H       2.0111550000    -6.2685130000    -3.4972500000
   16      H       3.1735910000    -5.6581870000    -2.2498070000
   17      C      -2.1307930000    -4.5469990000     2.9392260000
   18      H      -2.6632890000    -5.1075640000     3.7307210000
   19      H      -2.8739060000    -4.1314730000     2.2251960000
   20      H      -1.5720450000    -3.7120850000     3.4150770000
   21      C       0.5368490000    -2.3143260000    -0.9307650000
   22      S      -0.7630410000    -2.2954870000     1.3479130000
   23      C       0.0000000000    -1.4351800000     0.0000000000
   24      H       1.0575540000    -1.9932110000    -1.8416450000
   25      H       0.1705350000    -9.6159850000    -0.2044380000
   26      C       0.0000000000     0.0000000000     0.0000000000
   27      S       0.5798520000     0.6875660000     1.5107320000
   28      C       1.5916250000     1.8950240000     0.7276290000
   29      C       0.5837710000     0.6957580000    -1.0646650000
   30      C       1.4753080000     1.7606060000    -0.6782870000
   31      C       0.5423660000     0.6438410000    -2.4861500000
   32      C       1.3552860000     1.6128430000    -3.1069160000
   33      S       2.1546090000     2.5706270000    -1.9657350000
   34      C       1.5224400000     1.8047780000    -4.5599720000
   35      O       0.9246840000     1.0877570000    -5.3502770000
   36      O       2.3497390000     2.7856790000    -5.0043750000
   37      F      -0.1707800000    -0.2121440000    -3.2462900000
   38      C       2.5880820000     3.0539360000    -6.3349760000
   39      H       3.2987990000     3.8999990000    -6.3702680000
   40      H       1.6552910000     3.3283710000    -6.8756090000
   41      H       3.0260210000     2.1773850000    -6.8618780000
   42      H       2.1830530000     2.5997590000     1.3215100000
 ----------------------------------------------------------------

   11   -2754.2707604673      4.55e-07  Convergence criterion met
 Total energy in the final basis set =    -2754.2707604673
        RIMP2         total energy =     -2759.3344238663 a.u.

                    Orbital Energies (a.u.)
 --------------------------------------------------------------

 Alpha MOs
 -- Occupied --
-92.0170 -92.0006 -91.9860 -91.9851 -26.3352 -20.6140 -20.5918 -20.5894
-20.5533 -11.4132 -11.3777 -11.3182 -11.3150 -11.3087 -11.3041 -11.2999
-11.2977 -11.2960 -11.2895 -11.2876 -11.2867 -11.2847 -11.2838 -11.2828
-11.2778 -11.2599 -11.2566 -11.2505 -11.2490  -9.0157  -9.0044  -8.9869
 -8.9850  -6.6964  -6.6957  -6.6953  -6.6856  -6.6850  -6.6836  -6.6680
 -6.6673  -6.6663  -6.6660  -6.6653  -6.6645  -1.6485  -1.4739  -1.4157
 -1.4122  -1.3696  -1.2385  -1.1946  -1.1692  -1.1440  -1.0842  -1.0514
 -1.0494  -1.0307  -1.0007  -0.9930  -0.9741  -0.9597  -0.9495  -0.9389
 -0.8951  -0.8726  -0.8474  -0.8030  -0.7963  -0.7873  -0.7726  -0.7712
 -0.7558  -0.7316  -0.7205  -0.7168  -0.7004  -0.6912  -0.6813  -0.6797
 -0.6746  -0.6616  -0.6582  -0.6513  -0.6273  -0.6187  -0.6154  -0.6089
 -0.6052  -0.5990  -0.5829  -0.5749  -0.5691  -0.5615  -0.5558  -0.5474
 -0.5337  -0.5265  -0.5247  -0.5162  -0.5153  -0.5078  -0.5061  -0.4967
 -0.4873  -0.4856  -0.4743  -0.4670  -0.4630  -0.4627  -0.4586  -0.4191
 -0.3962  -0.3842  -0.3572  -0.3517  -0.3236  -0.2862  -0.2485

          Ground-State Mulliken Net Atomic Charges

     Atom                 Charge (a.u.)
  ----------------------------------------
      1 C                    -0.192214
      2 C                    -0.254196
      3 S                    -0.023638
      4 C                    -0.018248
      5 H                     0.195806
      6 C                    -0.026908
      7 C                     0.241278
      8 C                     0.244696
      9 C                    -0.040835
     10 C                    -0.027088
     11 O                    -0.333593
     12 O                    -0.340283
     13 C                    -0.085882
     14 H                     0.122602
     15 H                     0.091068
     16 H                     0.093056
     17 C                    -0.087324
     18 H                     0.125519
     19 H                     0.095177
     20 H                     0.088986
     21 C                    -0.225554
     22 S                    -0.041558
     23 C                     0.004209
     24 H                     0.191393
     25 H                     0.205781
     26 C                    -0.054906
     27 S                     0.127737
     28 C                    -0.204554
     29 C                    -0.079244
     30 C                    -0.018380
     31 C                     0.345620
     32 C                    -0.134788
     33 S                     0.059227
     34 C                     0.459741
     35 O                    -0.444818
     36 O                    -0.297602
     37 F                    -0.211820
     38 C                    -0.054599
     39 H                     0.117042
     40 H                     0.085241
     41 H                     0.084917
     42 H                     0.218934
  ----------------------------------------
  Sum of atomic charges =     0.000000

                    Cartesian Multipole Moments
 -----------------------------------------------------------------
    Charge (ESU x 10^10)
                 0.0000
    Dipole Moment (Debye)
         X       3.1285      Y       2.3313      Z       3.2537
       Tot       5.0802
    Quadrupole Moments (Debye-Ang)
        XX    -182.4497     XY       7.8434     YY    -168.0985
        XZ     -19.9662     YZ      -9.4627     ZZ    -191.7126

 Total job time:  304.43s(wall), 9885.54s(cpu)
        *  Thank you very much for using Q-Chem.  Have a nice day.  *
