 Q-Chem 5.4, Q-Chem, Inc., Pleasanton, CA (2021)
 Q-Chem 5.4.0 for Intel X86 EM64T Linux

User input:
--------------------------------------------------------------
$molecule
0 1
C	0.047927	-8.519741	-0.267851
C	0.056157	-7.635967	0.801461
S	0.029285	-7.651740	-1.822194
C	0.054516	-6.261894	0.415201
H	0.063290	-7.954738	1.851431
C	0.054687	-6.079985	-1.012650
C	0.028030	-4.798382	-1.584194
C	0.031399	-5.153542	1.309433
C	0.000427	-3.869626	0.737539
C	0.003462	-3.688927	-0.691828
O	0.061128	-5.481075	2.631211
O	-0.003021	-4.479871	-2.911907
C	0.602710	-5.356026	-3.854716
H	0.670671	-4.790496	-4.803517
H	-0.006913	-6.268513	-4.034285
H	1.623507	-5.658187	-3.535185
C	-0.375708	-4.546999	3.610841
H	-0.441115	-5.107564	4.562544
H	-1.376277	-4.131473	3.364029
H	0.346107	-3.712085	3.743566
C	-0.000458	-2.314326	-1.074491
S	0.013144	-2.295487	1.548848
C	0.000000	-1.435180	0.000000
H	-0.004953	-1.993211	-2.123688
H	0.045468	-9.615985	-0.262315
C	0.000000	0.000000	0.000000
S	0.309721	0.844422	1.510732
C	0.847502	2.325108	0.727629
C	0.310602	0.853460	-1.064665
C	0.784173	2.159014	-0.678287
C	0.289451	0.790512	-2.486150
C	0.721927	1.979112	-3.106916
S	1.145464	3.152519	-1.965735
C	0.813355	2.216642	-4.559972
O	0.496884	1.338418	-5.350277
O	1.255274	3.421340	-5.004375
F	-0.087923	-0.257761	-3.246290
C	1.387494	3.754937	-6.334976
H	1.765978	4.793056	-6.370268
H	0.417095	3.693789	-6.875609
H	2.098820	3.081033	-6.861878
H	1.162229	3.189623	1.321510
$end

$rem
JOBTYPE		SP
EXCHANGE	HF
CORRELATION	pRIMP2
BASIS		cc-pvtz
METHOD		rimp2
AUX_BASIS	rimp2-cc-pvtz
SOLVENT_METHOD	PCM
PURECART	11111
SYMMETRY	false
MEM_TOTAL	110000
SCF_CONVERGENCE = 6
THRESH=10
GUI = 2
$end

$solvent
dielectric 4.90
$end
--------------------------------------------------------------

             Standard Nuclear Orientation (Angstroms)
    I     Atom           X                Y                Z
 ----------------------------------------------------------------
    1      C       0.0479270000    -8.5197410000    -0.2678510000
    2      C       0.0561570000    -7.6359670000     0.8014610000
    3      S       0.0292850000    -7.6517400000    -1.8221940000
    4      C       0.0545160000    -6.2618940000     0.4152010000
    5      H       0.0632900000    -7.9547380000     1.8514310000
    6      C       0.0546870000    -6.0799850000    -1.0126500000
    7      C       0.0280300000    -4.7983820000    -1.5841940000
    8      C       0.0313990000    -5.1535420000     1.3094330000
    9      C       0.0004270000    -3.8696260000     0.7375390000
   10      C       0.0034620000    -3.6889270000    -0.6918280000
   11      O       0.0611280000    -5.4810750000     2.6312110000
   12      O      -0.0030210000    -4.4798710000    -2.9119070000
   13      C       0.6027100000    -5.3560260000    -3.8547160000
   14      H       0.6706710000    -4.7904960000    -4.8035170000
   15      H      -0.0069130000    -6.2685130000    -4.0342850000
   16      H       1.6235070000    -5.6581870000    -3.5351850000
   17      C      -0.3757080000    -4.5469990000     3.6108410000
   18      H      -0.4411150000    -5.1075640000     4.5625440000
   19      H      -1.3762770000    -4.1314730000     3.3640290000
   20      H       0.3461070000    -3.7120850000     3.7435660000
   21      C      -0.0004580000    -2.3143260000    -1.0744910000
   22      S       0.0131440000    -2.2954870000     1.5488480000
   23      C       0.0000000000    -1.4351800000     0.0000000000
   24      H      -0.0049530000    -1.9932110000    -2.1236880000
   25      H       0.0454680000    -9.6159850000    -0.2623150000
   26      C       0.0000000000     0.0000000000     0.0000000000
   27      S       0.3097210000     0.8444220000     1.5107320000
   28      C       0.8475020000     2.3251080000     0.7276290000
   29      C       0.3106020000     0.8534600000    -1.0646650000
   30      C       0.7841730000     2.1590140000    -0.6782870000
   31      C       0.2894510000     0.7905120000    -2.4861500000
   32      C       0.7219270000     1.9791120000    -3.1069160000
   33      S       1.1454640000     3.1525190000    -1.9657350000
   34      C       0.8133550000     2.2166420000    -4.5599720000
   35      O       0.4968840000     1.3384180000    -5.3502770000
   36      O       1.2552740000     3.4213400000    -5.0043750000
   37      F      -0.0879230000    -0.2577610000    -3.2462900000
   38      C       1.3874940000     3.7549370000    -6.3349760000
   39      H       1.7659780000     4.7930560000    -6.3702680000
   40      H       0.4170950000     3.6937890000    -6.8756090000
   41      H       2.0988200000     3.0810330000    -6.8618780000
   42      H       1.1622290000     3.1896230000     1.3215100000
 ----------------------------------------------------------------

   10   -2754.2890493628      8.27e-07  Convergence criterion met
 Total energy in the final basis set =    -2754.2890493628
        RIMP2         total energy =     -2759.3471979054 a.u.

                    Orbital Energies (a.u.)
 --------------------------------------------------------------

 Alpha MOs
 -- Occupied --
-92.0162 -91.9965 -91.9900 -91.9866 -26.3388 -20.6123 -20.5928 -20.5910
-20.5504 -11.4107 -11.3788 -11.3197 -11.3184 -11.3113 -11.2983 -11.2983
-11.2963 -11.2952 -11.2886 -11.2876 -11.2872 -11.2852 -11.2843 -11.2823
-11.2801 -11.2614 -11.2596 -11.2547 -11.2502  -9.0149  -9.0004  -8.9907
 -8.9865  -6.6956  -6.6950  -6.6945  -6.6817  -6.6810  -6.6797  -6.6717
 -6.6710  -6.6701  -6.6675  -6.6669  -6.6660  -1.6534  -1.4721  -1.4169
 -1.4138  -1.3675  -1.2349  -1.1967  -1.1698  -1.1430  -1.0847  -1.0526
 -1.0489  -1.0289  -1.0033  -0.9939  -0.9731  -0.9608  -0.9506  -0.9385
 -0.8968  -0.8705  -0.8515  -0.8072  -0.7971  -0.7888  -0.7722  -0.7701
 -0.7576  -0.7331  -0.7226  -0.7200  -0.7014  -0.6901  -0.6847  -0.6789
 -0.6730  -0.6624  -0.6593  -0.6523  -0.6289  -0.6199  -0.6155  -0.6069
 -0.6007  -0.5955  -0.5880  -0.5758  -0.5691  -0.5603  -0.5543  -0.5470
 -0.5366  -0.5278  -0.5241  -0.5196  -0.5174  -0.5095  -0.5058  -0.4965
 -0.4856  -0.4849  -0.4792  -0.4672  -0.4620  -0.4615  -0.4585  -0.4251
 -0.3984  -0.3854  -0.3596  -0.3508  -0.3257  -0.2848  -0.2464

          Ground-State Mulliken Net Atomic Charges

     Atom                 Charge (a.u.)
  ----------------------------------------
      1 C                    -0.187597
      2 C                    -0.255257
      3 S                    -0.020894
      4 C                    -0.014275
      5 H                     0.196429
      6 C                    -0.028968
      7 C                     0.251995
      8 C                     0.243012
      9 C                    -0.039871
     10 C                    -0.028345
     11 O                    -0.333177
     12 O                    -0.339796
     13 C                    -0.086437
     14 H                     0.124327
     15 H                     0.091362
     16 H                     0.093740
     17 C                    -0.088659
     18 H                     0.126160
     19 H                     0.095013
     20 H                     0.089560
     21 C                    -0.230036
     22 S                    -0.042467
     23 C                    -0.037839
     24 H                     0.215925
     25 H                     0.206659
     26 C                     0.020677
     27 S                     0.094249
     28 C                    -0.236010
     29 C                    -0.082115
     30 C                    -0.020409
     31 C                     0.365962
     32 C                    -0.131922
     33 S                     0.045514
     34 C                     0.457866
     35 O                    -0.450405
     36 O                    -0.297946
     37 F                    -0.214968
     38 C                    -0.054804
     39 H                     0.116780
     40 H                     0.084636
     41 H                     0.084385
     42 H                     0.217947
  ----------------------------------------
  Sum of atomic charges =     0.000000

                    Cartesian Multipole Moments
 -----------------------------------------------------------------
    Charge (ESU x 10^10)
                 0.0000
    Dipole Moment (Debye)
         X       1.5232      Y       1.4635      Z       3.1504
       Tot       3.7930
    Quadrupole Moments (Debye-Ang)
        XX    -198.6290     XY       3.7961     YY    -159.5449
        XZ      -9.4926     YZ      -9.4790     ZZ    -182.2359

 Total job time:  336.49s(wall), 10811.93s(cpu)
        *  Thank you very much for using Q-Chem.  Have a nice day.  *
