 Q-Chem 5.4, Q-Chem, Inc., Pleasanton, CA (2021)
 Q-Chem 5.4.0 for Intel X86 EM64T Linux

User input:
--------------------------------------------------------------
$molecule
0 1
C	0.000687	-8.519741	-0.272104
C	0.194476	-7.635967	0.779533
S	-0.287581	-7.651740	-1.799596
C	0.125787	-6.261894	0.399427
H	0.383826	-7.954738	1.812314
C	-0.121989	-6.079985	-1.006762
C	-0.247488	-4.798382	-1.564994
C	0.258303	-5.153542	1.284087
C	0.128493	-3.869626	0.726260
C	-0.116725	-3.688927	-0.681918
O	0.517104	-5.481075	2.580622
O	-0.508622	-4.479871	-2.867144
C	-0.075811	-5.356026	-3.900814
H	-0.173640	-4.790496	-4.847002
H	-0.707354	-6.268513	-3.971794
H	0.984963	-5.658187	-3.763397
C	0.257016	-4.546999	3.621225
H	0.357864	-5.107564	4.569828
H	-0.771211	-4.131473	3.551910
H	0.990913	-3.712085	3.626592
C	-0.187034	-2.314326	-1.058088
S	0.281899	-2.295487	1.523035
C	-0.000000	-1.435180	-0.000000
H	-0.373653	-1.993211	-2.090565
H	-0.000773	-9.615985	-0.266226
C	0.000000	0.000000	0.000000
S	0.158383	0.885376	1.510732
C	0.430876	2.436951	0.727629
C	0.157682	0.894430	-1.064665
C	0.397351	2.262384	-0.678287
C	0.147783	0.828765	-2.486150
C	0.367291	2.074406	-3.106916
S	0.580633	3.303533	-1.965735
C	0.416083	2.324204	-4.559972
O	0.256921	1.404367	-5.350277
O	0.642094	3.587338	-5.004375
F	-0.041828	-0.269113	-3.246290
C	0.714377	3.938827	-6.334976
H	0.906844	5.026898	-6.370268
H	-0.230661	3.710099	-6.875609
H	1.531918	3.398681	-6.861878
H	0.590699	3.342984	1.321510
$end

$rem
JOBTYPE		SP
EXCHANGE	HF
CORRELATION	pRIMP2
BASIS		cc-pvtz
METHOD		rimp2
AUX_BASIS	rimp2-cc-pvtz
SOLVENT_METHOD	PCM
PURECART	11111
SYMMETRY	false
MEM_TOTAL	110000
SCF_CONVERGENCE = 6
THRESH=10
GUI = 2
$end

$solvent
dielectric 4.90
$end
--------------------------------------------------------------

             Standard Nuclear Orientation (Angstroms)
    I     Atom           X                Y                Z
 ----------------------------------------------------------------
    1      C       0.0006870000    -8.5197410000    -0.2721040000
    2      C       0.1944760000    -7.6359670000     0.7795330000
    3      S      -0.2875810000    -7.6517400000    -1.7995960000
    4      C       0.1257870000    -6.2618940000     0.3994270000
    5      H       0.3838260000    -7.9547380000     1.8123140000
    6      C      -0.1219890000    -6.0799850000    -1.0067620000
    7      C      -0.2474880000    -4.7983820000    -1.5649940000
    8      C       0.2583030000    -5.1535420000     1.2840870000
    9      C       0.1284930000    -3.8696260000     0.7262600000
   10      C      -0.1167250000    -3.6889270000    -0.6819180000
   11      O       0.5171040000    -5.4810750000     2.5806220000
   12      O      -0.5086220000    -4.4798710000    -2.8671440000
   13      C      -0.0758110000    -5.3560260000    -3.9008140000
   14      H      -0.1736400000    -4.7904960000    -4.8470020000
   15      H      -0.7073540000    -6.2685130000    -3.9717940000
   16      H       0.9849630000    -5.6581870000    -3.7633970000
   17      C       0.2570160000    -4.5469990000     3.6212250000
   18      H       0.3578640000    -5.1075640000     4.5698280000
   19      H      -0.7712110000    -4.1314730000     3.5519100000
   20      H       0.9909130000    -3.7120850000     3.6265920000
   21      C      -0.1870340000    -2.3143260000    -1.0580880000
   22      S       0.2818990000    -2.2954870000     1.5230350000
   23      C       0.0000000000    -1.4351800000     0.0000000000
   24      H      -0.3736530000    -1.9932110000    -2.0905650000
   25      H      -0.0007730000    -9.6159850000    -0.2662260000
   26      C       0.0000000000     0.0000000000     0.0000000000
   27      S       0.1583830000     0.8853760000     1.5107320000
   28      C       0.4308760000     2.4369510000     0.7276290000
   29      C       0.1576820000     0.8944300000    -1.0646650000
   30      C       0.3973510000     2.2623840000    -0.6782870000
   31      C       0.1477830000     0.8287650000    -2.4861500000
   32      C       0.3672910000     2.0744060000    -3.1069160000
   33      S       0.5806330000     3.3035330000    -1.9657350000
   34      C       0.4160830000     2.3242040000    -4.5599720000
   35      O       0.2569210000     1.4043670000    -5.3502770000
   36      O       0.6420940000     3.5873380000    -5.0043750000
   37      F      -0.0418280000    -0.2691130000    -3.2462900000
   38      C       0.7143770000     3.9388270000    -6.3349760000
   39      H       0.9068440000     5.0268980000    -6.3702680000
   40      H      -0.2306610000     3.7100990000    -6.8756090000
   41      H       1.5319180000     3.3986810000    -6.8618780000
   42      H       0.5906990000     3.3429840000     1.3215100000
 ----------------------------------------------------------------

   10   -2754.2951653564      8.29e-07  Convergence criterion met
 Total energy in the final basis set =    -2754.2951653564
        RIMP2         total energy =     -2759.3508677345 a.u.

                    Orbital Energies (a.u.)
 --------------------------------------------------------------

 Alpha MOs
 -- Occupied --
-92.0161 -91.9952 -91.9911 -91.9871 -26.3384 -20.6118 -20.5931 -20.5916
-20.5495 -11.4100 -11.3789 -11.3202 -11.3194 -11.3141 -11.2977 -11.2965
-11.2965 -11.2922 -11.2884 -11.2882 -11.2878 -11.2854 -11.2848 -11.2811
-11.2808 -11.2621 -11.2605 -11.2572 -11.2505  -9.0146  -8.9992  -8.9918
 -8.9870  -6.6954  -6.6948  -6.6943  -6.6805  -6.6798  -6.6785  -6.6728
 -6.6721  -6.6711  -6.6679  -6.6673  -6.6665  -1.6529  -1.4715  -1.4172
 -1.4143  -1.3668  -1.2339  -1.1974  -1.1699  -1.1426  -1.0850  -1.0531
 -1.0484  -1.0282  -1.0039  -0.9942  -0.9726  -0.9612  -0.9509  -0.9385
 -0.8972  -0.8697  -0.8523  -0.8074  -0.7966  -0.7890  -0.7724  -0.7698
 -0.7581  -0.7332  -0.7216  -0.7199  -0.7019  -0.6899  -0.6851  -0.6785
 -0.6726  -0.6625  -0.6597  -0.6527  -0.6296  -0.6203  -0.6159  -0.6063
 -0.5999  -0.5942  -0.5887  -0.5764  -0.5693  -0.5601  -0.5541  -0.5482
 -0.5373  -0.5275  -0.5234  -0.5204  -0.5176  -0.5098  -0.5055  -0.4964
 -0.4859  -0.4844  -0.4802  -0.4678  -0.4620  -0.4612  -0.4589  -0.4245
 -0.3987  -0.3861  -0.3599  -0.3508  -0.3258  -0.2848  -0.2472

          Ground-State Mulliken Net Atomic Charges

     Atom                 Charge (a.u.)
  ----------------------------------------
      1 C                    -0.186230
      2 C                    -0.255283
      3 S                    -0.019945
      4 C                    -0.012351
      5 H                     0.196497
      6 C                    -0.029340
      7 C                     0.253100
      8 C                     0.241262
      9 C                    -0.037774
     10 C                    -0.034970
     11 O                    -0.333173
     12 O                    -0.339299
     13 C                    -0.086402
     14 H                     0.124490
     15 H                     0.091452
     16 H                     0.094083
     17 C                    -0.088526
     18 H                     0.126037
     19 H                     0.095078
     20 H                     0.089670
     21 C                    -0.212977
     22 S                    -0.040616
     23 C                    -0.040694
     24 H                     0.211350
     25 H                     0.206915
     26 C                    -0.005524
     27 S                     0.083843
     28 C                    -0.238988
     29 C                    -0.057607
     30 C                    -0.021369
     31 C                     0.386646
     32 C                    -0.138937
     33 S                     0.038394
     34 C                     0.459668
     35 O                    -0.452030
     36 O                    -0.298014
     37 F                    -0.216426
     38 C                    -0.054984
     39 H                     0.116657
     40 H                     0.084414
     41 H                     0.084343
     42 H                     0.217560
  ----------------------------------------
  Sum of atomic charges =     0.000000

                    Cartesian Multipole Moments
 -----------------------------------------------------------------
    Charge (ESU x 10^10)
                 0.0000
    Dipole Moment (Debye)
         X       0.8443      Y       1.1485      Z       3.1426
       Tot       3.4507
    Quadrupole Moments (Debye-Ang)
        XX    -201.3697     XY       1.3952     YY    -157.0967
        XZ      -3.3531     YZ      -9.3210     ZZ    -181.3178

 Total job time:  282.17s(wall), 9297.14s(cpu)
        *  Thank you very much for using Q-Chem.  Have a nice day.  *
