 Q-Chem 5.4, Q-Chem, Inc., Pleasanton, CA (2021)
 Q-Chem 5.4.0 for Intel X86 EM64T Linux

User input:
--------------------------------------------------------------
$molecule
0 1
C	-0.093711	-8.519741	0.255459
C	0.083869	-7.635967	-0.799036
S	-0.345260	-7.651740	1.789425
C	0.018411	-6.261894	-0.418360
H	0.259169	-7.954738	-1.834294
C	-0.229701	-6.079985	0.987769
C	-0.302697	-4.798382	1.555260
C	0.196459	-5.153542	-1.294992
C	0.127651	-3.869626	-0.726408
C	-0.123544	-3.688927	0.680716
O	0.396706	-5.481075	-2.601852
O	-0.502673	-4.479871	2.868193
C	-1.262918	-5.356026	3.691495
H	-1.494604	-4.790496	4.614080
H	-0.693738	-6.268513	3.974195
H	-2.212720	-5.658187	3.199559
C	0.997016	-4.546999	-3.490743
H	1.226691	-5.107564	-4.416630
H	1.939526	-4.131473	-3.073934
H	0.309214	-3.712085	-3.746794
C	-0.186133	-2.314326	1.058247
S	0.256010	-2.295487	-1.527599
C	0.000000	-1.435180	0.000000
H	-0.363896	-1.993211	2.092285
H	-0.090328	-9.615985	0.250435
C	0.000000	0.000000	0.000000
S	0.234946	0.868203	1.510732
C	0.641630	2.390125	0.727629
C	0.235036	0.877284	-1.064665
C	0.593019	2.219143	-0.678287
C	0.219452	0.812732	-2.486150
C	0.546689	2.034501	-3.106916
S	0.866345	3.240357	-1.965735
C	0.617067	2.279095	-4.559972
O	0.378342	1.376631	-5.350277
O	0.952308	3.517725	-5.004375
F	-0.065123	-0.264443	-3.246290
C	1.054950	3.861577	-6.334976
H	1.341516	4.928732	-6.370268
H	0.093573	3.716085	-6.875609
H	1.822303	3.252232	-6.861878
H	0.879812	3.278780	1.321510
$end

$rem
JOBTYPE		SP
EXCHANGE	HF
CORRELATION	pRIMP2
BASIS		cc-pvtz
METHOD		rimp2
AUX_BASIS	rimp2-cc-pvtz
SOLVENT_METHOD	PCM
PURECART	11111
SYMMETRY	false
MEM_TOTAL	110000
SCF_CONVERGENCE = 6
THRESH=10
GUI = 2
$end

$solvent
dielectric 4.90
$end
--------------------------------------------------------------

             Standard Nuclear Orientation (Angstroms)
    I     Atom           X                Y                Z
 ----------------------------------------------------------------
    1      C      -0.0937110000    -8.5197410000     0.2554590000
    2      C       0.0838690000    -7.6359670000    -0.7990360000
    3      S      -0.3452600000    -7.6517400000     1.7894250000
    4      C       0.0184110000    -6.2618940000    -0.4183600000
    5      H       0.2591690000    -7.9547380000    -1.8342940000
    6      C      -0.2297010000    -6.0799850000     0.9877690000
    7      C      -0.3026970000    -4.7983820000     1.5552600000
    8      C       0.1964590000    -5.1535420000    -1.2949920000
    9      C       0.1276510000    -3.8696260000    -0.7264080000
   10      C      -0.1235440000    -3.6889270000     0.6807160000
   11      O       0.3967060000    -5.4810750000    -2.6018520000
   12      O      -0.5026730000    -4.4798710000     2.8681930000
   13      C      -1.2629180000    -5.3560260000     3.6914950000
   14      H      -1.4946040000    -4.7904960000     4.6140800000
   15      H      -0.6937380000    -6.2685130000     3.9741950000
   16      H      -2.2127200000    -5.6581870000     3.1995590000
   17      C       0.9970160000    -4.5469990000    -3.4907430000
   18      H       1.2266910000    -5.1075640000    -4.4166300000
   19      H       1.9395260000    -4.1314730000    -3.0739340000
   20      H       0.3092140000    -3.7120850000    -3.7467940000
   21      C      -0.1861330000    -2.3143260000     1.0582470000
   22      S       0.2560100000    -2.2954870000    -1.5275990000
   23      C       0.0000000000    -1.4351800000     0.0000000000
   24      H      -0.3638960000    -1.9932110000     2.0922850000
   25      H      -0.0903280000    -9.6159850000     0.2504350000
   26      C       0.0000000000     0.0000000000     0.0000000000
   27      S       0.2349460000     0.8682030000     1.5107320000
   28      C       0.6416300000     2.3901250000     0.7276290000
   29      C       0.2350360000     0.8772840000    -1.0646650000
   30      C       0.5930190000     2.2191430000    -0.6782870000
   31      C       0.2194520000     0.8127320000    -2.4861500000
   32      C       0.5466890000     2.0345010000    -3.1069160000
   33      S       0.8663450000     3.2403570000    -1.9657350000
   34      C       0.6170670000     2.2790950000    -4.5599720000
   35      O       0.3783420000     1.3766310000    -5.3502770000
   36      O       0.9523080000     3.5177250000    -5.0043750000
   37      F      -0.0651230000    -0.2644430000    -3.2462900000
   38      C       1.0549500000     3.8615770000    -6.3349760000
   39      H       1.3415160000     4.9287320000    -6.3702680000
   40      H       0.0935730000     3.7160850000    -6.8756090000
   41      H       1.8223030000     3.2522320000    -6.8618780000
   42      H       0.8798120000     3.2787800000     1.3215100000
 ----------------------------------------------------------------

   10   -2754.2888239063      8.51e-07  Convergence criterion met
 Total energy in the final basis set =    -2754.2888239063
        RIMP2         total energy =     -2759.3467319050 a.u.

                    Orbital Energies (a.u.)
 --------------------------------------------------------------

 Alpha MOs
 -- Occupied --
-92.0146 -91.9957 -91.9862 -91.9854 -26.3361 -20.6124 -20.5917 -20.5912
-20.5504 -11.4107 -11.3789 -11.3184 -11.3178 -11.3125 -11.2982 -11.2977
-11.2970 -11.2947 -11.2887 -11.2863 -11.2855 -11.2842 -11.2837 -11.2831
-11.2796 -11.2613 -11.2587 -11.2579 -11.2497  -9.0132  -8.9997  -8.9864
 -8.9861  -6.6939  -6.6933  -6.6928  -6.6809  -6.6803  -6.6789  -6.6672
 -6.6671  -6.6666  -6.6665  -6.6656  -6.6654  -1.6518  -1.4721  -1.4155
 -1.4143  -1.3675  -1.2349  -1.1959  -1.1690  -1.1423  -1.0846  -1.0520
 -1.0484  -1.0291  -1.0021  -0.9937  -0.9728  -0.9605  -0.9498  -0.9382
 -0.8957  -0.8701  -0.8518  -0.8100  -0.7959  -0.7870  -0.7752  -0.7633
 -0.7580  -0.7324  -0.7214  -0.7188  -0.7004  -0.6889  -0.6839  -0.6789
 -0.6741  -0.6621  -0.6584  -0.6522  -0.6284  -0.6194  -0.6161  -0.6069
 -0.6024  -0.5961  -0.5879  -0.5702  -0.5701  -0.5641  -0.5595  -0.5527
 -0.5305  -0.5263  -0.5247  -0.5182  -0.5148  -0.5085  -0.5019  -0.4953
 -0.4863  -0.4831  -0.4799  -0.4645  -0.4617  -0.4613  -0.4579  -0.4245
 -0.3948  -0.3868  -0.3608  -0.3498  -0.3248  -0.2840  -0.2464

          Ground-State Mulliken Net Atomic Charges

     Atom                 Charge (a.u.)
  ----------------------------------------
      1 C                    -0.188388
      2 C                    -0.254570
      3 S                    -0.023433
      4 C                    -0.015004
      5 H                     0.196613
      6 C                    -0.029193
      7 C                     0.242080
      8 C                     0.242400
      9 C                    -0.041357
     10 C                    -0.018709
     11 O                    -0.333546
     12 O                    -0.340467
     13 C                    -0.085662
     14 H                     0.122230
     15 H                     0.091221
     16 H                     0.094253
     17 C                    -0.089849
     18 H                     0.125751
     19 H                     0.094141
     20 H                     0.092164
     21 C                    -0.251868
     22 S                    -0.024409
     23 C                     0.008046
     24 H                     0.187453
     25 H                     0.206491
     26 C                     0.040820
     27 S                     0.101190
     28 C                    -0.235820
     29 C                    -0.111750
     30 C                    -0.022339
     31 C                     0.361531
     32 C                    -0.131688
     33 S                     0.041442
     34 C                     0.459343
     35 O                    -0.450458
     36 O                    -0.297836
     37 F                    -0.208216
     38 C                    -0.054894
     39 H                     0.116813
     40 H                     0.084641
     41 H                     0.084383
     42 H                     0.216451
  ----------------------------------------
  Sum of atomic charges =     0.000000

                    Cartesian Multipole Moments
 -----------------------------------------------------------------
    Charge (ESU x 10^10)
                 0.0000
    Dipole Moment (Debye)
         X       0.7013      Y       1.7203      Z       2.8511
       Tot       3.4030
    Quadrupole Moments (Debye-Ang)
        XX    -196.9228     XY       5.5844     YY    -160.8251
        XZ     -12.0334     YZ     -10.0682     ZZ    -184.6052

 Total job time:  423.86s(wall), 9765.07s(cpu)
        *  Thank you very much for using Q-Chem.  Have a nice day.  *
