 Q-Chem 5.4, Q-Chem, Inc., Pleasanton, CA (2021)
 Q-Chem 5.4.0 for Intel X86 EM64T Linux

User input:
--------------------------------------------------------------
$molecule
0 1
C	-0.267851	-8.519741	-0.047927
C	0.801461	-7.635967	-0.056157
S	-1.822194	-7.651740	-0.029285
C	0.415201	-6.261894	-0.054516
H	1.851431	-7.954738	-0.063290
C	-1.012650	-6.079985	-0.054687
C	-1.584194	-4.798382	-0.028030
C	1.309433	-5.153542	-0.031399
C	0.737539	-3.869626	-0.000427
C	-0.691828	-3.688927	-0.003462
O	2.631211	-5.481075	-0.061128
O	-2.911907	-4.479871	0.003021
C	-3.854716	-5.356026	-0.602710
H	-4.803517	-4.790496	-0.670671
H	-4.034285	-6.268513	0.006913
H	-3.535185	-5.658187	-1.623507
C	3.610841	-4.546999	0.375708
H	4.562544	-5.107564	0.441115
H	3.364029	-4.131473	1.376277
H	3.743566	-3.712085	-0.346107
C	-1.074491	-2.314326	0.000458
S	1.548848	-2.295487	-0.013144
C	-0.000000	-1.435180	-0.000000
H	-2.123688	-1.993211	0.004953
H	-0.262315	-9.615985	-0.045468
C	0.000000	0.000000	0.000000
S	0.579852	0.687566	1.510732
C	1.591625	1.895024	0.727629
C	0.583771	0.695758	-1.064665
C	1.475308	1.760606	-0.678287
C	0.542366	0.643841	-2.486150
C	1.355286	1.612843	-3.106916
S	2.154609	2.570627	-1.965735
C	1.522440	1.804778	-4.559972
O	0.924684	1.087757	-5.350277
O	2.349739	2.785679	-5.004375
F	-0.170780	-0.212144	-3.246290
C	2.588082	3.053936	-6.334976
H	3.298799	3.899999	-6.370268
H	1.655291	3.328371	-6.875609
H	3.026021	2.177385	-6.861878
H	2.183053	2.599759	1.321510
$end

$rem
JOBTYPE		SP
EXCHANGE	HF
CORRELATION	pRIMP2
BASIS		cc-pvtz
METHOD		rimp2
AUX_BASIS	rimp2-cc-pvtz
SOLVENT_METHOD	PCM
PURECART	11111
SYMMETRY	false
MEM_TOTAL	110000
SCF_CONVERGENCE = 6
THRESH=10
GUI = 2
$end

$solvent
dielectric 4.90
$end
--------------------------------------------------------------

             Standard Nuclear Orientation (Angstroms)
    I     Atom           X                Y                Z
 ----------------------------------------------------------------
    1      C      -0.2678510000    -8.5197410000    -0.0479270000
    2      C       0.8014610000    -7.6359670000    -0.0561570000
    3      S      -1.8221940000    -7.6517400000    -0.0292850000
    4      C       0.4152010000    -6.2618940000    -0.0545160000
    5      H       1.8514310000    -7.9547380000    -0.0632900000
    6      C      -1.0126500000    -6.0799850000    -0.0546870000
    7      C      -1.5841940000    -4.7983820000    -0.0280300000
    8      C       1.3094330000    -5.1535420000    -0.0313990000
    9      C       0.7375390000    -3.8696260000    -0.0004270000
   10      C      -0.6918280000    -3.6889270000    -0.0034620000
   11      O       2.6312110000    -5.4810750000    -0.0611280000
   12      O      -2.9119070000    -4.4798710000     0.0030210000
   13      C      -3.8547160000    -5.3560260000    -0.6027100000
   14      H      -4.8035170000    -4.7904960000    -0.6706710000
   15      H      -4.0342850000    -6.2685130000     0.0069130000
   16      H      -3.5351850000    -5.6581870000    -1.6235070000
   17      C       3.6108410000    -4.5469990000     0.3757080000
   18      H       4.5625440000    -5.1075640000     0.4411150000
   19      H       3.3640290000    -4.1314730000     1.3762770000
   20      H       3.7435660000    -3.7120850000    -0.3461070000
   21      C      -1.0744910000    -2.3143260000     0.0004580000
   22      S       1.5488480000    -2.2954870000    -0.0131440000
   23      C       0.0000000000    -1.4351800000     0.0000000000
   24      H      -2.1236880000    -1.9932110000     0.0049530000
   25      H      -0.2623150000    -9.6159850000    -0.0454680000
   26      C       0.0000000000     0.0000000000     0.0000000000
   27      S       0.5798520000     0.6875660000     1.5107320000
   28      C       1.5916250000     1.8950240000     0.7276290000
   29      C       0.5837710000     0.6957580000    -1.0646650000
   30      C       1.4753080000     1.7606060000    -0.6782870000
   31      C       0.5423660000     0.6438410000    -2.4861500000
   32      C       1.3552860000     1.6128430000    -3.1069160000
   33      S       2.1546090000     2.5706270000    -1.9657350000
   34      C       1.5224400000     1.8047780000    -4.5599720000
   35      O       0.9246840000     1.0877570000    -5.3502770000
   36      O       2.3497390000     2.7856790000    -5.0043750000
   37      F      -0.1707800000    -0.2121440000    -3.2462900000
   38      C       2.5880820000     3.0539360000    -6.3349760000
   39      H       3.2987990000     3.8999990000    -6.3702680000
   40      H       1.6552910000     3.3283710000    -6.8756090000
   41      H       3.0260210000     2.1773850000    -6.8618780000
   42      H       2.1830530000     2.5997590000     1.3215100000
 ----------------------------------------------------------------

   11   -2754.2676054380      4.75e-07  Convergence criterion met
 Total energy in the final basis set =    -2754.2676054380
        RIMP2         total energy =     -2759.3294238392 a.u.

                    Orbital Energies (a.u.)
 --------------------------------------------------------------

 Alpha MOs
 -- Occupied --
-92.0153 -91.9992 -91.9858 -91.9854 -26.3338 -20.6138 -20.5916 -20.5902
-20.5533 -11.4130 -11.3765 -11.3178 -11.3162 -11.3076 -11.3040 -11.2977
-11.2919 -11.2895 -11.2893 -11.2876 -11.2867 -11.2852 -11.2841 -11.2826
-11.2788 -11.2579 -11.2577 -11.2518 -11.2492  -9.0138  -9.0031  -8.9864
 -8.9853  -6.6945  -6.6938  -6.6934  -6.6843  -6.6837  -6.6823  -6.6674
 -6.6667  -6.6663  -6.6657  -6.6657  -6.6648  -1.6467  -1.4738  -1.4156
 -1.4130  -1.3695  -1.2372  -1.1939  -1.1682  -1.1431  -1.0828  -1.0505
 -1.0489  -1.0296  -1.0003  -0.9919  -0.9729  -0.9602  -0.9497  -0.9379
 -0.8945  -0.8718  -0.8468  -0.8042  -0.7919  -0.7868  -0.7745  -0.7679
 -0.7558  -0.7314  -0.7179  -0.7152  -0.7000  -0.6905  -0.6812  -0.6799
 -0.6735  -0.6606  -0.6583  -0.6517  -0.6294  -0.6190  -0.6166  -0.6086
 -0.6038  -0.5981  -0.5834  -0.5773  -0.5655  -0.5637  -0.5549  -0.5452
 -0.5357  -0.5275  -0.5227  -0.5148  -0.5134  -0.5083  -0.5013  -0.4930
 -0.4902  -0.4859  -0.4697  -0.4680  -0.4637  -0.4624  -0.4605  -0.4061
 -0.3975  -0.3855  -0.3549  -0.3507  -0.3092  -0.2941  -0.2581

          Ground-State Mulliken Net Atomic Charges

     Atom                 Charge (a.u.)
  ----------------------------------------
      1 C                    -0.189624
      2 C                    -0.254875
      3 S                    -0.023563
      4 C                    -0.014520
      5 H                     0.196108
      6 C                    -0.028729
      7 C                     0.242046
      8 C                     0.240753
      9 C                    -0.041869
     10 C                    -0.021874
     11 O                    -0.333453
     12 O                    -0.339666
     13 C                    -0.085524
     14 H                     0.122316
     15 H                     0.090383
     16 H                     0.094223
     17 C                    -0.086601
     18 H                     0.124912
     19 H                     0.093849
     20 H                     0.089733
     21 C                    -0.216932
     22 S                    -0.012258
     23 C                    -0.080079
     24 H                     0.196401
     25 H                     0.206078
     26 C                    -0.029082
     27 S                     0.130032
     28 C                    -0.200048
     29 C                    -0.110384
     30 C                     0.000479
     31 C                     0.373368
     32 C                    -0.144443
     33 S                     0.054804
     34 C                     0.458638
     35 O                    -0.444123
     36 O                    -0.297340
     37 F                    -0.208678
     38 C                    -0.054675
     39 H                     0.116940
     40 H                     0.085150
     41 H                     0.085078
     42 H                     0.217047
  ----------------------------------------
  Sum of atomic charges =     0.000000

                    Cartesian Multipole Moments
 -----------------------------------------------------------------
    Charge (ESU x 10^10)
                 0.0000
    Dipole Moment (Debye)
         X       3.0758      Y       2.0060      Z       2.7302
       Tot       4.5759
    Quadrupole Moments (Debye-Ang)
        XX    -170.7583     XY       9.1695     YY    -166.9236
        XZ      -1.8999     YZ      -7.3047     ZZ    -203.2063

 Total job time:  339.48s(wall), 9952.88s(cpu)
        *  Thank you very much for using Q-Chem.  Have a nice day.  *
