 Q-Chem 5.4, Q-Chem, Inc., Pleasanton, CA (2021)
 Q-Chem 5.4.0 for Intel X86 EM64T Linux

User input:
--------------------------------------------------------------
$molecule
0 1
C	-0.092419	-8.519741	-0.255929
C	0.449364	-7.635967	0.666007
S	-0.885736	-7.651740	-1.592708
C	0.254813	-6.261894	0.332317
H	0.980526	-7.954738	1.571741
C	-0.458965	-6.079985	-0.904324
C	-0.767823	-4.798382	-1.385968
C	0.681909	-5.153542	1.118303
C	0.369139	-3.869626	0.638514
C	-0.342916	-3.688927	-0.600871
O	1.368544	-5.481075	2.248132
O	-1.458570	-4.479871	-2.520275
C	-1.405396	-5.356026	-3.639637
H	-1.820940	-4.790496	-4.495304
H	-2.023129	-6.268513	-3.490336
H	-0.361595	-5.658187	-3.873314
C	1.480048	-4.546999	3.314934
H	1.899255	-5.107564	4.171837
H	0.490123	-4.131473	3.601473
H	2.171521	-3.712085	3.068969
C	-0.537642	-2.314326	-0.930308
S	0.785807	-2.295487	1.334769
C	0.000000	-1.435180	0.000000
H	-1.066134	-1.993211	-1.836691
H	-0.091781	-9.615985	-0.249906
C	0.000000	0.000000	0.000000
S	0.309721	0.844422	1.510732
C	0.847502	2.325108	0.727629
C	0.310602	0.853460	-1.064665
C	0.784173	2.159014	-0.678287
C	0.289451	0.790512	-2.486150
C	0.721927	1.979112	-3.106916
S	1.145464	3.152519	-1.965735
C	0.813355	2.216642	-4.559972
O	0.496884	1.338418	-5.350277
O	1.255274	3.421340	-5.004375
F	-0.087923	-0.257761	-3.246290
C	1.387494	3.754937	-6.334976
H	1.765978	4.793056	-6.370268
H	0.417095	3.693789	-6.875609
H	2.098820	3.081033	-6.861878
H	1.162229	3.189623	1.321510
$end

$rem
JOBTYPE		SP
EXCHANGE	HF
CORRELATION	pRIMP2
BASIS		cc-pvtz
METHOD		rimp2
AUX_BASIS	rimp2-cc-pvtz
SOLVENT_METHOD	PCM
PURECART	11111
SYMMETRY	false
MEM_TOTAL	110000
SCF_CONVERGENCE = 6
THRESH=10
GUI = 2
$end

$solvent
dielectric 4.90
$end
--------------------------------------------------------------

             Standard Nuclear Orientation (Angstroms)
    I     Atom           X                Y                Z
 ----------------------------------------------------------------
    1      C      -0.0924190000    -8.5197410000    -0.2559290000
    2      C       0.4493640000    -7.6359670000     0.6660070000
    3      S      -0.8857360000    -7.6517400000    -1.5927080000
    4      C       0.2548130000    -6.2618940000     0.3323170000
    5      H       0.9805260000    -7.9547380000     1.5717410000
    6      C      -0.4589650000    -6.0799850000    -0.9043240000
    7      C      -0.7678230000    -4.7983820000    -1.3859680000
    8      C       0.6819090000    -5.1535420000     1.1183030000
    9      C       0.3691390000    -3.8696260000     0.6385140000
   10      C      -0.3429160000    -3.6889270000    -0.6008710000
   11      O       1.3685440000    -5.4810750000     2.2481320000
   12      O      -1.4585700000    -4.4798710000    -2.5202750000
   13      C      -1.4053960000    -5.3560260000    -3.6396370000
   14      H      -1.8209400000    -4.7904960000    -4.4953040000
   15      H      -2.0231290000    -6.2685130000    -3.4903360000
   16      H      -0.3615950000    -5.6581870000    -3.8733140000
   17      C       1.4800480000    -4.5469990000     3.3149340000
   18      H       1.8992550000    -5.1075640000     4.1718370000
   19      H       0.4901230000    -4.1314730000     3.6014730000
   20      H       2.1715210000    -3.7120850000     3.0689690000
   21      C      -0.5376420000    -2.3143260000    -0.9303080000
   22      S       0.7858070000    -2.2954870000     1.3347690000
   23      C       0.0000000000    -1.4351800000     0.0000000000
   24      H      -1.0661340000    -1.9932110000    -1.8366910000
   25      H      -0.0917810000    -9.6159850000    -0.2499060000
   26      C       0.0000000000     0.0000000000     0.0000000000
   27      S       0.3097210000     0.8444220000     1.5107320000
   28      C       0.8475020000     2.3251080000     0.7276290000
   29      C       0.3106020000     0.8534600000    -1.0646650000
   30      C       0.7841730000     2.1590140000    -0.6782870000
   31      C       0.2894510000     0.7905120000    -2.4861500000
   32      C       0.7219270000     1.9791120000    -3.1069160000
   33      S       1.1454640000     3.1525190000    -1.9657350000
   34      C       0.8133550000     2.2166420000    -4.5599720000
   35      O       0.4968840000     1.3384180000    -5.3502770000
   36      O       1.2552740000     3.4213400000    -5.0043750000
   37      F      -0.0879230000    -0.2577610000    -3.2462900000
   38      C       1.3874940000     3.7549370000    -6.3349760000
   39      H       1.7659780000     4.7930560000    -6.3702680000
   40      H       0.4170950000     3.6937890000    -6.8756090000
   41      H       2.0988200000     3.0810330000    -6.8618780000
   42      H       1.1622290000     3.1896230000     1.3215100000
 ----------------------------------------------------------------

   10   -2754.2906111529      7.82e-07  Convergence criterion met
 Total energy in the final basis set =    -2754.2906111529
        RIMP2         total energy =     -2759.3475352575 a.u.

                    Orbital Energies (a.u.)
 --------------------------------------------------------------

 Alpha MOs
 -- Occupied --
-92.0163 -91.9958 -91.9915 -91.9864 -26.3360 -20.6122 -20.5928 -20.5908
-20.5502 -11.4105 -11.3780 -11.3197 -11.3178 -11.3106 -11.2979 -11.2979
-11.2959 -11.2953 -11.2886 -11.2877 -11.2863 -11.2851 -11.2841 -11.2832
-11.2798 -11.2614 -11.2591 -11.2552 -11.2500  -9.0148  -8.9998  -8.9920
 -8.9863  -6.6955  -6.6949  -6.6945  -6.6811  -6.6804  -6.6791  -6.6729
 -6.6722  -6.6712  -6.6672  -6.6666  -6.6658  -1.6494  -1.4719  -1.4169
 -1.4136  -1.3673  -1.2346  -1.1964  -1.1694  -1.1427  -1.0844  -1.0523
 -1.0484  -1.0285  -1.0029  -0.9935  -0.9725  -0.9609  -0.9505  -0.9382
 -0.8966  -0.8701  -0.8508  -0.8047  -0.7951  -0.7882  -0.7718  -0.7701
 -0.7575  -0.7322  -0.7200  -0.7172  -0.7013  -0.6895  -0.6835  -0.6787
 -0.6724  -0.6617  -0.6593  -0.6522  -0.6294  -0.6198  -0.6162  -0.6067
 -0.6012  -0.5954  -0.5881  -0.5766  -0.5684  -0.5604  -0.5553  -0.5469
 -0.5376  -0.5273  -0.5221  -0.5186  -0.5171  -0.5091  -0.5048  -0.4955
 -0.4863  -0.4850  -0.4776  -0.4689  -0.4620  -0.4614  -0.4600  -0.4210
 -0.3976  -0.3857  -0.3584  -0.3507  -0.3238  -0.2860  -0.2488

          Ground-State Mulliken Net Atomic Charges

     Atom                 Charge (a.u.)
  ----------------------------------------
      1 C                    -0.188165
      2 C                    -0.254924
      3 S                    -0.021243
      4 C                    -0.013770
      5 H                     0.196236
      6 C                    -0.028221
      7 C                     0.244063
      8 C                     0.240445
      9 C                    -0.045489
     10 C                    -0.026833
     11 O                    -0.333022
     12 O                    -0.339312
     13 C                    -0.085669
     14 H                     0.123729
     15 H                     0.090687
     16 H                     0.094052
     17 C                    -0.088011
     18 H                     0.125597
     19 H                     0.094733
     20 H                     0.089592
     21 C                    -0.228669
     22 S                    -0.021482
     23 C                    -0.039443
     24 H                     0.195675
     25 H                     0.206517
     26 C                     0.005535
     27 S                     0.090578
     28 C                    -0.223673
     29 C                    -0.055943
     30 C                    -0.020356
     31 C                     0.367782
     32 C                    -0.138030
     33 S                     0.042436
     34 C                     0.457068
     35 O                    -0.450113
     36 O                    -0.297972
     37 F                    -0.212043
     38 C                    -0.054809
     39 H                     0.116656
     40 H                     0.084518
     41 H                     0.084471
     42 H                     0.216825
  ----------------------------------------
  Sum of atomic charges =     0.000000

                    Cartesian Multipole Moments
 -----------------------------------------------------------------
    Charge (ESU x 10^10)
                -0.0000
    Dipole Moment (Debye)
         X       1.5244      Y       1.5303      Z       3.1191
       Tot       3.7940
    Quadrupole Moments (Debye-Ang)
        XX    -197.9045     XY       4.0776     YY    -160.3690
        XZ       3.2209     YZ      -8.9722     ZZ    -183.0850

 Total job time:  330.86s(wall), 10555.45s(cpu)
        *  Thank you very much for using Q-Chem.  Have a nice day.  *
