 Q-Chem 5.4, Q-Chem, Inc., Pleasanton, CA (2021)
 Q-Chem 5.4.0 for Intel X86 EM64T Linux

User input:
--------------------------------------------------------------
$molecule
0 1
C	0.092419	-8.519741	0.255929
C	-0.449364	-7.635967	-0.666007
S	0.885736	-7.651740	1.592708
C	-0.254813	-6.261894	-0.332317
H	-0.980526	-7.954738	-1.571741
C	0.458965	-6.079985	0.904324
C	0.767823	-4.798382	1.385968
C	-0.681909	-5.153542	-1.118303
C	-0.369139	-3.869626	-0.638514
C	0.342916	-3.688927	0.600871
O	-1.368544	-5.481075	-2.248132
O	1.458570	-4.479871	2.520275
C	1.405396	-5.356026	3.639637
H	1.820940	-4.790496	4.495304
H	2.023129	-6.268513	3.490336
H	0.361595	-5.658187	3.873314
C	-1.480048	-4.546999	-3.314934
H	-1.899255	-5.107564	-4.171837
H	-0.490123	-4.131473	-3.601473
H	-2.171521	-3.712085	-3.068969
C	0.537642	-2.314326	0.930308
S	-0.785807	-2.295487	-1.334769
C	-0.000000	-1.435180	-0.000000
H	1.066134	-1.993211	1.836691
H	0.091781	-9.615985	0.249906
C	0.000000	0.000000	0.000000
S	0.451648	0.777811	1.510732
C	1.238377	2.142617	0.727629
C	0.454085	0.786559	-1.064665
C	1.147169	1.990043	-0.678287
C	0.422325	0.728240	-2.486150
C	1.054629	1.823683	-3.106916
S	1.675491	2.905718	-1.965735
C	1.185914	2.041729	-4.559972
O	0.721749	1.231802	-5.350277
O	1.830313	3.151386	-5.004375
F	-0.131347	-0.238577	-3.246290
C	2.018453	3.456956	-6.334976
H	2.571455	4.413580	-6.370268
H	1.052178	3.565244	-6.875609
H	2.601950	2.669768	-6.861878
H	1.698444	2.939346	1.321510
$end

$rem
JOBTYPE		SP
EXCHANGE	HF
CORRELATION	pRIMP2
BASIS		cc-pvtz
METHOD		rimp2
AUX_BASIS	rimp2-cc-pvtz
SOLVENT_METHOD	PCM
PURECART	11111
SYMMETRY	false
MEM_TOTAL	110000
SCF_CONVERGENCE = 6
THRESH=10
GUI = 2
$end

$solvent
dielectric 4.90
$end
--------------------------------------------------------------

             Standard Nuclear Orientation (Angstroms)
    I     Atom           X                Y                Z
 ----------------------------------------------------------------
    1      C       0.0924190000    -8.5197410000     0.2559290000
    2      C      -0.4493640000    -7.6359670000    -0.6660070000
    3      S       0.8857360000    -7.6517400000     1.5927080000
    4      C      -0.2548130000    -6.2618940000    -0.3323170000
    5      H      -0.9805260000    -7.9547380000    -1.5717410000
    6      C       0.4589650000    -6.0799850000     0.9043240000
    7      C       0.7678230000    -4.7983820000     1.3859680000
    8      C      -0.6819090000    -5.1535420000    -1.1183030000
    9      C      -0.3691390000    -3.8696260000    -0.6385140000
   10      C       0.3429160000    -3.6889270000     0.6008710000
   11      O      -1.3685440000    -5.4810750000    -2.2481320000
   12      O       1.4585700000    -4.4798710000     2.5202750000
   13      C       1.4053960000    -5.3560260000     3.6396370000
   14      H       1.8209400000    -4.7904960000     4.4953040000
   15      H       2.0231290000    -6.2685130000     3.4903360000
   16      H       0.3615950000    -5.6581870000     3.8733140000
   17      C      -1.4800480000    -4.5469990000    -3.3149340000
   18      H      -1.8992550000    -5.1075640000    -4.1718370000
   19      H      -0.4901230000    -4.1314730000    -3.6014730000
   20      H      -2.1715210000    -3.7120850000    -3.0689690000
   21      C       0.5376420000    -2.3143260000     0.9303080000
   22      S      -0.7858070000    -2.2954870000    -1.3347690000
   23      C       0.0000000000    -1.4351800000     0.0000000000
   24      H       1.0661340000    -1.9932110000     1.8366910000
   25      H       0.0917810000    -9.6159850000     0.2499060000
   26      C       0.0000000000     0.0000000000     0.0000000000
   27      S       0.4516480000     0.7778110000     1.5107320000
   28      C       1.2383770000     2.1426170000     0.7276290000
   29      C       0.4540850000     0.7865590000    -1.0646650000
   30      C       1.1471690000     1.9900430000    -0.6782870000
   31      C       0.4223250000     0.7282400000    -2.4861500000
   32      C       1.0546290000     1.8236830000    -3.1069160000
   33      S       1.6754910000     2.9057180000    -1.9657350000
   34      C       1.1859140000     2.0417290000    -4.5599720000
   35      O       0.7217490000     1.2318020000    -5.3502770000
   36      O       1.8303130000     3.1513860000    -5.0043750000
   37      F      -0.1313470000    -0.2385770000    -3.2462900000
   38      C       2.0184530000     3.4569560000    -6.3349760000
   39      H       2.5714550000     4.4135800000    -6.3702680000
   40      H       1.0521780000     3.5652440000    -6.8756090000
   41      H       2.6019500000     2.6697680000    -6.8618780000
   42      H       1.6984440000     2.9393460000     1.3215100000
 ----------------------------------------------------------------

   10   -2754.2796614884      8.49e-07  Convergence criterion met
 Total energy in the final basis set =    -2754.2796614884
        RIMP2         total energy =     -2759.3404311587 a.u.

                    Orbital Energies (a.u.)
 --------------------------------------------------------------

 Alpha MOs
 -- Occupied --
-92.0159 -91.9976 -91.9853 -91.9845 -26.3346 -20.6130 -20.5908 -20.5905
-20.5517 -11.4118 -11.3778 -11.3176 -11.3158 -11.3053 -11.3015 -11.3007
-11.2984 -11.2972 -11.2890 -11.2866 -11.2857 -11.2852 -11.2833 -11.2827
-11.2783 -11.2597 -11.2570 -11.2531 -11.2490  -9.0143  -9.0015  -8.9854
 -8.9852  -6.6950  -6.6944  -6.6940  -6.6828  -6.6821  -6.6808  -6.6663
 -6.6662  -6.6656  -6.6656  -6.6647  -6.6646  -1.6490  -1.4729  -1.4149
 -1.4132  -1.3684  -1.2364  -1.1947  -1.1686  -1.1428  -1.0839  -1.0508
 -1.0488  -1.0298  -1.0007  -0.9929  -0.9732  -0.9595  -0.9491  -0.9385
 -0.8944  -0.8713  -0.8492  -0.8089  -0.7936  -0.7868  -0.7751  -0.7641
 -0.7566  -0.7311  -0.7197  -0.7169  -0.6997  -0.6894  -0.6824  -0.6794
 -0.6740  -0.6614  -0.6577  -0.6516  -0.6281  -0.6188  -0.6154  -0.6077
 -0.6025  -0.5983  -0.5886  -0.5708  -0.5682  -0.5667  -0.5556  -0.5525
 -0.5297  -0.5267  -0.5210  -0.5176  -0.5138  -0.5087  -0.5021  -0.4941
 -0.4864  -0.4849  -0.4770  -0.4643  -0.4623  -0.4622  -0.4572  -0.4220
 -0.3946  -0.3849  -0.3572  -0.3508  -0.3227  -0.2850  -0.2488

          Ground-State Mulliken Net Atomic Charges

     Atom                 Charge (a.u.)
  ----------------------------------------
      1 C                    -0.191093
      2 C                    -0.253770
      3 S                    -0.025006
      4 C                    -0.016166
      5 H                     0.196228
      6 C                    -0.028566
      7 C                     0.238880
      8 C                     0.242951
      9 C                    -0.044983
     10 C                    -0.022450
     11 O                    -0.333937
     12 O                    -0.340985
     13 C                    -0.085472
     14 H                     0.121896
     15 H                     0.090910
     16 H                     0.093686
     17 C                    -0.087420
     18 H                     0.124567
     19 H                     0.095515
     20 H                     0.089664
     21 C                    -0.254581
     22 S                    -0.011074
     23 C                    -0.017430
     24 H                     0.194042
     25 H                     0.205949
     26 C                    -0.021031
     27 S                     0.098535
     28 C                    -0.204799
     29 C                    -0.061568
     30 C                    -0.027078
     31 C                     0.364765
     32 C                    -0.131272
     33 S                     0.048357
     34 C                     0.456432
     35 O                    -0.447885
     36 O                    -0.297700
     37 F                    -0.207056
     38 C                    -0.054862
     39 H                     0.116897
     40 H                     0.084691
     41 H                     0.084793
     42 H                     0.217425
  ----------------------------------------
  Sum of atomic charges =     0.000000

                    Cartesian Multipole Moments
 -----------------------------------------------------------------
    Charge (ESU x 10^10)
                -0.0000
    Dipole Moment (Debye)
         X       1.7316      Y       2.2189      Z       2.8523
       Tot       4.0072
    Quadrupole Moments (Debye-Ang)
        XX    -195.6209     XY       8.7530     YY    -166.0337
        XZ       1.2024     YZ      -9.8295     ZZ    -182.3548

 Total job time:  318.84s(wall), 10466.70s(cpu)
        *  Thank you very much for using Q-Chem.  Have a nice day.  *
