 Q-Chem 5.4, Q-Chem, Inc., Pleasanton, CA (2021)
 Q-Chem 5.4.0 for Intel X86 EM64T Linux

User input:
--------------------------------------------------------------
$molecule
0 1
C	-0.208886	-8.519741	0.174379
C	0.472151	-7.635967	-0.650052
S	-1.193717	-7.651740	1.377058
C	0.225125	-6.261894	-0.353105
H	1.141594	-7.954738	-1.458961
C	-0.692811	-6.079985	0.740583
C	-1.039773	-4.798382	1.195546
C	0.817634	-5.153542	-1.023267
C	0.473754	-3.869626	-0.565262
C	-0.447350	-3.688927	0.527745
O	1.644483	-5.481075	-2.054917
O	-1.869424	-4.479871	2.232592
C	-2.939466	-5.356026	2.565470
H	-3.601405	-4.790496	3.248608
H	-2.587892	-6.268513	3.094885
H	-3.516052	-5.658187	1.664539
C	2.608813	-4.546999	-2.524564
H	3.270661	-5.107564	-3.211568
H	3.216646	-4.131473	-1.692342
H	2.141184	-3.712085	-3.090211
C	-0.690319	-2.314326	0.823402
S	0.985511	-2.295487	-1.194935
C	-0.000000	-1.435180	-0.000000
H	-1.361286	-1.993211	1.630024
H	-0.203444	-9.615985	0.171719
C	0.000000	0.000000	0.000000
S	0.690437	0.576430	1.510732
C	1.896512	1.589852	0.727629
C	0.695720	0.583817	-1.064665
C	1.758621	1.477674	-0.678287
C	0.645928	0.539878	-2.486150
C	1.614763	1.352997	-3.106916
S	2.568261	2.157430	-1.965735
C	1.812707	1.512991	-4.559972
O	1.099523	0.910662	-5.350277
O	2.797769	2.335330	-5.004375
F	-0.205024	-0.179266	-3.246290
C	3.079074	2.558124	-6.334976
H	3.925910	3.267919	-6.370268
H	2.208109	2.990367	-6.875609
H	3.358147	1.618843	-6.861878
H	2.601331	2.181180	1.321510
$end

$rem
JOBTYPE		SP
EXCHANGE	HF
CORRELATION	pRIMP2
BASIS		cc-pvtz
METHOD		rimp2
AUX_BASIS	rimp2-cc-pvtz
SOLVENT_METHOD	PCM
PURECART	11111
SYMMETRY	false
MEM_TOTAL	110000
SCF_CONVERGENCE = 6
THRESH=10
GUI = 2
$end

$solvent
dielectric 4.90
$end
--------------------------------------------------------------

             Standard Nuclear Orientation (Angstroms)
    I     Atom           X                Y                Z
 ----------------------------------------------------------------
    1      C      -0.2088860000    -8.5197410000     0.1743790000
    2      C       0.4721510000    -7.6359670000    -0.6500520000
    3      S      -1.1937170000    -7.6517400000     1.3770580000
    4      C       0.2251250000    -6.2618940000    -0.3531050000
    5      H       1.1415940000    -7.9547380000    -1.4589610000
    6      C      -0.6928110000    -6.0799850000     0.7405830000
    7      C      -1.0397730000    -4.7983820000     1.1955460000
    8      C       0.8176340000    -5.1535420000    -1.0232670000
    9      C       0.4737540000    -3.8696260000    -0.5652620000
   10      C      -0.4473500000    -3.6889270000     0.5277450000
   11      O       1.6444830000    -5.4810750000    -2.0549170000
   12      O      -1.8694240000    -4.4798710000     2.2325920000
   13      C      -2.9394660000    -5.3560260000     2.5654700000
   14      H      -3.6014050000    -4.7904960000     3.2486080000
   15      H      -2.5878920000    -6.2685130000     3.0948850000
   16      H      -3.5160520000    -5.6581870000     1.6645390000
   17      C       2.6088130000    -4.5469990000    -2.5245640000
   18      H       3.2706610000    -5.1075640000    -3.2115680000
   19      H       3.2166460000    -4.1314730000    -1.6923420000
   20      H       2.1411840000    -3.7120850000    -3.0902110000
   21      C      -0.6903190000    -2.3143260000     0.8234020000
   22      S       0.9855110000    -2.2954870000    -1.1949350000
   23      C       0.0000000000    -1.4351800000     0.0000000000
   24      H      -1.3612860000    -1.9932110000     1.6300240000
   25      H      -0.2034440000    -9.6159850000     0.1717190000
   26      C       0.0000000000     0.0000000000     0.0000000000
   27      S       0.6904370000     0.5764300000     1.5107320000
   28      C       1.8965120000     1.5898520000     0.7276290000
   29      C       0.6957200000     0.5838170000    -1.0646650000
   30      C       1.7586210000     1.4776740000    -0.6782870000
   31      C       0.6459280000     0.5398780000    -2.4861500000
   32      C       1.6147630000     1.3529970000    -3.1069160000
   33      S       2.5682610000     2.1574300000    -1.9657350000
   34      C       1.8127070000     1.5129910000    -4.5599720000
   35      O       1.0995230000     0.9106620000    -5.3502770000
   36      O       2.7977690000     2.3353300000    -5.0043750000
   37      F      -0.2050240000    -0.1792660000    -3.2462900000
   38      C       3.0790740000     2.5581240000    -6.3349760000
   39      H       3.9259100000     3.2679190000    -6.3702680000
   40      H       2.2081090000     2.9903670000    -6.8756090000
   41      H       3.3581470000     1.6188430000    -6.8618780000
   42      H       2.6013310000     2.1811800000     1.3215100000
 ----------------------------------------------------------------

   11   -2754.2503856151      5.18e-07  Convergence criterion met
 Total energy in the final basis set =    -2754.2503856151
        RIMP2         total energy =     -2759.3205844502 a.u.

                    Orbital Energies (a.u.)
 --------------------------------------------------------------

 Alpha MOs
 -- Occupied --
-92.0178 -92.0042 -91.9861 -91.9834 -26.3344 -20.6154 -20.5908 -20.5878
-20.5557 -11.4153 -11.3782 -11.3177 -11.3171 -11.3112 -11.3088 -11.3013
-11.2940 -11.2919 -11.2903 -11.2872 -11.2859 -11.2842 -11.2813 -11.2800
-11.2756 -11.2578 -11.2534 -11.2478 -11.2409  -9.0165  -9.0078  -8.9869
 -8.9834  -6.6971  -6.6963  -6.6960  -6.6890  -6.6884  -6.6871  -6.6678
 -6.6671  -6.6661  -6.6644  -6.6638  -6.6629  -1.6480  -1.4755  -1.4147
 -1.4107  -1.3715  -1.2425  -1.1925  -1.1691  -1.1443  -1.0845  -1.0516
 -1.0475  -1.0330  -0.9994  -0.9916  -0.9754  -0.9581  -0.9484  -0.9393
 -0.8929  -0.8751  -0.8449  -0.8079  -0.7941  -0.7861  -0.7771  -0.7636
 -0.7542  -0.7301  -0.7196  -0.7160  -0.6985  -0.6913  -0.6814  -0.6792
 -0.6764  -0.6631  -0.6570  -0.6503  -0.6266  -0.6174  -0.6153  -0.6107
 -0.6076  -0.6003  -0.5807  -0.5755  -0.5657  -0.5612  -0.5550  -0.5495
 -0.5317  -0.5293  -0.5220  -0.5162  -0.5137  -0.5071  -0.5031  -0.4955
 -0.4895  -0.4844  -0.4728  -0.4670  -0.4647  -0.4639  -0.4570  -0.4136
 -0.3954  -0.3836  -0.3604  -0.3472  -0.3214  -0.2885  -0.2465

          Ground-State Mulliken Net Atomic Charges

     Atom                 Charge (a.u.)
  ----------------------------------------
      1 C                    -0.197024
      2 C                    -0.253102
      3 S                    -0.027774
      4 C                    -0.024388
      5 H                     0.195484
      6 C                    -0.023692
      7 C                     0.226880
      8 C                     0.244174
      9 C                    -0.046890
     10 C                     0.001461
     11 O                    -0.333002
     12 O                    -0.341235
     13 C                    -0.085405
     14 H                     0.121195
     15 H                     0.090068
     16 H                     0.093221
     17 C                    -0.089013
     18 H                     0.125496
     19 H                     0.093551
     20 H                     0.090655
     21 C                    -0.304737
     22 S                    -0.028203
     23 C                     0.037844
     24 H                     0.189505
     25 H                     0.204946
     26 C                    -0.103376
     27 S                     0.143582
     28 C                    -0.173255
     29 C                    -0.069370
     30 C                    -0.019894
     31 C                     0.354902
     32 C                    -0.126336
     33 S                     0.068901
     34 C                     0.458648
     35 O                    -0.440842
     36 O                    -0.297087
     37 F                    -0.209297
     38 C                    -0.054578
     39 H                     0.117370
     40 H                     0.085649
     41 H                     0.085309
     42 H                     0.219662
  ----------------------------------------
  Sum of atomic charges =     0.000000

                    Cartesian Multipole Moments
 -----------------------------------------------------------------
    Charge (ESU x 10^10)
                 0.0000
    Dipole Moment (Debye)
         X       4.2067      Y       2.9647      Z       2.3367
       Tot       5.6521
    Quadrupole Moments (Debye-Ang)
        XX    -174.4068     XY      10.1754     YY    -175.8005
        XZ     -21.0725     YZ      -5.8790     ZZ    -194.4233

 Total job time:  305.44s(wall), 10015.72s(cpu)
        *  Thank you very much for using Q-Chem.  Have a nice day.  *
