 Q-Chem 5.4, Q-Chem, Inc., Pleasanton, CA (2021)
 Q-Chem 5.4.0 for Intel X86 EM64T Linux

User input:
--------------------------------------------------------------
$molecule
0 1
C	0.268090	-8.519741	-0.046574
C	-0.733920	-7.635967	0.326886
S	1.722318	-7.651740	-0.595708
C	-0.371516	-6.261894	0.193236
H	-1.718130	-7.954738	0.692700
C	0.970283	-6.079985	-0.294958
C	1.498243	-4.798382	-0.515487
C	-1.219725	-5.153542	0.477358
C	-0.692914	-3.869626	0.252655
C	0.651289	-3.688927	-0.233366
O	-2.451623	-5.481075	0.957369
O	2.735264	-4.479871	-0.998769
C	3.828387	-5.356026	-0.752029
H	4.743213	-4.790496	-1.012675
H	3.788623	-6.268513	-1.386303
H	3.877260	-5.658187	0.316492
C	-3.521580	-4.546999	0.881930
H	-4.438260	-5.107564	1.145969
H	-3.631868	-4.131473	-0.142712
H	-3.399425	-3.712085	1.605610
C	1.009535	-2.314326	-0.367928
S	-1.450945	-2.295487	0.542088
C	-0.000000	-1.435180	-0.000000
H	1.993920	-1.993211	-0.730999
H	0.262047	-9.615985	-0.046991
C	0.000000	0.000000	0.000000
S	0.382139	0.814215	1.510732
C	1.046923	2.242395	0.727629
C	0.383804	0.823142	-1.064665
C	0.969360	2.082453	-0.678287
C	0.357247	0.762277	-2.486150
C	0.891671	1.908660	-3.106916
S	1.415865	3.040689	-1.965735
C	1.003453	2.137318	-4.559972
O	0.611644	1.290019	-5.350277
O	1.548687	3.298916	-5.004375
F	-0.110054	-0.249117	-3.246290
C	1.709479	3.619721	-6.334976
H	2.177001	4.620902	-6.370268
H	0.737443	3.643380	-6.875609
H	2.359363	2.886384	-6.861878
H	1.435800	3.076190	1.321510
$end

$rem
JOBTYPE		SP
EXCHANGE	HF
CORRELATION	pRIMP2
BASIS		cc-pvtz
METHOD		rimp2
AUX_BASIS	rimp2-cc-pvtz
SOLVENT_METHOD	PCM
PURECART	11111
SYMMETRY	false
MEM_TOTAL	110000
SCF_CONVERGENCE = 6
THRESH=10
GUI = 2
$end

$solvent
dielectric 4.90
$end
--------------------------------------------------------------

             Standard Nuclear Orientation (Angstroms)
    I     Atom           X                Y                Z
 ----------------------------------------------------------------
    1      C       0.2680900000    -8.5197410000    -0.0465740000
    2      C      -0.7339200000    -7.6359670000     0.3268860000
    3      S       1.7223180000    -7.6517400000    -0.5957080000
    4      C      -0.3715160000    -6.2618940000     0.1932360000
    5      H      -1.7181300000    -7.9547380000     0.6927000000
    6      C       0.9702830000    -6.0799850000    -0.2949580000
    7      C       1.4982430000    -4.7983820000    -0.5154870000
    8      C      -1.2197250000    -5.1535420000     0.4773580000
    9      C      -0.6929140000    -3.8696260000     0.2526550000
   10      C       0.6512890000    -3.6889270000    -0.2333660000
   11      O      -2.4516230000    -5.4810750000     0.9573690000
   12      O       2.7352640000    -4.4798710000    -0.9987690000
   13      C       3.8283870000    -5.3560260000    -0.7520290000
   14      H       4.7432130000    -4.7904960000    -1.0126750000
   15      H       3.7886230000    -6.2685130000    -1.3863030000
   16      H       3.8772600000    -5.6581870000     0.3164920000
   17      C      -3.5215800000    -4.5469990000     0.8819300000
   18      H      -4.4382600000    -5.1075640000     1.1459690000
   19      H      -3.6318680000    -4.1314730000    -0.1427120000
   20      H      -3.3994250000    -3.7120850000     1.6056100000
   21      C       1.0095350000    -2.3143260000    -0.3679280000
   22      S      -1.4509450000    -2.2954870000     0.5420880000
   23      C       0.0000000000    -1.4351800000     0.0000000000
   24      H       1.9939200000    -1.9932110000    -0.7309990000
   25      H       0.2620470000    -9.6159850000    -0.0469910000
   26      C       0.0000000000     0.0000000000     0.0000000000
   27      S       0.3821390000     0.8142150000     1.5107320000
   28      C       1.0469230000     2.2423950000     0.7276290000
   29      C       0.3838040000     0.8231420000    -1.0646650000
   30      C       0.9693600000     2.0824530000    -0.6782870000
   31      C       0.3572470000     0.7622770000    -2.4861500000
   32      C       0.8916710000     1.9086600000    -3.1069160000
   33      S       1.4158650000     3.0406890000    -1.9657350000
   34      C       1.0034530000     2.1373180000    -4.5599720000
   35      O       0.6116440000     1.2900190000    -5.3502770000
   36      O       1.5486870000     3.2989160000    -5.0043750000
   37      F      -0.1100540000    -0.2491170000    -3.2462900000
   38      C       1.7094790000     3.6197210000    -6.3349760000
   39      H       2.1770010000     4.6209020000    -6.3702680000
   40      H       0.7374430000     3.6433800000    -6.8756090000
   41      H       2.3593630000     2.8863840000    -6.8618780000
   42      H       1.4358000000     3.0761900000     1.3215100000
 ----------------------------------------------------------------

   10   -2754.2851692990      8.81e-07  Convergence criterion met
 Total energy in the final basis set =    -2754.2851692990
        RIMP2         total energy =     -2759.3413199646 a.u.

                    Orbital Energies (a.u.)
 --------------------------------------------------------------

 Alpha MOs
 -- Occupied --
-92.0157 -91.9960 -91.9879 -91.9861 -26.3337 -20.6125 -20.5921 -20.5912
-20.5510 -11.4111 -11.3770 -11.3187 -11.3177 -11.3033 -11.2995 -11.2994
-11.2964 -11.2933 -11.2887 -11.2867 -11.2859 -11.2854 -11.2848 -11.2837
-11.2796 -11.2605 -11.2587 -11.2572 -11.2497  -9.0140  -8.9999  -8.9883
 -8.9860  -6.6947  -6.6941  -6.6936  -6.6812  -6.6805  -6.6792  -6.6693
 -6.6686  -6.6677  -6.6670  -6.6664  -6.6655  -1.6465  -1.4724  -1.4162
 -1.4140  -1.3678  -1.2344  -1.1953  -1.1681  -1.1422  -1.0837  -1.0516
 -1.0480  -1.0282  -1.0015  -0.9929  -0.9718  -0.9607  -0.9501  -0.9386
 -0.8953  -0.8699  -0.8490  -0.8037  -0.7919  -0.7877  -0.7733  -0.7701
 -0.7573  -0.7323  -0.7181  -0.7149  -0.7012  -0.6893  -0.6825  -0.6788
 -0.6718  -0.6604  -0.6586  -0.6524  -0.6297  -0.6198  -0.6165  -0.6070
 -0.6029  -0.5959  -0.5817  -0.5767  -0.5709  -0.5648  -0.5530  -0.5522
 -0.5331  -0.5264  -0.5244  -0.5158  -0.5139  -0.5078  -0.5015  -0.4951
 -0.4897  -0.4852  -0.4743  -0.4670  -0.4620  -0.4616  -0.4601  -0.4075
 -0.3986  -0.3872  -0.3591  -0.3472  -0.3162  -0.2894  -0.2569

          Ground-State Mulliken Net Atomic Charges

     Atom                 Charge (a.u.)
  ----------------------------------------
      1 C                    -0.188553
      2 C                    -0.254305
      3 S                    -0.022209
      4 C                    -0.015851
      5 H                     0.196292
      6 C                    -0.029228
      7 C                     0.242336
      8 C                     0.244640
      9 C                    -0.052951
     10 C                    -0.017264
     11 O                    -0.333553
     12 O                    -0.339812
     13 C                    -0.085639
     14 H                     0.122509
     15 H                     0.091264
     16 H                     0.093642
     17 C                    -0.086506
     18 H                     0.124775
     19 H                     0.095177
     20 H                     0.089150
     21 C                    -0.211612
     22 S                    -0.004033
     23 C                    -0.018841
     24 H                     0.199237
     25 H                     0.206380
     26 C                    -0.050364
     27 S                     0.122022
     28 C                    -0.225019
     29 C                    -0.125007
     30 C                    -0.001967
     31 C                     0.392866
     32 C                    -0.152150
     33 S                     0.043529
     34 C                     0.460116
     35 O                    -0.447892
     36 O                    -0.297732
     37 F                    -0.210706
     38 C                    -0.054866
     39 H                     0.116662
     40 H                     0.084803
     41 H                     0.084714
     42 H                     0.215947
  ----------------------------------------
  Sum of atomic charges =     0.000000

                    Cartesian Multipole Moments
 -----------------------------------------------------------------
    Charge (ESU x 10^10)
                -0.0000
    Dipole Moment (Debye)
         X       1.7258      Y       1.7623      Z       3.4130
       Tot       4.2110
    Quadrupole Moments (Debye-Ang)
        XX    -173.9520     XY       5.4602     YY    -162.0894
        XZ      -7.6052     YZ     -11.1299     ZZ    -205.6698

 Total job time:  303.63s(wall), 9464.68s(cpu)
        *  Thank you very much for using Q-Chem.  Have a nice day.  *
