 Q-Chem 5.4, Q-Chem, Inc., Pleasanton, CA (2021)
 Q-Chem 5.4.0 for Intel X86 EM64T Linux

User input:
--------------------------------------------------------------
$molecule
0 1
C	0.092419	-8.519741	0.255929
C	-0.449364	-7.635967	-0.666007
S	0.885736	-7.651740	1.592708
C	-0.254813	-6.261894	-0.332317
H	-0.980526	-7.954738	-1.571741
C	0.458965	-6.079985	0.904324
C	0.767823	-4.798382	1.385968
C	-0.681909	-5.153542	-1.118303
C	-0.369139	-3.869626	-0.638514
C	0.342916	-3.688927	0.600871
O	-1.368544	-5.481075	-2.248132
O	1.458570	-4.479871	2.520275
C	1.405396	-5.356026	3.639637
H	1.820940	-4.790496	4.495304
H	2.023129	-6.268513	3.490336
H	0.361595	-5.658187	3.873314
C	-1.480048	-4.546999	-3.314934
H	-1.899255	-5.107564	-4.171837
H	-0.490123	-4.131473	-3.601473
H	-2.171521	-3.712085	-3.068969
C	0.537642	-2.314326	0.930308
S	-0.785807	-2.295487	-1.334769
C	0.000000	-1.435180	0.000000
H	1.066134	-1.993211	1.836691
H	0.091781	-9.615985	0.249906
C	0.000000	0.000000	0.000000
S	0.309721	0.844422	1.510732
C	0.847502	2.325108	0.727629
C	0.310602	0.853460	-1.064665
C	0.784173	2.159014	-0.678287
C	0.289451	0.790512	-2.486150
C	0.721927	1.979112	-3.106916
S	1.145464	3.152519	-1.965735
C	0.813355	2.216642	-4.559972
O	0.496884	1.338418	-5.350277
O	1.255274	3.421340	-5.004375
F	-0.087923	-0.257761	-3.246290
C	1.387494	3.754937	-6.334976
H	1.765978	4.793056	-6.370268
H	0.417095	3.693789	-6.875609
H	2.098820	3.081033	-6.861878
H	1.162229	3.189623	1.321510
$end

$rem
JOBTYPE		SP
EXCHANGE	HF
CORRELATION	pRIMP2
BASIS		cc-pvtz
METHOD		rimp2
AUX_BASIS	rimp2-cc-pvtz
SOLVENT_METHOD	PCM
PURECART	11111
SYMMETRY	false
MEM_TOTAL	110000
SCF_CONVERGENCE = 6
THRESH=10
GUI = 2
$end

$solvent
dielectric 4.90
$end
--------------------------------------------------------------

             Standard Nuclear Orientation (Angstroms)
    I     Atom           X                Y                Z
 ----------------------------------------------------------------
    1      C       0.0924190000    -8.5197410000     0.2559290000
    2      C      -0.4493640000    -7.6359670000    -0.6660070000
    3      S       0.8857360000    -7.6517400000     1.5927080000
    4      C      -0.2548130000    -6.2618940000    -0.3323170000
    5      H      -0.9805260000    -7.9547380000    -1.5717410000
    6      C       0.4589650000    -6.0799850000     0.9043240000
    7      C       0.7678230000    -4.7983820000     1.3859680000
    8      C      -0.6819090000    -5.1535420000    -1.1183030000
    9      C      -0.3691390000    -3.8696260000    -0.6385140000
   10      C       0.3429160000    -3.6889270000     0.6008710000
   11      O      -1.3685440000    -5.4810750000    -2.2481320000
   12      O       1.4585700000    -4.4798710000     2.5202750000
   13      C       1.4053960000    -5.3560260000     3.6396370000
   14      H       1.8209400000    -4.7904960000     4.4953040000
   15      H       2.0231290000    -6.2685130000     3.4903360000
   16      H       0.3615950000    -5.6581870000     3.8733140000
   17      C      -1.4800480000    -4.5469990000    -3.3149340000
   18      H      -1.8992550000    -5.1075640000    -4.1718370000
   19      H      -0.4901230000    -4.1314730000    -3.6014730000
   20      H      -2.1715210000    -3.7120850000    -3.0689690000
   21      C       0.5376420000    -2.3143260000     0.9303080000
   22      S      -0.7858070000    -2.2954870000    -1.3347690000
   23      C       0.0000000000    -1.4351800000     0.0000000000
   24      H       1.0661340000    -1.9932110000     1.8366910000
   25      H       0.0917810000    -9.6159850000     0.2499060000
   26      C       0.0000000000     0.0000000000     0.0000000000
   27      S       0.3097210000     0.8444220000     1.5107320000
   28      C       0.8475020000     2.3251080000     0.7276290000
   29      C       0.3106020000     0.8534600000    -1.0646650000
   30      C       0.7841730000     2.1590140000    -0.6782870000
   31      C       0.2894510000     0.7905120000    -2.4861500000
   32      C       0.7219270000     1.9791120000    -3.1069160000
   33      S       1.1454640000     3.1525190000    -1.9657350000
   34      C       0.8133550000     2.2166420000    -4.5599720000
   35      O       0.4968840000     1.3384180000    -5.3502770000
   36      O       1.2552740000     3.4213400000    -5.0043750000
   37      F      -0.0879230000    -0.2577610000    -3.2462900000
   38      C       1.3874940000     3.7549370000    -6.3349760000
   39      H       1.7659780000     4.7930560000    -6.3702680000
   40      H       0.4170950000     3.6937890000    -6.8756090000
   41      H       2.0988200000     3.0810330000    -6.8618780000
   42      H       1.1622290000     3.1896230000     1.3215100000
 ----------------------------------------------------------------

   10   -2754.2886983534      8.02e-07  Convergence criterion met
 Total energy in the final basis set =    -2754.2886983534
        RIMP2         total energy =     -2759.3463198105 a.u.

                    Orbital Energies (a.u.)
 --------------------------------------------------------------

 Alpha MOs
 -- Occupied --
-92.0158 -91.9958 -91.9860 -91.9859 -26.3345 -20.6123 -20.5914 -20.5912
-20.5504 -11.4107 -11.3780 -11.3182 -11.3174 -11.3102 -11.2982 -11.2978
-11.2972 -11.2961 -11.2886 -11.2862 -11.2855 -11.2849 -11.2840 -11.2834
-11.2793 -11.2608 -11.2584 -11.2567 -11.2496  -9.0141  -8.9998  -8.9867
 -8.9859  -6.6949  -6.6943  -6.6938  -6.6811  -6.6804  -6.6790  -6.6676
 -6.6669  -6.6669  -6.6662  -6.6659  -6.6654  -1.6489  -1.4721  -1.4155
 -1.4141  -1.3675  -1.2348  -1.1956  -1.1687  -1.1423  -1.0843  -1.0516
 -1.0483  -1.0289  -1.0016  -0.9934  -0.9725  -0.9603  -0.9497  -0.9384
 -0.8952  -0.8701  -0.8507  -0.8089  -0.7934  -0.7870  -0.7750  -0.7642
 -0.7576  -0.7319  -0.7195  -0.7167  -0.7003  -0.6888  -0.6832  -0.6788
 -0.6730  -0.6615  -0.6583  -0.6522  -0.6288  -0.6194  -0.6160  -0.6068
 -0.6017  -0.5963  -0.5885  -0.5718  -0.5687  -0.5672  -0.5565  -0.5526
 -0.5296  -0.5272  -0.5216  -0.5181  -0.5143  -0.5089  -0.5019  -0.4945
 -0.4867  -0.4841  -0.4786  -0.4653  -0.4617  -0.4613  -0.4587  -0.4214
 -0.3954  -0.3858  -0.3581  -0.3506  -0.3231  -0.2846  -0.2493

          Ground-State Mulliken Net Atomic Charges

     Atom                 Charge (a.u.)
  ----------------------------------------
      1 C                    -0.189006
      2 C                    -0.253886
      3 S                    -0.023659
      4 C                    -0.014560
      5 H                     0.196483
      6 C                    -0.029831
      7 C                     0.241424
      8 C                     0.242287
      9 C                    -0.045556
     10 C                    -0.027408
     11 O                    -0.333891
     12 O                    -0.340539
     13 C                    -0.085487
     14 H                     0.122242
     15 H                     0.091086
     16 H                     0.093956
     17 C                    -0.087534
     18 H                     0.124725
     19 H                     0.095775
     20 H                     0.089632
     21 C                    -0.242531
     22 S                    -0.006235
     23 C                    -0.015740
     24 H                     0.194372
     25 H                     0.206338
     26 C                    -0.007525
     27 S                     0.096244
     28 C                    -0.219485
     29 C                    -0.072049
     30 C                    -0.024399
     31 C                     0.371378
     32 C                    -0.137707
     33 S                     0.042235
     34 C                     0.457130
     35 O                    -0.449872
     36 O                    -0.297873
     37 F                    -0.207889
     38 C                    -0.054841
     39 H                     0.116694
     40 H                     0.084515
     41 H                     0.084490
     42 H                     0.216495
  ----------------------------------------
  Sum of atomic charges =     0.000000

                    Cartesian Multipole Moments
 -----------------------------------------------------------------
    Charge (ESU x 10^10)
                -0.0000
    Dipole Moment (Debye)
         X       0.9833      Y       1.8085      Z       3.0201
       Tot       3.6549
    Quadrupole Moments (Debye-Ang)
        XX    -197.9774     XY       6.4756     YY    -162.1768
        XZ       3.1886     YZ     -10.6225     ZZ    -182.8582

 Total job time:  330.07s(wall), 10768.12s(cpu)
        *  Thank you very much for using Q-Chem.  Have a nice day.  *
