 Q-Chem 5.4, Q-Chem, Inc., Pleasanton, CA (2021)
 Q-Chem 5.4.0 for Intel X86 EM64T Linux

User input:
--------------------------------------------------------------
$molecule
0 1
C	-0.136647	-8.519741	0.235306
C	0.221346	-7.635967	-0.772334
S	-0.650746	-7.651740	1.702286
C	0.090779	-6.261894	-0.408807
H	0.573754	-7.954738	-1.761423
C	-0.397735	-6.079985	0.932876
C	-0.568166	-4.798382	1.479069
C	0.418347	-5.153542	-1.241204
C	0.251852	-3.869626	-0.693206
C	-0.239872	-3.688927	0.648921
O	0.842486	-5.481075	-2.493437
O	-0.993092	-4.479871	2.737331
C	-1.884752	-5.356026	3.416110
H	-2.273124	-4.790496	4.284447
H	-1.373310	-6.268513	3.793352
H	-2.734702	-5.658187	2.766716
C	1.588030	-4.546999	-3.264581
H	1.974995	-5.107564	-4.136519
H	2.443843	-4.131473	-2.690439
H	0.955140	-3.712085	-3.636177
C	-0.367068	-2.314326	1.009848
S	0.517386	-2.295487	-1.459936
C	0.000000	-1.435180	0.000000
H	-0.721689	-1.993211	1.997308
H	-0.132444	-9.615985	0.230945
C	0.000000	0.000000	0.000000
S	0.234946	0.868203	1.510732
C	0.641630	2.390125	0.727629
C	0.235036	0.877284	-1.064665
C	0.593019	2.219143	-0.678287
C	0.219452	0.812732	-2.486150
C	0.546689	2.034501	-3.106916
S	0.866345	3.240357	-1.965735
C	0.617067	2.279095	-4.559972
O	0.378342	1.376631	-5.350277
O	0.952308	3.517725	-5.004375
F	-0.065123	-0.264443	-3.246290
C	1.054950	3.861577	-6.334976
H	1.341516	4.928732	-6.370268
H	0.093573	3.716085	-6.875609
H	1.822303	3.252232	-6.861878
H	0.879812	3.278780	1.321510
$end

$rem
JOBTYPE		SP
EXCHANGE	HF
CORRELATION	pRIMP2
BASIS		cc-pvtz
METHOD		rimp2
AUX_BASIS	rimp2-cc-pvtz
SOLVENT_METHOD	PCM
PURECART	11111
SYMMETRY	false
MEM_TOTAL	110000
SCF_CONVERGENCE = 6
THRESH=10
GUI = 2
$end

$solvent
dielectric 4.90
$end
--------------------------------------------------------------

             Standard Nuclear Orientation (Angstroms)
    I     Atom           X                Y                Z
 ----------------------------------------------------------------
    1      C      -0.1366470000    -8.5197410000     0.2353060000
    2      C       0.2213460000    -7.6359670000    -0.7723340000
    3      S      -0.6507460000    -7.6517400000     1.7022860000
    4      C       0.0907790000    -6.2618940000    -0.4088070000
    5      H       0.5737540000    -7.9547380000    -1.7614230000
    6      C      -0.3977350000    -6.0799850000     0.9328760000
    7      C      -0.5681660000    -4.7983820000     1.4790690000
    8      C       0.4183470000    -5.1535420000    -1.2412040000
    9      C       0.2518520000    -3.8696260000    -0.6932060000
   10      C      -0.2398720000    -3.6889270000     0.6489210000
   11      O       0.8424860000    -5.4810750000    -2.4934370000
   12      O      -0.9930920000    -4.4798710000     2.7373310000
   13      C      -1.8847520000    -5.3560260000     3.4161100000
   14      H      -2.2731240000    -4.7904960000     4.2844470000
   15      H      -1.3733100000    -6.2685130000     3.7933520000
   16      H      -2.7347020000    -5.6581870000     2.7667160000
   17      C       1.5880300000    -4.5469990000    -3.2645810000
   18      H       1.9749950000    -5.1075640000    -4.1365190000
   19      H       2.4438430000    -4.1314730000    -2.6904390000
   20      H       0.9551400000    -3.7120850000    -3.6361770000
   21      C      -0.3670680000    -2.3143260000     1.0098480000
   22      S       0.5173860000    -2.2954870000    -1.4599360000
   23      C       0.0000000000    -1.4351800000     0.0000000000
   24      H      -0.7216890000    -1.9932110000     1.9973080000
   25      H      -0.1324440000    -9.6159850000     0.2309450000
   26      C       0.0000000000     0.0000000000     0.0000000000
   27      S       0.2349460000     0.8682030000     1.5107320000
   28      C       0.6416300000     2.3901250000     0.7276290000
   29      C       0.2350360000     0.8772840000    -1.0646650000
   30      C       0.5930190000     2.2191430000    -0.6782870000
   31      C       0.2194520000     0.8127320000    -2.4861500000
   32      C       0.5466890000     2.0345010000    -3.1069160000
   33      S       0.8663450000     3.2403570000    -1.9657350000
   34      C       0.6170670000     2.2790950000    -4.5599720000
   35      O       0.3783420000     1.3766310000    -5.3502770000
   36      O       0.9523080000     3.5177250000    -5.0043750000
   37      F      -0.0651230000    -0.2644430000    -3.2462900000
   38      C       1.0549500000     3.8615770000    -6.3349760000
   39      H       1.3415160000     4.9287320000    -6.3702680000
   40      H       0.0935730000     3.7160850000    -6.8756090000
   41      H       1.8223030000     3.2522320000    -6.8618780000
   42      H       0.8798120000     3.2787800000     1.3215100000
 ----------------------------------------------------------------

   10   -2754.2902399216      8.44e-07  Convergence criterion met
 Total energy in the final basis set =    -2754.2902399216
        RIMP2         total energy =     -2759.3476899167 a.u.

                    Orbital Energies (a.u.)
 --------------------------------------------------------------

 Alpha MOs
 -- Occupied --
-92.0150 -91.9956 -91.9865 -91.9862 -26.3352 -20.6123 -20.5918 -20.5914
-20.5503 -11.4106 -11.3785 -11.3186 -11.3179 -11.3121 -11.2980 -11.2976
-11.2968 -11.2946 -11.2886 -11.2863 -11.2858 -11.2851 -11.2838 -11.2828
-11.2797 -11.2614 -11.2589 -11.2577 -11.2498  -9.0135  -8.9996  -8.9874
 -8.9862  -6.6942  -6.6937  -6.6932  -6.6809  -6.6802  -6.6788  -6.6682
 -6.6676  -6.6671  -6.6665  -6.6665  -6.6657  -1.6503  -1.4720  -1.4157
 -1.4143  -1.3674  -1.2347  -1.1961  -1.1689  -1.1423  -1.0847  -1.0521
 -1.0482  -1.0289  -1.0022  -0.9936  -0.9725  -0.9606  -0.9500  -0.9384
 -0.8958  -0.8700  -0.8515  -0.8094  -0.7947  -0.7870  -0.7752  -0.7637
 -0.7581  -0.7325  -0.7206  -0.7177  -0.7004  -0.6888  -0.6837  -0.6787
 -0.6733  -0.6620  -0.6585  -0.6524  -0.6285  -0.6196  -0.6163  -0.6068
 -0.6026  -0.5956  -0.5872  -0.5718  -0.5698  -0.5640  -0.5590  -0.5526
 -0.5309  -0.5264  -0.5250  -0.5172  -0.5150  -0.5083  -0.5019  -0.4957
 -0.4869  -0.4835  -0.4793  -0.4656  -0.4616  -0.4615  -0.4587  -0.4230
 -0.3947  -0.3869  -0.3605  -0.3498  -0.3242  -0.2843  -0.2473

          Ground-State Mulliken Net Atomic Charges

     Atom                 Charge (a.u.)
  ----------------------------------------
      1 C                    -0.188203
      2 C                    -0.254658
      3 S                    -0.023303
      4 C                    -0.015212
      5 H                     0.196573
      6 C                    -0.029166
      7 C                     0.242164
      8 C                     0.241798
      9 C                    -0.043573
     10 C                    -0.013843
     11 O                    -0.333412
     12 O                    -0.340220
     13 C                    -0.085658
     14 H                     0.122278
     15 H                     0.091126
     16 H                     0.094356
     17 C                    -0.090052
     18 H                     0.125742
     19 H                     0.094061
     20 H                     0.092200
     21 C                    -0.258276
     22 S                    -0.017200
     23 C                     0.012053
     24 H                     0.189423
     25 H                     0.206504
     26 C                     0.035721
     27 S                     0.109105
     28 C                    -0.239341
     29 C                    -0.125656
     30 C                    -0.014698
     31 C                     0.363933
     32 C                    -0.136757
     33 S                     0.041322
     34 C                     0.460196
     35 O                    -0.450407
     36 O                    -0.297930
     37 F                    -0.207574
     38 C                    -0.054890
     39 H                     0.116764
     40 H                     0.084672
     41 H                     0.084353
     42 H                     0.215683
  ----------------------------------------
  Sum of atomic charges =     0.000000

                    Cartesian Multipole Moments
 -----------------------------------------------------------------
    Charge (ESU x 10^10)
                 0.0000
    Dipole Moment (Debye)
         X       0.7357      Y       1.6685      Z       2.8520
       Tot       3.3852
    Quadrupole Moments (Debye-Ang)
        XX    -193.2563     XY       5.5290     YY    -160.5930
        XZ     -14.4816     YZ      -9.7547     ZZ    -188.3577

 Total job time:  307.10s(wall), 10204.63s(cpu)
        *  Thank you very much for using Q-Chem.  Have a nice day.  *
