 Q-Chem 5.4, Q-Chem, Inc., Pleasanton, CA (2021)
 Q-Chem 5.4.0 for Intel X86 EM64T Linux

User input:
--------------------------------------------------------------
$molecule
0 1
C	-0.235993	-8.519741	0.135457
C	0.577858	-7.635967	-0.558188
S	-1.414705	-7.651740	1.148850
C	0.283020	-6.261894	-0.308648
H	1.377597	-7.954738	-1.238560
C	-0.810887	-6.079985	0.609026
C	-1.231581	-4.798382	0.996828
C	0.982901	-5.153542	-0.865740
C	0.564713	-3.869626	-0.474408
C	-0.532196	-3.688927	0.442046
O	1.976332	-5.481075	-1.738137
O	-2.228709	-4.479871	1.874052
C	-3.340298	-5.356026	2.016062
H	-4.110807	-4.790496	2.573877
H	-3.085998	-6.268513	2.598484
H	-3.751679	-5.658187	1.028695
C	3.007565	-4.546999	-2.033195
H	3.778655	-5.107564	-2.594833
H	3.461650	-4.131473	-1.108067
H	2.645264	-3.712085	-2.671451
C	-0.822814	-2.314326	0.691020
S	1.178037	-2.295487	-1.005649
C	-0.000000	-1.435180	-0.000000
H	-1.623656	-1.993211	1.368875
H	-0.230172	-9.615985	0.133782
C	0.000000	0.000000	0.000000
S	0.158383	0.885376	1.510732
C	0.430876	2.436951	0.727629
C	0.157682	0.894430	-1.064665
C	0.397351	2.262384	-0.678287
C	0.147783	0.828765	-2.486150
C	0.367291	2.074406	-3.106916
S	0.580633	3.303533	-1.965735
C	0.416083	2.324204	-4.559972
O	0.256921	1.404367	-5.350277
O	0.642094	3.587338	-5.004375
F	-0.041828	-0.269113	-3.246290
C	0.714377	3.938827	-6.334976
H	0.906844	5.026898	-6.370268
H	-0.230661	3.710099	-6.875609
H	1.531918	3.398681	-6.861878
H	0.590699	3.342984	1.321510
$end

$rem
JOBTYPE		SP
EXCHANGE	HF
CORRELATION	pRIMP2
BASIS		cc-pvtz
METHOD		rimp2
AUX_BASIS	rimp2-cc-pvtz
SOLVENT_METHOD	PCM
PURECART	11111
SYMMETRY	false
MEM_TOTAL	110000
SCF_CONVERGENCE = 6
THRESH=10
GUI = 2
$end

$solvent
dielectric 4.90
$end
--------------------------------------------------------------

             Standard Nuclear Orientation (Angstroms)
    I     Atom           X                Y                Z
 ----------------------------------------------------------------
    1      C      -0.2359930000    -8.5197410000     0.1354570000
    2      C       0.5778580000    -7.6359670000    -0.5581880000
    3      S      -1.4147050000    -7.6517400000     1.1488500000
    4      C       0.2830200000    -6.2618940000    -0.3086480000
    5      H       1.3775970000    -7.9547380000    -1.2385600000
    6      C      -0.8108870000    -6.0799850000     0.6090260000
    7      C      -1.2315810000    -4.7983820000     0.9968280000
    8      C       0.9829010000    -5.1535420000    -0.8657400000
    9      C       0.5647130000    -3.8696260000    -0.4744080000
   10      C      -0.5321960000    -3.6889270000     0.4420460000
   11      O       1.9763320000    -5.4810750000    -1.7381370000
   12      O      -2.2287090000    -4.4798710000     1.8740520000
   13      C      -3.3402980000    -5.3560260000     2.0160620000
   14      H      -4.1108070000    -4.7904960000     2.5738770000
   15      H      -3.0859980000    -6.2685130000     2.5984840000
   16      H      -3.7516790000    -5.6581870000     1.0286950000
   17      C       3.0075650000    -4.5469990000    -2.0331950000
   18      H       3.7786550000    -5.1075640000    -2.5948330000
   19      H       3.4616500000    -4.1314730000    -1.1080670000
   20      H       2.6452640000    -3.7120850000    -2.6714510000
   21      C      -0.8228140000    -2.3143260000     0.6910200000
   22      S       1.1780370000    -2.2954870000    -1.0056490000
   23      C       0.0000000000    -1.4351800000     0.0000000000
   24      H      -1.6236560000    -1.9932110000     1.3688750000
   25      H      -0.2301720000    -9.6159850000     0.1337820000
   26      C       0.0000000000     0.0000000000     0.0000000000
   27      S       0.1583830000     0.8853760000     1.5107320000
   28      C       0.4308760000     2.4369510000     0.7276290000
   29      C       0.1576820000     0.8944300000    -1.0646650000
   30      C       0.3973510000     2.2623840000    -0.6782870000
   31      C       0.1477830000     0.8287650000    -2.4861500000
   32      C       0.3672910000     2.0744060000    -3.1069160000
   33      S       0.5806330000     3.3035330000    -1.9657350000
   34      C       0.4160830000     2.3242040000    -4.5599720000
   35      O       0.2569210000     1.4043670000    -5.3502770000
   36      O       0.6420940000     3.5873380000    -5.0043750000
   37      F      -0.0418280000    -0.2691130000    -3.2462900000
   38      C       0.7143770000     3.9388270000    -6.3349760000
   39      H       0.9068440000     5.0268980000    -6.3702680000
   40      H      -0.2306610000     3.7100990000    -6.8756090000
   41      H       1.5319180000     3.3986810000    -6.8618780000
   42      H       0.5906990000     3.3429840000     1.3215100000
 ----------------------------------------------------------------

   10   -2754.2957160086      8.34e-07  Convergence criterion met
 Total energy in the final basis set =    -2754.2957160086
        RIMP2         total energy =     -2759.3495827771 a.u.

                    Orbital Energies (a.u.)
 --------------------------------------------------------------

 Alpha MOs
 -- Occupied --
-92.0164 -91.9947 -91.9897 -91.9866 -26.3337 -20.6118 -20.5921 -20.5921
-20.5496 -11.4100 -11.3775 -11.3193 -11.3188 -11.3113 -11.2967 -11.2967
-11.2953 -11.2931 -11.2883 -11.2869 -11.2867 -11.2864 -11.2842 -11.2820
-11.2803 -11.2615 -11.2597 -11.2590 -11.2501  -9.0146  -8.9987  -8.9901
 -8.9865  -6.6952  -6.6947  -6.6942  -6.6800  -6.6793  -6.6779  -6.6710
 -6.6703  -6.6693  -6.6675  -6.6669  -6.6660  -1.6470  -1.4715  -1.4164
 -1.4148  -1.3668  -1.2335  -1.1964  -1.1687  -1.1419  -1.0845  -1.0525
 -1.0474  -1.0279  -1.0027  -0.9935  -0.9715  -0.9613  -0.9505  -0.9385
 -0.8961  -0.8691  -0.8511  -0.8073  -0.7911  -0.7877  -0.7748  -0.7657
 -0.7585  -0.7329  -0.7182  -0.7152  -0.7009  -0.6883  -0.6835  -0.6783
 -0.6712  -0.6612  -0.6591  -0.6528  -0.6300  -0.6202  -0.6170  -0.6062
 -0.6022  -0.5943  -0.5849  -0.5759  -0.5689  -0.5655  -0.5573  -0.5521
 -0.5327  -0.5265  -0.5251  -0.5163  -0.5144  -0.5084  -0.5014  -0.4964
 -0.4891  -0.4840  -0.4770  -0.4682  -0.4616  -0.4611  -0.4597  -0.4150
 -0.3979  -0.3870  -0.3583  -0.3500  -0.3206  -0.2860  -0.2539

          Ground-State Mulliken Net Atomic Charges

     Atom                 Charge (a.u.)
  ----------------------------------------
      1 C                    -0.187065
      2 C                    -0.254400
      3 S                    -0.022227
      4 C                    -0.013341
      5 H                     0.196704
      6 C                    -0.027069
      7 C                     0.244743
      8 C                     0.239884
      9 C                    -0.041559
     10 C                    -0.018042
     11 O                    -0.333164
     12 O                    -0.339931
     13 C                    -0.085713
     14 H                     0.122548
     15 H                     0.091214
     16 H                     0.094524
     17 C                    -0.087396
     18 H                     0.125267
     19 H                     0.094268
     20 H                     0.090976
     21 C                    -0.251833
     22 S                    -0.004822
     23 C                    -0.013619
     24 H                     0.196888
     25 H                     0.206666
     26 C                     0.007508
     27 S                     0.118320
     28 C                    -0.242871
     29 C                    -0.129040
     30 C                    -0.004580
     31 C                     0.392132
     32 C                    -0.151309
     33 S                     0.038188
     34 C                     0.461442
     35 O                    -0.450685
     36 O                    -0.298023
     37 F                    -0.209817
     38 C                    -0.054955
     39 H                     0.116522
     40 H                     0.084599
     41 H                     0.084346
     42 H                     0.214722
  ----------------------------------------
  Sum of atomic charges =     0.000000

                    Cartesian Multipole Moments
 -----------------------------------------------------------------
    Charge (ESU x 10^10)
                -0.0000
    Dipole Moment (Debye)
         X       0.5433      Y       1.4164      Z       2.9953
       Tot       3.3576
    Quadrupole Moments (Debye-Ang)
        XX    -181.1155     XY       3.9470     YY    -158.7240
        XZ     -12.2287     YZ      -9.3886     ZZ    -201.4939

 Total job time:  281.43s(wall), 9213.63s(cpu)
        *  Thank you very much for using Q-Chem.  Have a nice day.  *
