 Q-Chem 5.4, Q-Chem, Inc., Pleasanton, CA (2021)
 Q-Chem 5.4.0 for Intel X86 EM64T Linux

User input:
--------------------------------------------------------------
$molecule
0 1
C	0.255459	-8.519741	0.093711
C	-0.799036	-7.635967	-0.083869
S	1.789425	-7.651740	0.345260
C	-0.418360	-6.261894	-0.018411
H	-1.834294	-7.954738	-0.259169
C	0.987769	-6.079985	0.229701
C	1.555260	-4.798382	0.302697
C	-1.294992	-5.153542	-0.196459
C	-0.726408	-3.869626	-0.127651
C	0.680716	-3.688927	0.123544
O	-2.601852	-5.481075	-0.396706
O	2.868193	-4.479871	0.502673
C	3.691495	-5.356026	1.262918
H	4.614080	-4.790496	1.494604
H	3.974195	-6.268513	0.693738
H	3.199559	-5.658187	2.212720
C	-3.490743	-4.546999	-0.997016
H	-4.416630	-5.107564	-1.226691
H	-3.073934	-4.131473	-1.939526
H	-3.746794	-3.712085	-0.309214
C	1.058247	-2.314326	0.186133
S	-1.527599	-2.295487	-0.256010
C	-0.000000	-1.435180	-0.000000
H	2.092285	-1.993211	0.363896
H	0.250435	-9.615985	0.090328
C	0.000000	0.000000	0.000000
S	0.158383	0.885376	1.510732
C	0.430876	2.436951	0.727629
C	0.157682	0.894430	-1.064665
C	0.397351	2.262384	-0.678287
C	0.147783	0.828765	-2.486150
C	0.367291	2.074406	-3.106916
S	0.580633	3.303533	-1.965735
C	0.416083	2.324204	-4.559972
O	0.256921	1.404367	-5.350277
O	0.642094	3.587338	-5.004375
F	-0.041828	-0.269113	-3.246290
C	0.714377	3.938827	-6.334976
H	0.906844	5.026898	-6.370268
H	-0.230661	3.710099	-6.875609
H	1.531918	3.398681	-6.861878
H	0.590699	3.342984	1.321510
$end

$rem
JOBTYPE		SP
EXCHANGE	HF
CORRELATION	pRIMP2
BASIS		cc-pvtz
METHOD		rimp2
AUX_BASIS	rimp2-cc-pvtz
SOLVENT_METHOD	PCM
PURECART	11111
SYMMETRY	false
MEM_TOTAL	110000
SCF_CONVERGENCE = 6
THRESH=10
GUI = 2
$end

$solvent
dielectric 4.90
$end
--------------------------------------------------------------

             Standard Nuclear Orientation (Angstroms)
    I     Atom           X                Y                Z
 ----------------------------------------------------------------
    1      C       0.2554590000    -8.5197410000     0.0937110000
    2      C      -0.7990360000    -7.6359670000    -0.0838690000
    3      S       1.7894250000    -7.6517400000     0.3452600000
    4      C      -0.4183600000    -6.2618940000    -0.0184110000
    5      H      -1.8342940000    -7.9547380000    -0.2591690000
    6      C       0.9877690000    -6.0799850000     0.2297010000
    7      C       1.5552600000    -4.7983820000     0.3026970000
    8      C      -1.2949920000    -5.1535420000    -0.1964590000
    9      C      -0.7264080000    -3.8696260000    -0.1276510000
   10      C       0.6807160000    -3.6889270000     0.1235440000
   11      O      -2.6018520000    -5.4810750000    -0.3967060000
   12      O       2.8681930000    -4.4798710000     0.5026730000
   13      C       3.6914950000    -5.3560260000     1.2629180000
   14      H       4.6140800000    -4.7904960000     1.4946040000
   15      H       3.9741950000    -6.2685130000     0.6937380000
   16      H       3.1995590000    -5.6581870000     2.2127200000
   17      C      -3.4907430000    -4.5469990000    -0.9970160000
   18      H      -4.4166300000    -5.1075640000    -1.2266910000
   19      H      -3.0739340000    -4.1314730000    -1.9395260000
   20      H      -3.7467940000    -3.7120850000    -0.3092140000
   21      C       1.0582470000    -2.3143260000     0.1861330000
   22      S      -1.5275990000    -2.2954870000    -0.2560100000
   23      C       0.0000000000    -1.4351800000     0.0000000000
   24      H       2.0922850000    -1.9932110000     0.3638960000
   25      H       0.2504350000    -9.6159850000     0.0903280000
   26      C       0.0000000000     0.0000000000     0.0000000000
   27      S       0.1583830000     0.8853760000     1.5107320000
   28      C       0.4308760000     2.4369510000     0.7276290000
   29      C       0.1576820000     0.8944300000    -1.0646650000
   30      C       0.3973510000     2.2623840000    -0.6782870000
   31      C       0.1477830000     0.8287650000    -2.4861500000
   32      C       0.3672910000     2.0744060000    -3.1069160000
   33      S       0.5806330000     3.3035330000    -1.9657350000
   34      C       0.4160830000     2.3242040000    -4.5599720000
   35      O       0.2569210000     1.4043670000    -5.3502770000
   36      O       0.6420940000     3.5873380000    -5.0043750000
   37      F      -0.0418280000    -0.2691130000    -3.2462900000
   38      C       0.7143770000     3.9388270000    -6.3349760000
   39      H       0.9068440000     5.0268980000    -6.3702680000
   40      H      -0.2306610000     3.7100990000    -6.8756090000
   41      H       1.5319180000     3.3986810000    -6.8618780000
   42      H       0.5906990000     3.3429840000     1.3215100000
 ----------------------------------------------------------------

   10   -2754.2932821141      8.92e-07  Convergence criterion met
 Total energy in the final basis set =    -2754.2932821141
        RIMP2         total energy =     -2759.3462554127 a.u.

                    Orbital Energies (a.u.)
 --------------------------------------------------------------

 Alpha MOs
 -- Occupied --
-92.0165 -91.9945 -91.9892 -91.9866 -26.3338 -20.6119 -20.5922 -20.5920
-20.5500 -11.4102 -11.3769 -11.3192 -11.3188 -11.3086 -11.2974 -11.2960
-11.2939 -11.2935 -11.2883 -11.2867 -11.2864 -11.2864 -11.2841 -11.2829
-11.2802 -11.2611 -11.2596 -11.2596 -11.2501  -9.0145  -8.9985  -8.9896
 -8.9865  -6.6952  -6.6946  -6.6942  -6.6798  -6.6791  -6.6778  -6.6705
 -6.6698  -6.6688  -6.6675  -6.6668  -6.6660  -1.6467  -1.4717  -1.4164
 -1.4147  -1.3670  -1.2330  -1.1960  -1.1682  -1.1416  -1.0840  -1.0522
 -1.0472  -1.0275  -1.0023  -0.9932  -0.9711  -0.9613  -0.9504  -0.9384
 -0.8957  -0.8690  -0.8506  -0.8054  -0.7901  -0.7884  -0.7743  -0.7680
 -0.7584  -0.7328  -0.7179  -0.7149  -0.7013  -0.6886  -0.6833  -0.6784
 -0.6709  -0.6607  -0.6587  -0.6528  -0.6309  -0.6202  -0.6169  -0.6063
 -0.6017  -0.5944  -0.5831  -0.5770  -0.5710  -0.5667  -0.5548  -0.5519
 -0.5330  -0.5264  -0.5240  -0.5165  -0.5143  -0.5075  -0.5013  -0.4932
 -0.4912  -0.4841  -0.4768  -0.4675  -0.4616  -0.4610  -0.4605  -0.4057
 -0.4010  -0.3873  -0.3581  -0.3478  -0.3148  -0.2896  -0.2591

          Ground-State Mulliken Net Atomic Charges

     Atom                 Charge (a.u.)
  ----------------------------------------
      1 C                    -0.187268
      2 C                    -0.254125
      3 S                    -0.021690
      4 C                    -0.013687
      5 H                     0.196581
      6 C                    -0.028418
      7 C                     0.244305
      8 C                     0.241853
      9 C                    -0.051328
     10 C                    -0.029829
     11 O                    -0.333459
     12 O                    -0.339863
     13 C                    -0.085697
     14 H                     0.122660
     15 H                     0.091347
     16 H                     0.093923
     17 C                    -0.086482
     18 H                     0.124536
     19 H                     0.095871
     20 H                     0.089324
     21 C                    -0.206165
     22 S                     0.004152
     23 C                    -0.036858
     24 H                     0.198429
     25 H                     0.206633
     26 C                    -0.038891
     27 S                     0.120517
     28 C                    -0.238819
     29 C                    -0.092219
     30 C                    -0.005782
     31 C                     0.392703
     32 C                    -0.158172
     33 S                     0.038557
     34 C                     0.460320
     35 O                    -0.449853
     36 O                    -0.297751
     37 F                    -0.210808
     38 C                    -0.054962
     39 H                     0.116504
     40 H                     0.084533
     41 H                     0.084552
     42 H                     0.214826
  ----------------------------------------
  Sum of atomic charges =     0.000000

                    Cartesian Multipole Moments
 -----------------------------------------------------------------
    Charge (ESU x 10^10)
                -0.0000
    Dipole Moment (Debye)
         X       0.5413      Y       1.5226      Z       3.4973
       Tot       3.8526
    Quadrupole Moments (Debye-Ang)
        XX    -179.9323     XY       2.5159     YY    -158.8893
        XZ       7.3254     YZ     -12.0602     ZZ    -202.5946

 Total job time:  281.09s(wall), 9205.26s(cpu)
        *  Thank you very much for using Q-Chem.  Have a nice day.  *
