 Q-Chem 5.4, Q-Chem, Inc., Pleasanton, CA (2021)
 Q-Chem 5.4.0 for Intel X86 EM64T Linux

User input:
--------------------------------------------------------------
$molecule
0 1
C	-0.046574	-8.519741	-0.268090
C	0.326886	-7.635967	0.733920
S	-0.595708	-7.651740	-1.722318
C	0.193236	-6.261894	0.371516
H	0.692700	-7.954738	1.718130
C	-0.294958	-6.079985	-0.970283
C	-0.515487	-4.798382	-1.498243
C	0.477358	-5.153542	1.219725
C	0.252655	-3.869626	0.692914
C	-0.233366	-3.688927	-0.651289
O	0.957369	-5.481075	2.451623
O	-0.998769	-4.479871	-2.735264
C	-0.752029	-5.356026	-3.828387
H	-1.012675	-4.790496	-4.743213
H	-1.386303	-6.268513	-3.788623
H	0.316492	-5.658187	-3.877260
C	0.881930	-4.546999	3.521580
H	1.145969	-5.107564	4.438260
H	-0.142712	-4.131473	3.631868
H	1.605610	-3.712085	3.399425
C	-0.367928	-2.314326	-1.009535
S	0.542088	-2.295487	1.450945
C	0.000000	-1.435180	0.000000
H	-0.730999	-1.993211	-1.993920
H	-0.046991	-9.615985	-0.262047
C	0.000000	0.000000	0.000000
S	0.002233	0.899428	1.510732
C	0.001157	2.474749	0.727629
C	-0.000030	0.908223	-1.064665
C	-0.001545	2.297013	-0.678287
C	0.001624	0.841837	-2.486150
C	0.001494	2.106670	-3.106916
S	-0.001841	3.354171	-1.965735
C	0.006168	2.361146	-4.559972
O	0.009152	1.427646	-5.350277
O	0.009405	3.644337	-5.004375
F	0.005539	-0.272288	-3.246290
C	0.019554	4.003038	-6.334976
H	0.020155	5.108000	-6.370268
H	-0.871409	3.613681	-6.875609
H	0.918470	3.613062	-6.861878
H	0.001222	3.394771	1.321510
$end

$rem
JOBTYPE		SP
EXCHANGE	HF
CORRELATION	pRIMP2
BASIS		cc-pvtz
METHOD		rimp2
AUX_BASIS	rimp2-cc-pvtz
SOLVENT_METHOD	PCM
PURECART	11111
SYMMETRY	false
MEM_TOTAL	110000
SCF_CONVERGENCE = 6
THRESH=10
GUI = 2
$end

$solvent
dielectric 4.90
$end
--------------------------------------------------------------

             Standard Nuclear Orientation (Angstroms)
    I     Atom           X                Y                Z
 ----------------------------------------------------------------
    1      C      -0.0465740000    -8.5197410000    -0.2680900000
    2      C       0.3268860000    -7.6359670000     0.7339200000
    3      S      -0.5957080000    -7.6517400000    -1.7223180000
    4      C       0.1932360000    -6.2618940000     0.3715160000
    5      H       0.6927000000    -7.9547380000     1.7181300000
    6      C      -0.2949580000    -6.0799850000    -0.9702830000
    7      C      -0.5154870000    -4.7983820000    -1.4982430000
    8      C       0.4773580000    -5.1535420000     1.2197250000
    9      C       0.2526550000    -3.8696260000     0.6929140000
   10      C      -0.2333660000    -3.6889270000    -0.6512890000
   11      O       0.9573690000    -5.4810750000     2.4516230000
   12      O      -0.9987690000    -4.4798710000    -2.7352640000
   13      C      -0.7520290000    -5.3560260000    -3.8283870000
   14      H      -1.0126750000    -4.7904960000    -4.7432130000
   15      H      -1.3863030000    -6.2685130000    -3.7886230000
   16      H       0.3164920000    -5.6581870000    -3.8772600000
   17      C       0.8819300000    -4.5469990000     3.5215800000
   18      H       1.1459690000    -5.1075640000     4.4382600000
   19      H      -0.1427120000    -4.1314730000     3.6318680000
   20      H       1.6056100000    -3.7120850000     3.3994250000
   21      C      -0.3679280000    -2.3143260000    -1.0095350000
   22      S       0.5420880000    -2.2954870000     1.4509450000
   23      C       0.0000000000    -1.4351800000     0.0000000000
   24      H      -0.7309990000    -1.9932110000    -1.9939200000
   25      H      -0.0469910000    -9.6159850000    -0.2620470000
   26      C       0.0000000000     0.0000000000     0.0000000000
   27      S       0.0022330000     0.8994280000     1.5107320000
   28      C       0.0011570000     2.4747490000     0.7276290000
   29      C      -0.0000300000     0.9082230000    -1.0646650000
   30      C      -0.0015450000     2.2970130000    -0.6782870000
   31      C       0.0016240000     0.8418370000    -2.4861500000
   32      C       0.0014940000     2.1066700000    -3.1069160000
   33      S      -0.0018410000     3.3541710000    -1.9657350000
   34      C       0.0061680000     2.3611460000    -4.5599720000
   35      O       0.0091520000     1.4276460000    -5.3502770000
   36      O       0.0094050000     3.6443370000    -5.0043750000
   37      F       0.0055390000    -0.2722880000    -3.2462900000
   38      C       0.0195540000     4.0030380000    -6.3349760000
   39      H       0.0201550000     5.1080000000    -6.3702680000
   40      H      -0.8714090000     3.6136810000    -6.8756090000
   41      H       0.9184700000     3.6130620000    -6.8618780000
   42      H       0.0012220000     3.3947710000     1.3215100000
 ----------------------------------------------------------------

   10   -2754.2982807419      8.12e-07  Convergence criterion met
 Total energy in the final basis set =    -2754.2982807419
        RIMP2         total energy =     -2759.3526660321 a.u.

                    Orbital Energies (a.u.)
 --------------------------------------------------------------

 Alpha MOs
 -- Occupied --
-92.0161 -91.9947 -91.9916 -91.9873 -26.3371 -20.6117 -20.5933 -20.5919
-20.5493 -11.4098 -11.3784 -11.3204 -11.3198 -11.3145 -11.2974 -11.2965
-11.2960 -11.2915 -11.2886 -11.2883 -11.2880 -11.2856 -11.2850 -11.2810
-11.2807 -11.2625 -11.2608 -11.2590 -11.2507  -9.0145  -8.9987  -8.9922
 -8.9871  -6.6953  -6.6947  -6.6942  -6.6800  -6.6793  -6.6780  -6.6732
 -6.6725  -6.6715  -6.6681  -6.6675  -6.6666  -1.6509  -1.4714  -1.4174
 -1.4146  -1.3667  -1.2335  -1.1976  -1.1699  -1.1424  -1.0851  -1.0534
 -1.0480  -1.0279  -1.0041  -0.9942  -0.9722  -0.9615  -0.9510  -0.9385
 -0.8973  -0.8694  -0.8522  -0.8062  -0.7958  -0.7889  -0.7727  -0.7696
 -0.7583  -0.7335  -0.7207  -0.7184  -0.7021  -0.6894  -0.6846  -0.6783
 -0.6722  -0.6623  -0.6598  -0.6529  -0.6299  -0.6205  -0.6164  -0.6061
 -0.6004  -0.5937  -0.5883  -0.5770  -0.5694  -0.5602  -0.5541  -0.5502
 -0.5374  -0.5270  -0.5228  -0.5205  -0.5176  -0.5097  -0.5051  -0.4963
 -0.4863  -0.4844  -0.4803  -0.4686  -0.4621  -0.4611  -0.4594  -0.4228
 -0.3986  -0.3866  -0.3597  -0.3508  -0.3255  -0.2851  -0.2485

          Ground-State Mulliken Net Atomic Charges

     Atom                 Charge (a.u.)
  ----------------------------------------
      1 C                    -0.185866
      2 C                    -0.255080
      3 S                    -0.019470
      4 C                    -0.012296
      5 H                     0.196537
      6 C                    -0.029348
      7 C                     0.250218
      8 C                     0.240411
      9 C                    -0.038652
     10 C                    -0.039619
     11 O                    -0.333139
     12 O                    -0.338761
     13 C                    -0.086188
     14 H                     0.124338
     15 H                     0.091223
     16 H                     0.094288
     17 C                    -0.087919
     18 H                     0.125857
     19 H                     0.094944
     20 H                     0.089734
     21 C                    -0.193659
     22 S                    -0.034321
     23 C                    -0.021510
     24 H                     0.200218
     25 H                     0.206968
     26 C                    -0.033265
     27 S                     0.089299
     28 C                    -0.245885
     29 C                    -0.061953
     30 C                    -0.016890
     31 C                     0.393586
     32 C                    -0.142041
     33 S                     0.035574
     34 C                     0.462027
     35 O                    -0.452581
     36 O                    -0.298073
     37 F                    -0.215769
     38 C                    -0.055080
     39 H                     0.116638
     40 H                     0.084373
     41 H                     0.084347
     42 H                     0.216783
  ----------------------------------------
  Sum of atomic charges =     0.000000

                    Cartesian Multipole Moments
 -----------------------------------------------------------------
    Charge (ESU x 10^10)
                 0.0000
    Dipole Moment (Debye)
         X       0.2187      Y       1.0663      Z       3.1439
       Tot       3.3270
    Quadrupole Moments (Debye-Ang)
        XX    -201.5947     XY      -1.1026     YY    -156.3046
        XZ       2.9881     YZ      -9.1958     ZZ    -181.7387

 Total job time:  288.03s(wall), 9173.08s(cpu)
        *  Thank you very much for using Q-Chem.  Have a nice day.  *
