 Q-Chem 5.4, Q-Chem, Inc., Pleasanton, CA (2021)
 Q-Chem 5.4.0 for Intel X86 EM64T Linux

User input:
--------------------------------------------------------------
$molecule
0 1
C	0.047927	-8.519741	-0.267851
C	0.056157	-7.635967	0.801461
S	0.029285	-7.651740	-1.822194
C	0.054516	-6.261894	0.415201
H	0.063290	-7.954738	1.851431
C	0.054687	-6.079985	-1.012650
C	0.028030	-4.798382	-1.584194
C	0.031399	-5.153542	1.309433
C	0.000427	-3.869626	0.737539
C	0.003462	-3.688927	-0.691828
O	0.061128	-5.481075	2.631211
O	-0.003021	-4.479871	-2.911907
C	0.602710	-5.356026	-3.854716
H	0.670671	-4.790496	-4.803517
H	-0.006913	-6.268513	-4.034285
H	1.623507	-5.658187	-3.535185
C	-0.375708	-4.546999	3.610841
H	-0.441115	-5.107564	4.562544
H	-1.376277	-4.131473	3.364029
H	0.346107	-3.712085	3.743566
C	-0.000458	-2.314326	-1.074491
S	0.013144	-2.295487	1.548848
C	-0.000000	-1.435180	-0.000000
H	-0.004953	-1.993211	-2.123688
H	0.045468	-9.615985	-0.262315
C	0.000000	0.000000	0.000000
S	0.690437	0.576430	1.510732
C	1.896512	1.589852	0.727629
C	0.695720	0.583817	-1.064665
C	1.758621	1.477674	-0.678287
C	0.645928	0.539878	-2.486150
C	1.614763	1.352997	-3.106916
S	2.568261	2.157430	-1.965735
C	1.812707	1.512991	-4.559972
O	1.099523	0.910662	-5.350277
O	2.797769	2.335330	-5.004375
F	-0.205024	-0.179266	-3.246290
C	3.079074	2.558124	-6.334976
H	3.925910	3.267919	-6.370268
H	2.208109	2.990367	-6.875609
H	3.358147	1.618843	-6.861878
H	2.601331	2.181180	1.321510
$end

$rem
JOBTYPE		SP
EXCHANGE	HF
CORRELATION	pRIMP2
BASIS		cc-pvtz
METHOD		rimp2
AUX_BASIS	rimp2-cc-pvtz
SOLVENT_METHOD	PCM
PURECART	11111
SYMMETRY	false
MEM_TOTAL	110000
SCF_CONVERGENCE = 6
THRESH=10
GUI = 2
$end

$solvent
dielectric 4.90
$end
--------------------------------------------------------------

             Standard Nuclear Orientation (Angstroms)
    I     Atom           X                Y                Z
 ----------------------------------------------------------------
    1      C       0.0479270000    -8.5197410000    -0.2678510000
    2      C       0.0561570000    -7.6359670000     0.8014610000
    3      S       0.0292850000    -7.6517400000    -1.8221940000
    4      C       0.0545160000    -6.2618940000     0.4152010000
    5      H       0.0632900000    -7.9547380000     1.8514310000
    6      C       0.0546870000    -6.0799850000    -1.0126500000
    7      C       0.0280300000    -4.7983820000    -1.5841940000
    8      C       0.0313990000    -5.1535420000     1.3094330000
    9      C       0.0004270000    -3.8696260000     0.7375390000
   10      C       0.0034620000    -3.6889270000    -0.6918280000
   11      O       0.0611280000    -5.4810750000     2.6312110000
   12      O      -0.0030210000    -4.4798710000    -2.9119070000
   13      C       0.6027100000    -5.3560260000    -3.8547160000
   14      H       0.6706710000    -4.7904960000    -4.8035170000
   15      H      -0.0069130000    -6.2685130000    -4.0342850000
   16      H       1.6235070000    -5.6581870000    -3.5351850000
   17      C      -0.3757080000    -4.5469990000     3.6108410000
   18      H      -0.4411150000    -5.1075640000     4.5625440000
   19      H      -1.3762770000    -4.1314730000     3.3640290000
   20      H       0.3461070000    -3.7120850000     3.7435660000
   21      C      -0.0004580000    -2.3143260000    -1.0744910000
   22      S       0.0131440000    -2.2954870000     1.5488480000
   23      C       0.0000000000    -1.4351800000     0.0000000000
   24      H      -0.0049530000    -1.9932110000    -2.1236880000
   25      H       0.0454680000    -9.6159850000    -0.2623150000
   26      C       0.0000000000     0.0000000000     0.0000000000
   27      S       0.6904370000     0.5764300000     1.5107320000
   28      C       1.8965120000     1.5898520000     0.7276290000
   29      C       0.6957200000     0.5838170000    -1.0646650000
   30      C       1.7586210000     1.4776740000    -0.6782870000
   31      C       0.6459280000     0.5398780000    -2.4861500000
   32      C       1.6147630000     1.3529970000    -3.1069160000
   33      S       2.5682610000     2.1574300000    -1.9657350000
   34      C       1.8127070000     1.5129910000    -4.5599720000
   35      O       1.0995230000     0.9106620000    -5.3502770000
   36      O       2.7977690000     2.3353300000    -5.0043750000
   37      F      -0.2050240000    -0.1792660000    -3.2462900000
   38      C       3.0790740000     2.5581240000    -6.3349760000
   39      H       3.9259100000     3.2679190000    -6.3702680000
   40      H       2.2081090000     2.9903670000    -6.8756090000
   41      H       3.3581470000     1.6188430000    -6.8618780000
   42      H       2.6013310000     2.1811800000     1.3215100000
 ----------------------------------------------------------------

   11   -2754.2473664568      5.97e-07  Convergence criterion met
 Total energy in the final basis set =    -2754.2473664568
        RIMP2         total energy =     -2759.3184655327 a.u.

                    Orbital Energies (a.u.)
 --------------------------------------------------------------

 Alpha MOs
 -- Occupied --
-92.0177 -92.0057 -91.9845 -91.9831 -26.3382 -20.6158 -20.5908 -20.5866
-20.5566 -11.4160 -11.3779 -11.3189 -11.3167 -11.3108 -11.3103 -11.3022
-11.2962 -11.2933 -11.2905 -11.2894 -11.2863 -11.2830 -11.2808 -11.2791
-11.2749 -11.2573 -11.2527 -11.2475 -11.2386  -9.0169  -9.0093  -8.9856
 -8.9830  -6.6975  -6.6968  -6.6965  -6.6904  -6.6898  -6.6885  -6.6666
 -6.6659  -6.6649  -6.6640  -6.6634  -6.6626  -1.6525  -1.4760  -1.4147
 -1.4094  -1.3721  -1.2427  -1.1928  -1.1701  -1.1442  -1.0839  -1.0526
 -1.0476  -1.0333  -0.9991  -0.9925  -0.9764  -0.9581  -0.9482  -0.9378
 -0.8942  -0.8755  -0.8460  -0.8039  -0.7996  -0.7872  -0.7736  -0.7688
 -0.7543  -0.7313  -0.7240  -0.7186  -0.6987  -0.6932  -0.6826  -0.6806
 -0.6753  -0.6622  -0.6570  -0.6495  -0.6256  -0.6169  -0.6135  -0.6113
 -0.6056  -0.6022  -0.5859  -0.5734  -0.5658  -0.5608  -0.5549  -0.5430
 -0.5355  -0.5289  -0.5206  -0.5185  -0.5167  -0.5094  -0.5044  -0.4959
 -0.4882  -0.4820  -0.4728  -0.4685  -0.4643  -0.4595  -0.4557  -0.4252
 -0.3954  -0.3808  -0.3578  -0.3488  -0.3245  -0.2860  -0.2432

          Ground-State Mulliken Net Atomic Charges

     Atom                 Charge (a.u.)
  ----------------------------------------
      1 C                    -0.197942
      2 C                    -0.254156
      3 S                    -0.027246
      4 C                    -0.023664
      5 H                     0.195133
      6 C                    -0.025024
      7 C                     0.236857
      8 C                     0.246546
      9 C                    -0.050581
     10 C                    -0.010958
     11 O                    -0.333451
     12 O                    -0.342003
     13 C                    -0.086358
     14 H                     0.122832
     15 H                     0.090551
     16 H                     0.092007
     17 C                    -0.088110
     18 H                     0.125369
     19 H                     0.094576
     20 H                     0.088865
     21 C                    -0.276343
     22 S                    -0.045644
     23 C                    -0.015404
     24 H                     0.207889
     25 H                     0.204705
     26 C                    -0.069716
     27 S                     0.117455
     28 C                    -0.169830
     29 C                    -0.026134
     30 C                    -0.035180
     31 C                     0.327821
     32 C                    -0.111230
     33 S                     0.073673
     34 C                     0.457867
     35 O                    -0.440271
     36 O                    -0.296863
     37 F                    -0.212462
     38 C                    -0.054461
     39 H                     0.117527
     40 H                     0.085630
     41 H                     0.085509
     42 H                     0.222219
  ----------------------------------------
  Sum of atomic charges =     0.000000

                    Cartesian Multipole Moments
 -----------------------------------------------------------------
    Charge (ESU x 10^10)
                 0.0000
    Dipole Moment (Debye)
         X       4.4939      Y       3.3292      Z       3.0611
       Tot       6.3756
    Quadrupole Moments (Debye-Ang)
        XX    -188.4452     XY       8.7055     YY    -176.9787
        XZ     -15.2160     YZ      -8.8196     ZZ    -179.7343

 Total job time:  307.38s(wall), 9986.60s(cpu)
        *  Thank you very much for using Q-Chem.  Have a nice day.  *
