 Q-Chem 5.4, Q-Chem, Inc., Pleasanton, CA (2021)
 Q-Chem 5.4.0 for Intel X86 EM64T Linux

User input:
--------------------------------------------------------------
$molecule
0 1
C	0.208886	-8.519741	-0.174379
C	-0.472151	-7.635967	0.650052
S	1.193717	-7.651740	-1.377058
C	-0.225125	-6.261894	0.353105
H	-1.141594	-7.954738	1.458961
C	0.692811	-6.079985	-0.740583
C	1.039773	-4.798382	-1.195546
C	-0.817634	-5.153542	1.023267
C	-0.473754	-3.869626	0.565262
C	0.447350	-3.688927	-0.527745
O	-1.644483	-5.481075	2.054917
O	1.869424	-4.479871	-2.232592
C	2.939466	-5.356026	-2.565470
H	3.601405	-4.790496	-3.248608
H	2.587892	-6.268513	-3.094885
H	3.516052	-5.658187	-1.664539
C	-2.608813	-4.546999	2.524564
H	-3.270661	-5.107564	3.211568
H	-3.216646	-4.131473	1.692342
H	-2.141184	-3.712085	3.090211
C	0.690319	-2.314326	-0.823402
S	-0.985511	-2.295487	1.194935
C	0.000000	-1.435180	0.000000
H	1.361286	-1.993211	-1.630024
H	0.203444	-9.615985	-0.171719
C	0.000000	0.000000	0.000000
S	0.080615	0.895811	1.510732
C	0.216842	2.465231	0.727629
C	0.079127	0.904769	-1.064665
C	0.198659	2.288406	-0.678287
C	0.074988	0.838492	-2.486150
C	0.185097	2.098524	-3.106916
S	0.290501	3.341568	-1.965735
C	0.211932	2.351623	-4.559972
O	0.133545	1.421416	-5.350277
O	0.326994	3.629649	-5.004375
F	-0.018214	-0.271734	-3.246290
C	0.368367	3.986101	-6.334976
H	0.465270	5.086806	-6.370268
H	-0.553140	3.675878	-6.875609
H	1.229874	3.519263	-6.861878
H	0.297091	3.381746	1.321510
$end

$rem
JOBTYPE		SP
EXCHANGE	HF
CORRELATION	pRIMP2
BASIS		cc-pvtz
METHOD		rimp2
AUX_BASIS	rimp2-cc-pvtz
SOLVENT_METHOD	PCM
PURECART	11111
SYMMETRY	false
MEM_TOTAL	110000
SCF_CONVERGENCE = 6
THRESH=10
GUI = 2
$end

$solvent
dielectric 4.90
$end
--------------------------------------------------------------

             Standard Nuclear Orientation (Angstroms)
    I     Atom           X                Y                Z
 ----------------------------------------------------------------
    1      C       0.2088860000    -8.5197410000    -0.1743790000
    2      C      -0.4721510000    -7.6359670000     0.6500520000
    3      S       1.1937170000    -7.6517400000    -1.3770580000
    4      C      -0.2251250000    -6.2618940000     0.3531050000
    5      H      -1.1415940000    -7.9547380000     1.4589610000
    6      C       0.6928110000    -6.0799850000    -0.7405830000
    7      C       1.0397730000    -4.7983820000    -1.1955460000
    8      C      -0.8176340000    -5.1535420000     1.0232670000
    9      C      -0.4737540000    -3.8696260000     0.5652620000
   10      C       0.4473500000    -3.6889270000    -0.5277450000
   11      O      -1.6444830000    -5.4810750000     2.0549170000
   12      O       1.8694240000    -4.4798710000    -2.2325920000
   13      C       2.9394660000    -5.3560260000    -2.5654700000
   14      H       3.6014050000    -4.7904960000    -3.2486080000
   15      H       2.5878920000    -6.2685130000    -3.0948850000
   16      H       3.5160520000    -5.6581870000    -1.6645390000
   17      C      -2.6088130000    -4.5469990000     2.5245640000
   18      H      -3.2706610000    -5.1075640000     3.2115680000
   19      H      -3.2166460000    -4.1314730000     1.6923420000
   20      H      -2.1411840000    -3.7120850000     3.0902110000
   21      C       0.6903190000    -2.3143260000    -0.8234020000
   22      S      -0.9855110000    -2.2954870000     1.1949350000
   23      C       0.0000000000    -1.4351800000     0.0000000000
   24      H       1.3612860000    -1.9932110000    -1.6300240000
   25      H       0.2034440000    -9.6159850000    -0.1717190000
   26      C       0.0000000000     0.0000000000     0.0000000000
   27      S       0.0806150000     0.8958110000     1.5107320000
   28      C       0.2168420000     2.4652310000     0.7276290000
   29      C       0.0791270000     0.9047690000    -1.0646650000
   30      C       0.1986590000     2.2884060000    -0.6782870000
   31      C       0.0749880000     0.8384920000    -2.4861500000
   32      C       0.1850970000     2.0985240000    -3.1069160000
   33      S       0.2905010000     3.3415680000    -1.9657350000
   34      C       0.2119320000     2.3516230000    -4.5599720000
   35      O       0.1335450000     1.4214160000    -5.3502770000
   36      O       0.3269940000     3.6296490000    -5.0043750000
   37      F      -0.0182140000    -0.2717340000    -3.2462900000
   38      C       0.3683670000     3.9861010000    -6.3349760000
   39      H       0.4652700000     5.0868060000    -6.3702680000
   40      H      -0.5531400000     3.6758780000    -6.8756090000
   41      H       1.2298740000     3.5192630000    -6.8618780000
   42      H       0.2970910000     3.3817460000     1.3215100000
 ----------------------------------------------------------------

   10   -2754.2983793652      7.82e-07  Convergence criterion met
 Total energy in the final basis set =    -2754.2983793652
        RIMP2         total energy =     -2759.3516538212 a.u.

                    Orbital Energies (a.u.)
 --------------------------------------------------------------

 Alpha MOs
 -- Occupied --
-92.0161 -91.9944 -91.9915 -91.9870 -26.3345 -20.6116 -20.5931 -20.5919
-20.5493 -11.4097 -11.3776 -11.3202 -11.3194 -11.3128 -11.2968 -11.2960
-11.2958 -11.2925 -11.2882 -11.2879 -11.2877 -11.2860 -11.2848 -11.2814
-11.2807 -11.2623 -11.2604 -11.2597 -11.2505  -9.0144  -8.9984  -8.9919
 -8.9869  -6.6951  -6.6946  -6.6941  -6.6797  -6.6790  -6.6777  -6.6729
 -6.6722  -6.6713  -6.6679  -6.6673  -6.6664  -1.6476  -1.4713  -1.4172
 -1.4146  -1.3666  -1.2332  -1.1972  -1.1694  -1.1422  -1.0848  -1.0531
 -1.0476  -1.0276  -1.0035  -0.9939  -0.9716  -0.9617  -0.9509  -0.9385
 -0.8970  -0.8691  -0.8515  -0.8042  -0.7940  -0.7884  -0.7728  -0.7698
 -0.7583  -0.7332  -0.7189  -0.7157  -0.7020  -0.6887  -0.6838  -0.6781
 -0.6712  -0.6615  -0.6597  -0.6529  -0.6300  -0.6205  -0.6169  -0.6060
 -0.6015  -0.5938  -0.5864  -0.5762  -0.5707  -0.5636  -0.5528  -0.5502
 -0.5369  -0.5263  -0.5258  -0.5171  -0.5156  -0.5085  -0.5040  -0.4970
 -0.4889  -0.4838  -0.4775  -0.4693  -0.4617  -0.4610  -0.4597  -0.4188
 -0.3979  -0.3869  -0.3590  -0.3502  -0.3232  -0.2855  -0.2521

          Ground-State Mulliken Net Atomic Charges

     Atom                 Charge (a.u.)
  ----------------------------------------
      1 C                    -0.186573
      2 C                    -0.254217
      3 S                    -0.020051
      4 C                    -0.013486
      5 H                     0.196569
      6 C                    -0.029527
      7 C                     0.247420
      8 C                     0.239906
      9 C                    -0.043347
     10 C                    -0.034809
     11 O                    -0.333219
     12 O                    -0.338351
     13 C                    -0.085983
     14 H                     0.123430
     15 H                     0.091330
     16 H                     0.093866
     17 C                    -0.087253
     18 H                     0.125527
     19 H                     0.095462
     20 H                     0.089359
     21 C                    -0.200304
     22 S                    -0.019279
     23 C                    -0.012456
     24 H                     0.196265
     25 H                     0.206838
     26 C                    -0.035119
     27 S                     0.106030
     28 C                    -0.246298
     29 C                    -0.089938
     30 C                    -0.008966
     31 C                     0.394274
     32 C                    -0.148654
     33 S                     0.036241
     34 C                     0.461614
     35 O                    -0.451532
     36 O                    -0.298094
     37 F                    -0.212730
     38 C                    -0.055110
     39 H                     0.116517
     40 H                     0.084601
     41 H                     0.084297
     42 H                     0.215751
  ----------------------------------------
  Sum of atomic charges =     0.000000

                    Cartesian Multipole Moments
 -----------------------------------------------------------------
    Charge (ESU x 10^10)
                 0.0000
    Dipole Moment (Debye)
         X       0.5071      Y       1.1969      Z       3.4379
       Tot       3.6754
    Quadrupole Moments (Debye-Ang)
        XX    -185.3297     XY      -0.0954     YY    -157.1218
        XZ     -13.2788     YZ     -10.9116     ZZ    -197.8674

 Total job time:  290.25s(wall), 9852.47s(cpu)
        *  Thank you very much for using Q-Chem.  Have a nice day.  *
