 Q-Chem 5.4, Q-Chem, Inc., Pleasanton, CA (2021)
 Q-Chem 5.4.0 for Intel X86 EM64T Linux

User input:
--------------------------------------------------------------
$molecule
0 1
C	-0.136647	-8.519741	0.235306
C	0.221346	-7.635967	-0.772334
S	-0.650746	-7.651740	1.702286
C	0.090779	-6.261894	-0.408807
H	0.573754	-7.954738	-1.761423
C	-0.397735	-6.079985	0.932876
C	-0.568166	-4.798382	1.479069
C	0.418347	-5.153542	-1.241204
C	0.251852	-3.869626	-0.693206
C	-0.239872	-3.688927	0.648921
O	0.842486	-5.481075	-2.493437
O	-0.993092	-4.479871	2.737331
C	-1.884752	-5.356026	3.416110
H	-2.273124	-4.790496	4.284447
H	-1.373310	-6.268513	3.793352
H	-2.734702	-5.658187	2.766716
C	1.588030	-4.546999	-3.264581
H	1.974995	-5.107564	-4.136519
H	2.443843	-4.131473	-2.690439
H	0.955140	-3.712085	-3.636177
C	-0.367068	-2.314326	1.009848
S	0.517386	-2.295487	-1.459936
C	0.000000	-1.435180	0.000000
H	-0.721689	-1.993211	1.997308
H	-0.132444	-9.615985	0.230945
C	0.000000	0.000000	0.000000
S	0.780044	0.447780	1.510732
C	2.143774	1.236372	0.727629
C	0.786529	0.454137	-1.064665
C	1.988499	1.149844	-0.678287
C	0.729864	0.419512	-2.486150
C	1.825177	1.052041	-3.106916
S	2.903877	1.678680	-1.965735
C	2.047896	1.175232	-4.559972
O	1.240953	0.705897	-5.350277
O	3.160791	1.814024	-5.004375
F	-0.233039	-0.140940	-3.246290
C	3.476510	1.984585	-6.334976
H	4.433735	2.536545	-6.370268
H	2.693835	2.561503	-6.875609
H	3.588239	1.011113	-6.861878
H	2.940569	1.696327	1.321510
$end

$rem
JOBTYPE		SP
EXCHANGE	HF
CORRELATION	pRIMP2
BASIS		cc-pvtz
METHOD		rimp2
AUX_BASIS	rimp2-cc-pvtz
SOLVENT_METHOD	PCM
PURECART	11111
SYMMETRY	false
MEM_TOTAL	110000
SCF_CONVERGENCE = 6
THRESH=10
GUI = 2
$end

$solvent
dielectric 4.90
$end
--------------------------------------------------------------

             Standard Nuclear Orientation (Angstroms)
    I     Atom           X                Y                Z
 ----------------------------------------------------------------
    1      C      -0.1366470000    -8.5197410000     0.2353060000
    2      C       0.2213460000    -7.6359670000    -0.7723340000
    3      S      -0.6507460000    -7.6517400000     1.7022860000
    4      C       0.0907790000    -6.2618940000    -0.4088070000
    5      H       0.5737540000    -7.9547380000    -1.7614230000
    6      C      -0.3977350000    -6.0799850000     0.9328760000
    7      C      -0.5681660000    -4.7983820000     1.4790690000
    8      C       0.4183470000    -5.1535420000    -1.2412040000
    9      C       0.2518520000    -3.8696260000    -0.6932060000
   10      C      -0.2398720000    -3.6889270000     0.6489210000
   11      O       0.8424860000    -5.4810750000    -2.4934370000
   12      O      -0.9930920000    -4.4798710000     2.7373310000
   13      C      -1.8847520000    -5.3560260000     3.4161100000
   14      H      -2.2731240000    -4.7904960000     4.2844470000
   15      H      -1.3733100000    -6.2685130000     3.7933520000
   16      H      -2.7347020000    -5.6581870000     2.7667160000
   17      C       1.5880300000    -4.5469990000    -3.2645810000
   18      H       1.9749950000    -5.1075640000    -4.1365190000
   19      H       2.4438430000    -4.1314730000    -2.6904390000
   20      H       0.9551400000    -3.7120850000    -3.6361770000
   21      C      -0.3670680000    -2.3143260000     1.0098480000
   22      S       0.5173860000    -2.2954870000    -1.4599360000
   23      C       0.0000000000    -1.4351800000     0.0000000000
   24      H      -0.7216890000    -1.9932110000     1.9973080000
   25      H      -0.1324440000    -9.6159850000     0.2309450000
   26      C       0.0000000000     0.0000000000     0.0000000000
   27      S       0.7800440000     0.4477800000     1.5107320000
   28      C       2.1437740000     1.2363720000     0.7276290000
   29      C       0.7865290000     0.4541370000    -1.0646650000
   30      C       1.9884990000     1.1498440000    -0.6782870000
   31      C       0.7298640000     0.4195120000    -2.4861500000
   32      C       1.8251770000     1.0520410000    -3.1069160000
   33      S       2.9038770000     1.6786800000    -1.9657350000
   34      C       2.0478960000     1.1752320000    -4.5599720000
   35      O       1.2409530000     0.7058970000    -5.3502770000
   36      O       3.1607910000     1.8140240000    -5.0043750000
   37      F      -0.2330390000    -0.1409400000    -3.2462900000
   38      C       3.4765100000     1.9845850000    -6.3349760000
   39      H       4.4337350000     2.5365450000    -6.3702680000
   40      H       2.6938350000     2.5615030000    -6.8756090000
   41      H       3.5882390000     1.0111130000    -6.8618780000
   42      H       2.9405690000     1.6963270000     1.3215100000
 ----------------------------------------------------------------

   11   -2754.2238616222      6.19e-07  Convergence criterion met
 Total energy in the final basis set =    -2754.2238616222
        RIMP2         total energy =     -2759.3002365009 a.u.

                    Orbital Energies (a.u.)
 --------------------------------------------------------------

 Alpha MOs
 -- Occupied --
-92.0180 -92.0102 -91.9822 -91.9813 -26.3355 -20.6177 -20.5896 -20.5852
-20.5597 -11.4187 -11.3786 -11.3314 -11.3166 -11.3155 -11.3063 -11.3037
-11.2992 -11.2960 -11.2916 -11.2850 -11.2828 -11.2793 -11.2767 -11.2754
-11.2723 -11.2560 -11.2491 -11.2462 -11.2314  -9.0172  -9.0135  -8.9835
 -8.9813  -6.6977  -6.6968  -6.6966  -6.6947  -6.6941  -6.6928  -6.6644
 -6.6637  -6.6627  -6.6623  -6.6617  -6.6609  -1.6501  -1.4781  -1.4134
 -1.4081  -1.3745  -1.2483  -1.1911  -1.1706  -1.1444  -1.0862  -1.0528
 -1.0452  -1.0364  -0.9984  -0.9912  -0.9778  -0.9559  -0.9468  -0.9396
 -0.8909  -0.8792  -0.8426  -0.8104  -0.7969  -0.7865  -0.7777  -0.7613
 -0.7531  -0.7288  -0.7226  -0.7162  -0.6984  -0.6918  -0.6835  -0.6803
 -0.6769  -0.6648  -0.6556  -0.6487  -0.6255  -0.6156  -0.6144  -0.6136
 -0.6101  -0.6028  -0.5817  -0.5729  -0.5658  -0.5578  -0.5550  -0.5497
 -0.5350  -0.5264  -0.5208  -0.5179  -0.5118  -0.5060  -0.5045  -0.4947
 -0.4895  -0.4816  -0.4734  -0.4695  -0.4657  -0.4619  -0.4536  -0.4195
 -0.3883  -0.3824  -0.3625  -0.3460  -0.3230  -0.2887  -0.2406

          Ground-State Mulliken Net Atomic Charges

     Atom                 Charge (a.u.)
  ----------------------------------------
      1 C                    -0.203862
      2 C                    -0.252140
      3 S                    -0.031582
      4 C                    -0.031089
      5 H                     0.194708
      6 C                    -0.022633
      7 C                     0.219512
      8 C                     0.247410
      9 C                    -0.051346
     10 C                     0.005241
     11 O                    -0.333200
     12 O                    -0.342685
     13 C                    -0.085316
     14 H                     0.120201
     15 H                     0.089457
     16 H                     0.092370
     17 C                    -0.089087
     18 H                     0.125241
     19 H                     0.092628
     20 H                     0.091506
     21 C                    -0.321815
     22 S                    -0.040685
     23 C                     0.047636
     24 H                     0.180279
     25 H                     0.203746
     26 C                    -0.157429
     27 S                     0.141462
     28 C                    -0.130942
     29 C                     0.006282
     30 C                    -0.038710
     31 C                     0.319438
     32 C                    -0.105890
     33 S                     0.085342
     34 C                     0.459368
     35 O                    -0.435487
     36 O                    -0.296220
     37 F                    -0.210875
     38 C                    -0.054603
     39 H                     0.117976
     40 H                     0.086353
     41 H                     0.085859
     42 H                     0.223582
  ----------------------------------------
  Sum of atomic charges =     0.000000

                    Cartesian Multipole Moments
 -----------------------------------------------------------------
    Charge (ESU x 10^10)
                -0.0000
    Dipole Moment (Debye)
         X       5.5792      Y       3.8735      Z       1.7150
       Tot       7.0052
    Quadrupole Moments (Debye-Ang)
        XX    -177.6516     XY      10.3733     YY    -185.7024
        XZ     -22.4139     YZ      -4.0057     ZZ    -184.2928

 Total job time:  311.91s(wall), 10106.16s(cpu)
        *  Thank you very much for using Q-Chem.  Have a nice day.  *
