 Q-Chem 5.4, Q-Chem, Inc., Pleasanton, CA (2021)
 Q-Chem 5.4.0 for Intel X86 EM64T Linux

User input:
--------------------------------------------------------------
$molecule
0 1
C	-0.235993	-8.519741	0.135457
C	0.577858	-7.635967	-0.558188
S	-1.414705	-7.651740	1.148850
C	0.283020	-6.261894	-0.308648
H	1.377597	-7.954738	-1.238560
C	-0.810887	-6.079985	0.609026
C	-1.231581	-4.798382	0.996828
C	0.982901	-5.153542	-0.865740
C	0.564713	-3.869626	-0.474408
C	-0.532196	-3.688927	0.442046
O	1.976332	-5.481075	-1.738137
O	-2.228709	-4.479871	1.874052
C	-3.340298	-5.356026	2.016062
H	-4.110807	-4.790496	2.573877
H	-3.085998	-6.268513	2.598484
H	-3.751679	-5.658187	1.028695
C	3.007565	-4.546999	-2.033195
H	3.778655	-5.107564	-2.594833
H	3.461650	-4.131473	-1.108067
H	2.645264	-3.712085	-2.671451
C	-0.822814	-2.314326	0.691020
S	1.178037	-2.295487	-1.005649
C	-0.000000	-1.435180	-0.000000
H	-1.623656	-1.993211	1.368875
H	-0.230172	-9.615985	0.133782
C	0.000000	0.000000	0.000000
S	0.382139	0.814215	1.510732
C	1.046923	2.242395	0.727629
C	0.383804	0.823142	-1.064665
C	0.969360	2.082453	-0.678287
C	0.357247	0.762277	-2.486150
C	0.891671	1.908660	-3.106916
S	1.415865	3.040689	-1.965735
C	1.003453	2.137318	-4.559972
O	0.611644	1.290019	-5.350277
O	1.548687	3.298916	-5.004375
F	-0.110054	-0.249117	-3.246290
C	1.709479	3.619721	-6.334976
H	2.177001	4.620902	-6.370268
H	0.737443	3.643380	-6.875609
H	2.359363	2.886384	-6.861878
H	1.435800	3.076190	1.321510
$end

$rem
JOBTYPE		SP
EXCHANGE	HF
CORRELATION	pRIMP2
BASIS		cc-pvtz
METHOD		rimp2
AUX_BASIS	rimp2-cc-pvtz
SOLVENT_METHOD	PCM
PURECART	11111
SYMMETRY	false
MEM_TOTAL	110000
SCF_CONVERGENCE = 6
THRESH=10
GUI = 2
$end

$solvent
dielectric 4.90
$end
--------------------------------------------------------------

             Standard Nuclear Orientation (Angstroms)
    I     Atom           X                Y                Z
 ----------------------------------------------------------------
    1      C      -0.2359930000    -8.5197410000     0.1354570000
    2      C       0.5778580000    -7.6359670000    -0.5581880000
    3      S      -1.4147050000    -7.6517400000     1.1488500000
    4      C       0.2830200000    -6.2618940000    -0.3086480000
    5      H       1.3775970000    -7.9547380000    -1.2385600000
    6      C      -0.8108870000    -6.0799850000     0.6090260000
    7      C      -1.2315810000    -4.7983820000     0.9968280000
    8      C       0.9829010000    -5.1535420000    -0.8657400000
    9      C       0.5647130000    -3.8696260000    -0.4744080000
   10      C      -0.5321960000    -3.6889270000     0.4420460000
   11      O       1.9763320000    -5.4810750000    -1.7381370000
   12      O      -2.2287090000    -4.4798710000     1.8740520000
   13      C      -3.3402980000    -5.3560260000     2.0160620000
   14      H      -4.1108070000    -4.7904960000     2.5738770000
   15      H      -3.0859980000    -6.2685130000     2.5984840000
   16      H      -3.7516790000    -5.6581870000     1.0286950000
   17      C       3.0075650000    -4.5469990000    -2.0331950000
   18      H       3.7786550000    -5.1075640000    -2.5948330000
   19      H       3.4616500000    -4.1314730000    -1.1080670000
   20      H       2.6452640000    -3.7120850000    -2.6714510000
   21      C      -0.8228140000    -2.3143260000     0.6910200000
   22      S       1.1780370000    -2.2954870000    -1.0056490000
   23      C       0.0000000000    -1.4351800000     0.0000000000
   24      H      -1.6236560000    -1.9932110000     1.3688750000
   25      H      -0.2301720000    -9.6159850000     0.1337820000
   26      C       0.0000000000     0.0000000000     0.0000000000
   27      S       0.3821390000     0.8142150000     1.5107320000
   28      C       1.0469230000     2.2423950000     0.7276290000
   29      C       0.3838040000     0.8231420000    -1.0646650000
   30      C       0.9693600000     2.0824530000    -0.6782870000
   31      C       0.3572470000     0.7622770000    -2.4861500000
   32      C       0.8916710000     1.9086600000    -3.1069160000
   33      S       1.4158650000     3.0406890000    -1.9657350000
   34      C       1.0034530000     2.1373180000    -4.5599720000
   35      O       0.6116440000     1.2900190000    -5.3502770000
   36      O       1.5486870000     3.2989160000    -5.0043750000
   37      F      -0.1100540000    -0.2491170000    -3.2462900000
   38      C       1.7094790000     3.6197210000    -6.3349760000
   39      H       2.1770010000     4.6209020000    -6.3702680000
   40      H       0.7374430000     3.6433800000    -6.8756090000
   41      H       2.3593630000     2.8863840000    -6.8618780000
   42      H       1.4358000000     3.0761900000     1.3215100000
 ----------------------------------------------------------------

   10   -2754.2865721335      8.46e-07  Convergence criterion met
 Total energy in the final basis set =    -2754.2865721335
        RIMP2         total energy =     -2759.3439935814 a.u.

                    Orbital Energies (a.u.)
 --------------------------------------------------------------

 Alpha MOs
 -- Occupied --
-92.0164 -91.9965 -91.9893 -91.9860 -26.3338 -20.6125 -20.5919 -20.5913
-20.5508 -11.4110 -11.3776 -11.3189 -11.3174 -11.3060 -11.2992 -11.2984
-11.2971 -11.2944 -11.2887 -11.2866 -11.2860 -11.2857 -11.2838 -11.2837
-11.2794 -11.2606 -11.2585 -11.2553 -11.2497  -9.0147  -9.0004  -8.9897
 -8.9860  -6.6954  -6.6947  -6.6943  -6.6817  -6.6810  -6.6797  -6.6707
 -6.6700  -6.6690  -6.6670  -6.6663  -6.6655  -1.6471  -1.4723  -1.4161
 -1.4140  -1.3677  -1.2352  -1.1956  -1.1685  -1.1426  -1.0842  -1.0519
 -1.0480  -1.0288  -1.0020  -0.9929  -0.9722  -0.9607  -0.9501  -0.9387
 -0.8955  -0.8702  -0.8497  -0.8071  -0.7914  -0.7875  -0.7750  -0.7656
 -0.7576  -0.7322  -0.7184  -0.7154  -0.7003  -0.6890  -0.6827  -0.6789
 -0.6721  -0.6613  -0.6587  -0.6524  -0.6291  -0.6197  -0.6167  -0.6070
 -0.6035  -0.5959  -0.5830  -0.5763  -0.5674  -0.5648  -0.5569  -0.5512
 -0.5330  -0.5272  -0.5244  -0.5159  -0.5143  -0.5084  -0.5017  -0.4962
 -0.4887  -0.4849  -0.4759  -0.4680  -0.4621  -0.4617  -0.4597  -0.4135
 -0.3983  -0.3863  -0.3582  -0.3499  -0.3202  -0.2867  -0.2529

          Ground-State Mulliken Net Atomic Charges

     Atom                 Charge (a.u.)
  ----------------------------------------
      1 C                    -0.188788
      2 C                    -0.254449
      3 S                    -0.023208
      4 C                    -0.015136
      5 H                     0.196438
      6 C                    -0.025071
      7 C                     0.236886
      8 C                     0.241433
      9 C                    -0.043092
     10 C                    -0.007016
     11 O                    -0.333106
     12 O                    -0.340102
     13 C                    -0.085643
     14 H                     0.122269
     15 H                     0.091020
     16 H                     0.094301
     17 C                    -0.088123
     18 H                     0.125443
     19 H                     0.094172
     20 H                     0.090857
     21 C                    -0.260416
     22 S                    -0.008629
     23 C                    -0.012527
     24 H                     0.195742
     25 H                     0.206358
     26 C                     0.011807
     27 S                     0.127450
     28 C                    -0.230581
     29 C                    -0.147690
     30 C                    -0.002419
     31 C                     0.382294
     32 C                    -0.147634
     33 S                     0.045561
     34 C                     0.460413
     35 O                    -0.448381
     36 O                    -0.297907
     37 F                    -0.208966
     38 C                    -0.054807
     39 H                     0.116710
     40 H                     0.084818
     41 H                     0.084555
     42 H                     0.215164
  ----------------------------------------
  Sum of atomic charges =     0.000000

                    Cartesian Multipole Moments
 -----------------------------------------------------------------
    Charge (ESU x 10^10)
                -0.0000
    Dipole Moment (Debye)
         X       1.6204      Y       1.7374      Z       2.8908
       Tot       3.7418
    Quadrupole Moments (Debye-Ang)
        XX    -178.7333     XY       7.3510     YY    -162.1469
        XZ     -14.9424     YZ      -8.7034     ZZ    -200.8411

 Total job time:  313.86s(wall), 10022.60s(cpu)
        *  Thank you very much for using Q-Chem.  Have a nice day.  *
