 Q-Chem 5.4, Q-Chem, Inc., Pleasanton, CA (2021)
 Q-Chem 5.4.0 for Intel X86 EM64T Linux

User input:
--------------------------------------------------------------
$molecule
0 1
C	0.046574	-8.519741	0.268090
C	-0.326886	-7.635967	-0.733920
S	0.595708	-7.651740	1.722318
C	-0.193236	-6.261894	-0.371516
H	-0.692700	-7.954738	-1.718130
C	0.294958	-6.079985	0.970283
C	0.515487	-4.798382	1.498243
C	-0.477358	-5.153542	-1.219725
C	-0.252655	-3.869626	-0.692914
C	0.233366	-3.688927	0.651289
O	-0.957369	-5.481075	-2.451623
O	0.998769	-4.479871	2.735264
C	0.752029	-5.356026	3.828387
H	1.012675	-4.790496	4.743213
H	1.386303	-6.268513	3.788623
H	-0.316492	-5.658187	3.877260
C	-0.881930	-4.546999	-3.521580
H	-1.145969	-5.107564	-4.438260
H	0.142712	-4.131473	-3.631868
H	-1.605610	-3.712085	-3.399425
C	0.367928	-2.314326	1.009535
S	-0.542088	-2.295487	-1.450945
C	-0.000000	-1.435180	-0.000000
H	0.730999	-1.993211	1.993920
H	0.046991	-9.615985	0.262047
C	0.000000	0.000000	0.000000
S	0.158383	0.885376	1.510732
C	0.430876	2.436951	0.727629
C	0.157682	0.894430	-1.064665
C	0.397351	2.262384	-0.678287
C	0.147783	0.828765	-2.486150
C	0.367291	2.074406	-3.106916
S	0.580633	3.303533	-1.965735
C	0.416083	2.324204	-4.559972
O	0.256921	1.404367	-5.350277
O	0.642094	3.587338	-5.004375
F	-0.041828	-0.269113	-3.246290
C	0.714377	3.938827	-6.334976
H	0.906844	5.026898	-6.370268
H	-0.230661	3.710099	-6.875609
H	1.531918	3.398681	-6.861878
H	0.590699	3.342984	1.321510
$end

$rem
JOBTYPE		SP
EXCHANGE	HF
CORRELATION	pRIMP2
BASIS		cc-pvtz
METHOD		rimp2
AUX_BASIS	rimp2-cc-pvtz
SOLVENT_METHOD	PCM
PURECART	11111
SYMMETRY	false
MEM_TOTAL	110000
SCF_CONVERGENCE = 6
THRESH=10
GUI = 2
$end

$solvent
dielectric 4.90
$end
--------------------------------------------------------------

             Standard Nuclear Orientation (Angstroms)
    I     Atom           X                Y                Z
 ----------------------------------------------------------------
    1      C       0.0465740000    -8.5197410000     0.2680900000
    2      C      -0.3268860000    -7.6359670000    -0.7339200000
    3      S       0.5957080000    -7.6517400000     1.7223180000
    4      C      -0.1932360000    -6.2618940000    -0.3715160000
    5      H      -0.6927000000    -7.9547380000    -1.7181300000
    6      C       0.2949580000    -6.0799850000     0.9702830000
    7      C       0.5154870000    -4.7983820000     1.4982430000
    8      C      -0.4773580000    -5.1535420000    -1.2197250000
    9      C      -0.2526550000    -3.8696260000    -0.6929140000
   10      C       0.2333660000    -3.6889270000     0.6512890000
   11      O      -0.9573690000    -5.4810750000    -2.4516230000
   12      O       0.9987690000    -4.4798710000     2.7352640000
   13      C       0.7520290000    -5.3560260000     3.8283870000
   14      H       1.0126750000    -4.7904960000     4.7432130000
   15      H       1.3863030000    -6.2685130000     3.7886230000
   16      H      -0.3164920000    -5.6581870000     3.8772600000
   17      C      -0.8819300000    -4.5469990000    -3.5215800000
   18      H      -1.1459690000    -5.1075640000    -4.4382600000
   19      H       0.1427120000    -4.1314730000    -3.6318680000
   20      H      -1.6056100000    -3.7120850000    -3.3994250000
   21      C       0.3679280000    -2.3143260000     1.0095350000
   22      S      -0.5420880000    -2.2954870000    -1.4509450000
   23      C       0.0000000000    -1.4351800000     0.0000000000
   24      H       0.7309990000    -1.9932110000     1.9939200000
   25      H       0.0469910000    -9.6159850000     0.2620470000
   26      C       0.0000000000     0.0000000000     0.0000000000
   27      S       0.1583830000     0.8853760000     1.5107320000
   28      C       0.4308760000     2.4369510000     0.7276290000
   29      C       0.1576820000     0.8944300000    -1.0646650000
   30      C       0.3973510000     2.2623840000    -0.6782870000
   31      C       0.1477830000     0.8287650000    -2.4861500000
   32      C       0.3672910000     2.0744060000    -3.1069160000
   33      S       0.5806330000     3.3035330000    -1.9657350000
   34      C       0.4160830000     2.3242040000    -4.5599720000
   35      O       0.2569210000     1.4043670000    -5.3502770000
   36      O       0.6420940000     3.5873380000    -5.0043750000
   37      F      -0.0418280000    -0.2691130000    -3.2462900000
   38      C       0.7143770000     3.9388270000    -6.3349760000
   39      H       0.9068440000     5.0268980000    -6.3702680000
   40      H      -0.2306610000     3.7100990000    -6.8756090000
   41      H       1.5319180000     3.3986810000    -6.8618780000
   42      H       0.5906990000     3.3429840000     1.3215100000
 ----------------------------------------------------------------

   10   -2754.2925392319      8.16e-07  Convergence criterion met
 Total energy in the final basis set =    -2754.2925392319
        RIMP2         total energy =     -2759.3489450439 a.u.

                    Orbital Energies (a.u.)
 --------------------------------------------------------------

 Alpha MOs
 -- Occupied --
-92.0151 -91.9950 -91.9864 -91.9860 -26.3353 -20.6120 -20.5920 -20.5914
-20.5499 -11.4103 -11.3786 -11.3185 -11.3183 -11.3135 -11.2974 -11.2974
-11.2971 -11.2934 -11.2885 -11.2865 -11.2856 -11.2852 -11.2839 -11.2827
-11.2799 -11.2615 -11.2592 -11.2589 -11.2499  -9.0135  -8.9990  -8.9869
 -8.9863  -6.6943  -6.6937  -6.6932  -6.6803  -6.6796  -6.6783  -6.6678
 -6.6673  -6.6671  -6.6667  -6.6660  -6.6658  -1.6505  -1.4718  -1.4157
 -1.4145  -1.3671  -1.2343  -1.1963  -1.1690  -1.1421  -1.0847  -1.0521
 -1.0481  -1.0287  -1.0023  -0.9938  -0.9724  -0.9607  -0.9499  -0.9382
 -0.8958  -0.8697  -0.8520  -0.8096  -0.7948  -0.7871  -0.7751  -0.7637
 -0.7582  -0.7325  -0.7202  -0.7179  -0.7006  -0.6886  -0.6840  -0.6786
 -0.6734  -0.6619  -0.6586  -0.6524  -0.6290  -0.6197  -0.6163  -0.6066
 -0.6015  -0.5954  -0.5888  -0.5720  -0.5684  -0.5671  -0.5580  -0.5526
 -0.5302  -0.5272  -0.5217  -0.5195  -0.5146  -0.5092  -0.5017  -0.4950
 -0.4863  -0.4829  -0.4803  -0.4653  -0.4616  -0.4608  -0.4590  -0.4231
 -0.3957  -0.3865  -0.3596  -0.3503  -0.3244  -0.2839  -0.2480

          Ground-State Mulliken Net Atomic Charges

     Atom                 Charge (a.u.)
  ----------------------------------------
      1 C                    -0.187748
      2 C                    -0.254156
      3 S                    -0.022929
      4 C                    -0.013221
      5 H                     0.196645
      6 C                    -0.030055
      7 C                     0.243318
      8 C                     0.241281
      9 C                    -0.044169
     10 C                    -0.028101
     11 O                    -0.333850
     12 O                    -0.340410
     13 C                    -0.085663
     14 H                     0.122393
     15 H                     0.091332
     16 H                     0.094147
     17 C                    -0.087747
     18 H                     0.125085
     19 H                     0.095510
     20 H                     0.090037
     21 C                    -0.242621
     22 S                    -0.011726
     23 C                     0.001480
     24 H                     0.190041
     25 H                     0.206558
     26 C                     0.006004
     27 S                     0.091672
     28 C                    -0.229884
     29 C                    -0.081000
     30 C                    -0.025751
     31 C                     0.377340
     32 C                    -0.139102
     33 S                     0.037766
     34 C                     0.458900
     35 O                    -0.451258
     36 O                    -0.297858
     37 F                    -0.209328
     38 C                    -0.054971
     39 H                     0.116672
     40 H                     0.084395
     41 H                     0.084426
     42 H                     0.216544
  ----------------------------------------
  Sum of atomic charges =     0.000000

                    Cartesian Multipole Moments
 -----------------------------------------------------------------
    Charge (ESU x 10^10)
                -0.0000
    Dipole Moment (Debye)
         X       0.3505      Y       1.5757      Z       3.0387
       Tot       3.4408
    Quadrupole Moments (Debye-Ang)
        XX    -201.1612     XY       4.0490     YY    -159.8686
        XZ       1.0435     YZ     -10.9234     ZZ    -181.2453

 Total job time:  280.63s(wall), 9163.47s(cpu)
        *  Thank you very much for using Q-Chem.  Have a nice day.  *
