 Q-Chem 5.4, Q-Chem, Inc., Pleasanton, CA (2021)
 Q-Chem 5.4.0 for Intel X86 EM64T Linux

User input:
--------------------------------------------------------------
$molecule
0 1
C	-0.000687	-8.519741	0.272104
C	-0.194476	-7.635967	-0.779533
S	0.287581	-7.651740	1.799596
C	-0.125787	-6.261894	-0.399427
H	-0.383826	-7.954738	-1.812314
C	0.121989	-6.079985	1.006762
C	0.247488	-4.798382	1.564994
C	-0.258303	-5.153542	-1.284087
C	-0.128493	-3.869626	-0.726260
C	0.116725	-3.688927	0.681918
O	-0.517104	-5.481075	-2.580622
O	0.508622	-4.479871	2.867144
C	0.075811	-5.356026	3.900814
H	0.173640	-4.790496	4.847002
H	0.707354	-6.268513	3.971794
H	-0.984963	-5.658187	3.763397
C	-0.257016	-4.546999	-3.621225
H	-0.357864	-5.107564	-4.569828
H	0.771211	-4.131473	-3.551910
H	-0.990913	-3.712085	-3.626592
C	0.187034	-2.314326	1.058088
S	-0.281899	-2.295487	-1.523035
C	0.000000	-1.435180	0.000000
H	0.373653	-1.993211	2.090565
H	0.000773	-9.615985	0.266226
C	0.000000	0.000000	0.000000
S	0.234946	0.868203	1.510732
C	0.641630	2.390125	0.727629
C	0.235036	0.877284	-1.064665
C	0.593019	2.219143	-0.678287
C	0.219452	0.812732	-2.486150
C	0.546689	2.034501	-3.106916
S	0.866345	3.240357	-1.965735
C	0.617067	2.279095	-4.559972
O	0.378342	1.376631	-5.350277
O	0.952308	3.517725	-5.004375
F	-0.065123	-0.264443	-3.246290
C	1.054950	3.861577	-6.334976
H	1.341516	4.928732	-6.370268
H	0.093573	3.716085	-6.875609
H	1.822303	3.252232	-6.861878
H	0.879812	3.278780	1.321510
$end

$rem
JOBTYPE		SP
EXCHANGE	HF
CORRELATION	pRIMP2
BASIS		cc-pvtz
METHOD		rimp2
AUX_BASIS	rimp2-cc-pvtz
SOLVENT_METHOD	PCM
PURECART	11111
SYMMETRY	false
MEM_TOTAL	110000
SCF_CONVERGENCE = 6
THRESH=10
GUI = 2
$end

$solvent
dielectric 4.90
$end
--------------------------------------------------------------

             Standard Nuclear Orientation (Angstroms)
    I     Atom           X                Y                Z
 ----------------------------------------------------------------
    1      C      -0.0006870000    -8.5197410000     0.2721040000
    2      C      -0.1944760000    -7.6359670000    -0.7795330000
    3      S       0.2875810000    -7.6517400000     1.7995960000
    4      C      -0.1257870000    -6.2618940000    -0.3994270000
    5      H      -0.3838260000    -7.9547380000    -1.8123140000
    6      C       0.1219890000    -6.0799850000     1.0067620000
    7      C       0.2474880000    -4.7983820000     1.5649940000
    8      C      -0.2583030000    -5.1535420000    -1.2840870000
    9      C      -0.1284930000    -3.8696260000    -0.7262600000
   10      C       0.1167250000    -3.6889270000     0.6819180000
   11      O      -0.5171040000    -5.4810750000    -2.5806220000
   12      O       0.5086220000    -4.4798710000     2.8671440000
   13      C       0.0758110000    -5.3560260000     3.9008140000
   14      H       0.1736400000    -4.7904960000     4.8470020000
   15      H       0.7073540000    -6.2685130000     3.9717940000
   16      H      -0.9849630000    -5.6581870000     3.7633970000
   17      C      -0.2570160000    -4.5469990000    -3.6212250000
   18      H      -0.3578640000    -5.1075640000    -4.5698280000
   19      H       0.7712110000    -4.1314730000    -3.5519100000
   20      H      -0.9909130000    -3.7120850000    -3.6265920000
   21      C       0.1870340000    -2.3143260000     1.0580880000
   22      S      -0.2818990000    -2.2954870000    -1.5230350000
   23      C       0.0000000000    -1.4351800000     0.0000000000
   24      H       0.3736530000    -1.9932110000     2.0905650000
   25      H       0.0007730000    -9.6159850000     0.2662260000
   26      C       0.0000000000     0.0000000000     0.0000000000
   27      S       0.2349460000     0.8682030000     1.5107320000
   28      C       0.6416300000     2.3901250000     0.7276290000
   29      C       0.2350360000     0.8772840000    -1.0646650000
   30      C       0.5930190000     2.2191430000    -0.6782870000
   31      C       0.2194520000     0.8127320000    -2.4861500000
   32      C       0.5466890000     2.0345010000    -3.1069160000
   33      S       0.8663450000     3.2403570000    -1.9657350000
   34      C       0.6170670000     2.2790950000    -4.5599720000
   35      O       0.3783420000     1.3766310000    -5.3502770000
   36      O       0.9523080000     3.5177250000    -5.0043750000
   37      F      -0.0651230000    -0.2644430000    -3.2462900000
   38      C       1.0549500000     3.8615770000    -6.3349760000
   39      H       1.3415160000     4.9287320000    -6.3702680000
   40      H       0.0935730000     3.7160850000    -6.8756090000
   41      H       1.8223030000     3.2522320000    -6.8618780000
   42      H       0.8798120000     3.2787800000     1.3215100000
 ----------------------------------------------------------------

   10   -2754.2888472656      8.28e-07  Convergence criterion met
 Total energy in the final basis set =    -2754.2888472656
        RIMP2         total energy =     -2759.3466003236 a.u.

                    Orbital Energies (a.u.)
 --------------------------------------------------------------

 Alpha MOs
 -- Occupied --
-92.0147 -91.9956 -91.9861 -91.9849 -26.3362 -20.6123 -20.5917 -20.5911
-20.5503 -11.4107 -11.3790 -11.3182 -11.3177 -11.3127 -11.2980 -11.2978
-11.2974 -11.2948 -11.2887 -11.2863 -11.2853 -11.2839 -11.2837 -11.2835
-11.2796 -11.2612 -11.2587 -11.2580 -11.2497  -9.0132  -8.9996  -8.9861
 -8.9860  -6.6940  -6.6934  -6.6929  -6.6808  -6.6802  -6.6788  -6.6671
 -6.6667  -6.6664  -6.6661  -6.6656  -6.6650  -1.6520  -1.4721  -1.4154
 -1.4142  -1.3675  -1.2349  -1.1959  -1.1690  -1.1423  -1.0845  -1.0518
 -1.0485  -1.0291  -1.0019  -0.9938  -0.9728  -0.9604  -0.9497  -0.9381
 -0.8956  -0.8701  -0.8519  -0.8101  -0.7960  -0.7871  -0.7751  -0.7632
 -0.7579  -0.7322  -0.7210  -0.7191  -0.7004  -0.6889  -0.6840  -0.6789
 -0.6742  -0.6621  -0.6583  -0.6522  -0.6285  -0.6194  -0.6160  -0.6069
 -0.6019  -0.5962  -0.5888  -0.5709  -0.5683  -0.5661  -0.5586  -0.5527
 -0.5301  -0.5268  -0.5223  -0.5197  -0.5144  -0.5090  -0.5018  -0.4949
 -0.4858  -0.4830  -0.4801  -0.4643  -0.4617  -0.4611  -0.4574  -0.4246
 -0.3954  -0.3863  -0.3600  -0.3501  -0.3249  -0.2837  -0.2467

          Ground-State Mulliken Net Atomic Charges

     Atom                 Charge (a.u.)
  ----------------------------------------
      1 C                    -0.188528
      2 C                    -0.254212
      3 S                    -0.023418
      4 C                    -0.013819
      5 H                     0.196605
      6 C                    -0.028931
      7 C                     0.241042
      8 C                     0.242234
      9 C                    -0.041254
     10 C                    -0.025544
     11 O                    -0.333866
     12 O                    -0.340660
     13 C                    -0.085628
     14 H                     0.122237
     15 H                     0.091225
     16 H                     0.094152
     17 C                    -0.088094
     18 H                     0.125217
     19 H                     0.094894
     20 H                     0.090801
     21 C                    -0.244199
     22 S                    -0.021302
     23 C                    -0.005622
     24 H                     0.187810
     25 H                     0.206454
     26 C                     0.024866
     27 S                     0.090556
     28 C                    -0.226352
     29 C                    -0.081641
     30 C                    -0.030442
     31 C                     0.368951
     32 C                    -0.132341
     33 S                     0.040531
     34 C                     0.458072
     35 O                    -0.450588
     36 O                    -0.297772
     37 F                    -0.209398
     38 C                    -0.054914
     39 H                     0.116770
     40 H                     0.084532
     41 H                     0.084433
     42 H                     0.217145
  ----------------------------------------
  Sum of atomic charges =     0.000000

                    Cartesian Multipole Moments
 -----------------------------------------------------------------
    Charge (ESU x 10^10)
                 0.0000
    Dipole Moment (Debye)
         X       0.6752      Y       1.7342      Z       2.9182
       Tot       3.4611
    Quadrupole Moments (Debye-Ang)
        XX    -200.7973     XY       5.4859     YY    -161.0256
        XZ      -4.3043     YZ     -10.5466     ZZ    -180.7767

 Total job time:  291.40s(wall), 9524.08s(cpu)
        *  Thank you very much for using Q-Chem.  Have a nice day.  *
