 Q-Chem 5.4, Q-Chem, Inc., Pleasanton, CA (2021)
 Q-Chem 5.4.0 for Intel X86 EM64T Linux

User input:
--------------------------------------------------------------
$molecule
0 1
C	0.047927	-8.519741	-0.267851
C	0.056157	-7.635967	0.801461
S	0.029285	-7.651740	-1.822194
C	0.054516	-6.261894	0.415201
H	0.063290	-7.954738	1.851431
C	0.054687	-6.079985	-1.012650
C	0.028030	-4.798382	-1.584194
C	0.031399	-5.153542	1.309433
C	0.000427	-3.869626	0.737539
C	0.003462	-3.688927	-0.691828
O	0.061128	-5.481075	2.631211
O	-0.003021	-4.479871	-2.911907
C	0.602710	-5.356026	-3.854716
H	0.670671	-4.790496	-4.803517
H	-0.006913	-6.268513	-4.034285
H	1.623507	-5.658187	-3.535185
C	-0.375708	-4.546999	3.610841
H	-0.441115	-5.107564	4.562544
H	-1.376277	-4.131473	3.364029
H	0.346107	-3.712085	3.743566
C	-0.000458	-2.314326	-1.074491
S	0.013144	-2.295487	1.548848
C	-0.000000	-1.435180	-0.000000
H	-0.004953	-1.993211	-2.123688
H	0.045468	-9.615985	-0.262315
C	0.000000	0.000000	0.000000
S	0.451648	0.777811	1.510732
C	1.238377	2.142617	0.727629
C	0.454085	0.786559	-1.064665
C	1.147169	1.990043	-0.678287
C	0.422325	0.728240	-2.486150
C	1.054629	1.823683	-3.106916
S	1.675491	2.905718	-1.965735
C	1.185914	2.041729	-4.559972
O	0.721749	1.231802	-5.350277
O	1.830313	3.151386	-5.004375
F	-0.131347	-0.238577	-3.246290
C	2.018453	3.456956	-6.334976
H	2.571455	4.413580	-6.370268
H	1.052178	3.565244	-6.875609
H	2.601950	2.669768	-6.861878
H	1.698444	2.939346	1.321510
$end

$rem
JOBTYPE		SP
EXCHANGE	HF
CORRELATION	pRIMP2
BASIS		cc-pvtz
METHOD		rimp2
AUX_BASIS	rimp2-cc-pvtz
SOLVENT_METHOD	PCM
PURECART	11111
SYMMETRY	false
MEM_TOTAL	110000
SCF_CONVERGENCE = 6
THRESH=10
GUI = 2
$end

$solvent
dielectric 4.90
$end
--------------------------------------------------------------

             Standard Nuclear Orientation (Angstroms)
    I     Atom           X                Y                Z
 ----------------------------------------------------------------
    1      C       0.0479270000    -8.5197410000    -0.2678510000
    2      C       0.0561570000    -7.6359670000     0.8014610000
    3      S       0.0292850000    -7.6517400000    -1.8221940000
    4      C       0.0545160000    -6.2618940000     0.4152010000
    5      H       0.0632900000    -7.9547380000     1.8514310000
    6      C       0.0546870000    -6.0799850000    -1.0126500000
    7      C       0.0280300000    -4.7983820000    -1.5841940000
    8      C       0.0313990000    -5.1535420000     1.3094330000
    9      C       0.0004270000    -3.8696260000     0.7375390000
   10      C       0.0034620000    -3.6889270000    -0.6918280000
   11      O       0.0611280000    -5.4810750000     2.6312110000
   12      O      -0.0030210000    -4.4798710000    -2.9119070000
   13      C       0.6027100000    -5.3560260000    -3.8547160000
   14      H       0.6706710000    -4.7904960000    -4.8035170000
   15      H      -0.0069130000    -6.2685130000    -4.0342850000
   16      H       1.6235070000    -5.6581870000    -3.5351850000
   17      C      -0.3757080000    -4.5469990000     3.6108410000
   18      H      -0.4411150000    -5.1075640000     4.5625440000
   19      H      -1.3762770000    -4.1314730000     3.3640290000
   20      H       0.3461070000    -3.7120850000     3.7435660000
   21      C      -0.0004580000    -2.3143260000    -1.0744910000
   22      S       0.0131440000    -2.2954870000     1.5488480000
   23      C       0.0000000000    -1.4351800000     0.0000000000
   24      H      -0.0049530000    -1.9932110000    -2.1236880000
   25      H       0.0454680000    -9.6159850000    -0.2623150000
   26      C       0.0000000000     0.0000000000     0.0000000000
   27      S       0.4516480000     0.7778110000     1.5107320000
   28      C       1.2383770000     2.1426170000     0.7276290000
   29      C       0.4540850000     0.7865590000    -1.0646650000
   30      C       1.1471690000     1.9900430000    -0.6782870000
   31      C       0.4223250000     0.7282400000    -2.4861500000
   32      C       1.0546290000     1.8236830000    -3.1069160000
   33      S       1.6754910000     2.9057180000    -1.9657350000
   34      C       1.1859140000     2.0417290000    -4.5599720000
   35      O       0.7217490000     1.2318020000    -5.3502770000
   36      O       1.8303130000     3.1513860000    -5.0043750000
   37      F      -0.1313470000    -0.2385770000    -3.2462900000
   38      C       2.0184530000     3.4569560000    -6.3349760000
   39      H       2.5714550000     4.4135800000    -6.3702680000
   40      H       1.0521780000     3.5652440000    -6.8756090000
   41      H       2.6019500000     2.6697680000    -6.8618780000
   42      H       1.6984440000     2.9393460000     1.3215100000
 ----------------------------------------------------------------

   10   -2754.2793680695      8.47e-07  Convergence criterion met
 Total energy in the final basis set =    -2754.2793680695
        RIMP2         total energy =     -2759.3411155606 a.u.

                    Orbital Energies (a.u.)
 --------------------------------------------------------------

 Alpha MOs
 -- Occupied --
-92.0165 -91.9986 -91.9886 -91.9858 -26.3386 -20.6131 -20.5923 -20.5899
-20.5518 -11.4120 -11.3786 -11.3190 -11.3164 -11.3064 -11.3012 -11.3009
-11.2990 -11.2961 -11.2891 -11.2873 -11.2852 -11.2848 -11.2846 -11.2834
-11.2788 -11.2604 -11.2579 -11.2508 -11.2495  -9.0153  -9.0024  -8.9894
 -8.9857  -6.6960  -6.6954  -6.6950  -6.6837  -6.6830  -6.6817  -6.6704
 -6.6697  -6.6687  -6.6667  -6.6660  -6.6652  -1.6531  -1.4730  -1.4163
 -1.4127  -1.3686  -1.2366  -1.1956  -1.1695  -1.1435  -1.0842  -1.0517
 -1.0495  -1.0299  -1.0022  -0.9934  -0.9738  -0.9601  -0.9500  -0.9384
 -0.8961  -0.8716  -0.8500  -0.8063  -0.7975  -0.7883  -0.7721  -0.7703
 -0.7568  -0.7326  -0.7231  -0.7197  -0.7007  -0.6907  -0.6837  -0.6795
 -0.6737  -0.6622  -0.6587  -0.6516  -0.6278  -0.6191  -0.6149  -0.6079
 -0.6020  -0.5974  -0.5872  -0.5751  -0.5683  -0.5601  -0.5549  -0.5457
 -0.5360  -0.5281  -0.5232  -0.5192  -0.5170  -0.5093  -0.5058  -0.4963
 -0.4860  -0.4846  -0.4777  -0.4668  -0.4624  -0.4616  -0.4581  -0.4250
 -0.3977  -0.3843  -0.3589  -0.3506  -0.3252  -0.2850  -0.2456

          Ground-State Mulliken Net Atomic Charges

     Atom                 Charge (a.u.)
  ----------------------------------------
      1 C                    -0.190125
      2 C                    -0.254978
      3 S                    -0.022415
      4 C                    -0.016521
      5 H                     0.196117
      6 C                    -0.028185
      7 C                     0.248063
      8 C                     0.243897
      9 C                    -0.043087
     10 C                    -0.022708
     11 O                    -0.333232
     12 O                    -0.340358
     13 C                    -0.086377
     14 H                     0.123975
     15 H                     0.091126
     16 H                     0.093320
     17 C                    -0.088497
     18 H                     0.125964
     19 H                     0.094884
     20 H                     0.089420
     21 C                    -0.242787
     22 S                    -0.042403
     23 C                    -0.034254
     24 H                     0.214450
     25 H                     0.206186
     26 C                     0.012972
     27 S                     0.101682
     28 C                    -0.221365
     29 C                    -0.077824
     30 C                    -0.023395
     31 C                     0.351801
     32 C                    -0.126939
     33 S                     0.053224
     34 C                     0.457070
     35 O                    -0.448030
     36 O                    -0.297719
     37 F                    -0.213598
     38 C                    -0.054775
     39 H                     0.116977
     40 H                     0.084840
     41 H                     0.084711
     42 H                     0.218893
  ----------------------------------------
  Sum of atomic charges =     0.000000

                    Cartesian Multipole Moments
 -----------------------------------------------------------------
    Charge (ESU x 10^10)
                -0.0000
    Dipole Moment (Debye)
         X       2.3195      Y       1.9826      Z       3.1309
       Tot       4.3719
    Quadrupole Moments (Debye-Ang)
        XX    -196.1780     XY       6.0253     YY    -163.8204
        XZ     -11.3896     YZ      -9.3544     ZZ    -181.6875

 Total job time:  386.09s(wall), 13830.09s(cpu)
        *  Thank you very much for using Q-Chem.  Have a nice day.  *
