 Q-Chem 5.4, Q-Chem, Inc., Pleasanton, CA (2021)
 Q-Chem 5.4.0 for Intel X86 EM64T Linux

User input:
--------------------------------------------------------------
$molecule
0 1
C	0.235993	-8.519741	-0.135457
C	-0.577858	-7.635967	0.558188
S	1.414705	-7.651740	-1.148850
C	-0.283020	-6.261894	0.308648
H	-1.377597	-7.954738	1.238560
C	0.810887	-6.079985	-0.609026
C	1.231581	-4.798382	-0.996828
C	-0.982901	-5.153542	0.865740
C	-0.564713	-3.869626	0.474408
C	0.532196	-3.688927	-0.442046
O	-1.976332	-5.481075	1.738137
O	2.228709	-4.479871	-1.874052
C	3.340298	-5.356026	-2.016062
H	4.110807	-4.790496	-2.573877
H	3.085998	-6.268513	-2.598484
H	3.751679	-5.658187	-1.028695
C	-3.007565	-4.546999	2.033195
H	-3.778655	-5.107564	2.594833
H	-3.461650	-4.131473	1.108067
H	-2.645264	-3.712085	2.671451
C	0.822814	-2.314326	-0.691020
S	-1.178037	-2.295487	1.005649
C	-0.000000	-1.435180	-0.000000
H	1.623656	-1.993211	-1.368875
H	0.230172	-9.615985	-0.133782
C	0.000000	0.000000	0.000000
S	0.158383	0.885376	1.510732
C	0.430876	2.436951	0.727629
C	0.157682	0.894430	-1.064665
C	0.397351	2.262384	-0.678287
C	0.147783	0.828765	-2.486150
C	0.367291	2.074406	-3.106916
S	0.580633	3.303533	-1.965735
C	0.416083	2.324204	-4.559972
O	0.256921	1.404367	-5.350277
O	0.642094	3.587338	-5.004375
F	-0.041828	-0.269113	-3.246290
C	0.714377	3.938827	-6.334976
H	0.906844	5.026898	-6.370268
H	-0.230661	3.710099	-6.875609
H	1.531918	3.398681	-6.861878
H	0.590699	3.342984	1.321510
$end

$rem
JOBTYPE		SP
EXCHANGE	HF
CORRELATION	pRIMP2
BASIS		cc-pvtz
METHOD		rimp2
AUX_BASIS	rimp2-cc-pvtz
SOLVENT_METHOD	PCM
PURECART	11111
SYMMETRY	false
MEM_TOTAL	110000
SCF_CONVERGENCE = 6
THRESH=10
GUI = 2
$end

$solvent
dielectric 4.90
$end
--------------------------------------------------------------

             Standard Nuclear Orientation (Angstroms)
    I     Atom           X                Y                Z
 ----------------------------------------------------------------
    1      C       0.2359930000    -8.5197410000    -0.1354570000
    2      C      -0.5778580000    -7.6359670000     0.5581880000
    3      S       1.4147050000    -7.6517400000    -1.1488500000
    4      C      -0.2830200000    -6.2618940000     0.3086480000
    5      H      -1.3775970000    -7.9547380000     1.2385600000
    6      C       0.8108870000    -6.0799850000    -0.6090260000
    7      C       1.2315810000    -4.7983820000    -0.9968280000
    8      C      -0.9829010000    -5.1535420000     0.8657400000
    9      C      -0.5647130000    -3.8696260000     0.4744080000
   10      C       0.5321960000    -3.6889270000    -0.4420460000
   11      O      -1.9763320000    -5.4810750000     1.7381370000
   12      O       2.2287090000    -4.4798710000    -1.8740520000
   13      C       3.3402980000    -5.3560260000    -2.0160620000
   14      H       4.1108070000    -4.7904960000    -2.5738770000
   15      H       3.0859980000    -6.2685130000    -2.5984840000
   16      H       3.7516790000    -5.6581870000    -1.0286950000
   17      C      -3.0075650000    -4.5469990000     2.0331950000
   18      H      -3.7786550000    -5.1075640000     2.5948330000
   19      H      -3.4616500000    -4.1314730000     1.1080670000
   20      H      -2.6452640000    -3.7120850000     2.6714510000
   21      C       0.8228140000    -2.3143260000    -0.6910200000
   22      S      -1.1780370000    -2.2954870000     1.0056490000
   23      C       0.0000000000    -1.4351800000     0.0000000000
   24      H       1.6236560000    -1.9932110000    -1.3688750000
   25      H       0.2301720000    -9.6159850000    -0.1337820000
   26      C       0.0000000000     0.0000000000     0.0000000000
   27      S       0.1583830000     0.8853760000     1.5107320000
   28      C       0.4308760000     2.4369510000     0.7276290000
   29      C       0.1576820000     0.8944300000    -1.0646650000
   30      C       0.3973510000     2.2623840000    -0.6782870000
   31      C       0.1477830000     0.8287650000    -2.4861500000
   32      C       0.3672910000     2.0744060000    -3.1069160000
   33      S       0.5806330000     3.3035330000    -1.9657350000
   34      C       0.4160830000     2.3242040000    -4.5599720000
   35      O       0.2569210000     1.4043670000    -5.3502770000
   36      O       0.6420940000     3.5873380000    -5.0043750000
   37      F      -0.0418280000    -0.2691130000    -3.2462900000
   38      C       0.7143770000     3.9388270000    -6.3349760000
   39      H       0.9068440000     5.0268980000    -6.3702680000
   40      H      -0.2306610000     3.7100990000    -6.8756090000
   41      H       1.5319180000     3.3986810000    -6.8618780000
   42      H       0.5906990000     3.3429840000     1.3215100000
 ----------------------------------------------------------------

   10   -2754.2964656891      7.98e-07  Convergence criterion met
 Total energy in the final basis set =    -2754.2964656891
        RIMP2         total energy =     -2759.3496856444 a.u.

                    Orbital Energies (a.u.)
 --------------------------------------------------------------

 Alpha MOs
 -- Occupied --
-92.0159 -91.9945 -91.9908 -91.9868 -26.3339 -20.6118 -20.5928 -20.5917
-20.5495 -11.4099 -11.3774 -11.3198 -11.3190 -11.3110 -11.2966 -11.2966
-11.2951 -11.2936 -11.2883 -11.2875 -11.2874 -11.2860 -11.2845 -11.2821
-11.2805 -11.2619 -11.2600 -11.2595 -11.2503  -9.0143  -8.9985  -8.9912
 -8.9867  -6.6950  -6.6944  -6.6939  -6.6798  -6.6791  -6.6778  -6.6722
 -6.6715  -6.6705  -6.6677  -6.6670  -6.6662  -1.6468  -1.4715  -1.4169
 -1.4145  -1.3667  -1.2333  -1.1968  -1.1690  -1.1421  -1.0845  -1.0527
 -1.0475  -1.0275  -1.0030  -0.9936  -0.9715  -0.9615  -0.9508  -0.9385
 -0.8965  -0.8691  -0.8510  -0.8038  -0.7931  -0.7882  -0.7728  -0.7700
 -0.7582  -0.7330  -0.7184  -0.7151  -0.7019  -0.6887  -0.6835  -0.6782
 -0.6710  -0.6611  -0.6594  -0.6528  -0.6301  -0.6203  -0.6170  -0.6061
 -0.6020  -0.5941  -0.5847  -0.5764  -0.5710  -0.5642  -0.5529  -0.5509
 -0.5362  -0.5262  -0.5254  -0.5167  -0.5149  -0.5081  -0.5029  -0.4967
 -0.4893  -0.4840  -0.4765  -0.4692  -0.4616  -0.4611  -0.4600  -0.4153
 -0.3978  -0.3872  -0.3589  -0.3495  -0.3213  -0.2862  -0.2541

          Ground-State Mulliken Net Atomic Charges

     Atom                 Charge (a.u.)
  ----------------------------------------
      1 C                    -0.186978
      2 C                    -0.254219
      3 S                    -0.020370
      4 C                    -0.013977
      5 H                     0.196513
      6 C                    -0.028974
      7 C                     0.245037
      8 C                     0.241419
      9 C                    -0.046763
     10 C                    -0.030429
     11 O                    -0.333266
     12 O                    -0.338791
     13 C                    -0.085882
     14 H                     0.123101
     15 H                     0.091417
     16 H                     0.093779
     17 C                    -0.086913
     18 H                     0.125286
     19 H                     0.095392
     20 H                     0.089278
     21 C                    -0.203352
     22 S                    -0.011920
     23 C                    -0.011781
     24 H                     0.198542
     25 H                     0.206718
     26 C                    -0.045893
     27 S                     0.113722
     28 C                    -0.242081
     29 C                    -0.101583
     30 C                    -0.007582
     31 C                     0.398570
     32 C                    -0.152567
     33 S                     0.037211
     34 C                     0.461634
     35 O                    -0.450744
     36 O                    -0.298022
     37 F                    -0.211525
     38 C                    -0.054993
     39 H                     0.116501
     40 H                     0.084606
     41 H                     0.084380
     42 H                     0.215499
  ----------------------------------------
  Sum of atomic charges =     0.000000

                    Cartesian Multipole Moments
 -----------------------------------------------------------------
    Charge (ESU x 10^10)
                 0.0000
    Dipole Moment (Debye)
         X       0.7827      Y       1.3234      Z       3.4621
       Tot       3.7882
    Quadrupole Moments (Debye-Ang)
        XX    -181.0121     XY       1.3563     YY    -157.9877
        XZ     -12.1868     YZ     -11.1369     ZZ    -201.7149

 Total job time:  282.96s(wall), 9426.60s(cpu)
        *  Thank you very much for using Q-Chem.  Have a nice day.  *
