 Q-Chem 5.4, Q-Chem, Inc., Pleasanton, CA (2021)
 Q-Chem 5.4.0 for Intel X86 EM64T Linux

User input:
--------------------------------------------------------------
$molecule
0 1
C	0.235306	-8.519741	0.136647
C	-0.772334	-7.635967	-0.221346
S	1.702286	-7.651740	0.650746
C	-0.408807	-6.261894	-0.090779
H	-1.761423	-7.954738	-0.573754
C	0.932876	-6.079985	0.397735
C	1.479069	-4.798382	0.568166
C	-1.241204	-5.153542	-0.418347
C	-0.693206	-3.869626	-0.251852
C	0.648921	-3.688927	0.239872
O	-2.493437	-5.481075	-0.842486
O	2.737331	-4.479871	0.993092
C	3.416110	-5.356026	1.884752
H	4.284447	-4.790496	2.273124
H	3.793352	-6.268513	1.373310
H	2.766716	-5.658187	2.734702
C	-3.264581	-4.546999	-1.588030
H	-4.136519	-5.107564	-1.974995
H	-2.690439	-4.131473	-2.443843
H	-3.636177	-3.712085	-0.955140
C	1.009848	-2.314326	0.367068
S	-1.459936	-2.295487	-0.517386
C	-0.000000	-1.435180	-0.000000
H	1.997308	-1.993211	0.721689
H	0.230945	-9.615985	0.132444
C	0.000000	0.000000	0.000000
S	0.690437	0.576430	1.510732
C	1.896512	1.589852	0.727629
C	0.695720	0.583817	-1.064665
C	1.758621	1.477674	-0.678287
C	0.645928	0.539878	-2.486150
C	1.614763	1.352997	-3.106916
S	2.568261	2.157430	-1.965735
C	1.812707	1.512991	-4.559972
O	1.099523	0.910662	-5.350277
O	2.797769	2.335330	-5.004375
F	-0.205024	-0.179266	-3.246290
C	3.079074	2.558124	-6.334976
H	3.925910	3.267919	-6.370268
H	2.208109	2.990367	-6.875609
H	3.358147	1.618843	-6.861878
H	2.601331	2.181180	1.321510
$end

$rem
JOBTYPE		SP
EXCHANGE	HF
CORRELATION	pRIMP2
BASIS		cc-pvtz
METHOD		rimp2
AUX_BASIS	rimp2-cc-pvtz
SOLVENT_METHOD	PCM
PURECART	11111
SYMMETRY	false
MEM_TOTAL	110000
SCF_CONVERGENCE = 6
THRESH=10
GUI = 2
$end

$solvent
dielectric 4.90
$end
--------------------------------------------------------------

             Standard Nuclear Orientation (Angstroms)
    I     Atom           X                Y                Z
 ----------------------------------------------------------------
    1      C       0.2353060000    -8.5197410000     0.1366470000
    2      C      -0.7723340000    -7.6359670000    -0.2213460000
    3      S       1.7022860000    -7.6517400000     0.6507460000
    4      C      -0.4088070000    -6.2618940000    -0.0907790000
    5      H      -1.7614230000    -7.9547380000    -0.5737540000
    6      C       0.9328760000    -6.0799850000     0.3977350000
    7      C       1.4790690000    -4.7983820000     0.5681660000
    8      C      -1.2412040000    -5.1535420000    -0.4183470000
    9      C      -0.6932060000    -3.8696260000    -0.2518520000
   10      C       0.6489210000    -3.6889270000     0.2398720000
   11      O      -2.4934370000    -5.4810750000    -0.8424860000
   12      O       2.7373310000    -4.4798710000     0.9930920000
   13      C       3.4161100000    -5.3560260000     1.8847520000
   14      H       4.2844470000    -4.7904960000     2.2731240000
   15      H       3.7933520000    -6.2685130000     1.3733100000
   16      H       2.7667160000    -5.6581870000     2.7347020000
   17      C      -3.2645810000    -4.5469990000    -1.5880300000
   18      H      -4.1365190000    -5.1075640000    -1.9749950000
   19      H      -2.6904390000    -4.1314730000    -2.4438430000
   20      H      -3.6361770000    -3.7120850000    -0.9551400000
   21      C       1.0098480000    -2.3143260000     0.3670680000
   22      S      -1.4599360000    -2.2954870000    -0.5173860000
   23      C       0.0000000000    -1.4351800000     0.0000000000
   24      H       1.9973080000    -1.9932110000     0.7216890000
   25      H       0.2309450000    -9.6159850000     0.1324440000
   26      C       0.0000000000     0.0000000000     0.0000000000
   27      S       0.6904370000     0.5764300000     1.5107320000
   28      C       1.8965120000     1.5898520000     0.7276290000
   29      C       0.6957200000     0.5838170000    -1.0646650000
   30      C       1.7586210000     1.4776740000    -0.6782870000
   31      C       0.6459280000     0.5398780000    -2.4861500000
   32      C       1.6147630000     1.3529970000    -3.1069160000
   33      S       2.5682610000     2.1574300000    -1.9657350000
   34      C       1.8127070000     1.5129910000    -4.5599720000
   35      O       1.0995230000     0.9106620000    -5.3502770000
   36      O       2.7977690000     2.3353300000    -5.0043750000
   37      F      -0.2050240000    -0.1792660000    -3.2462900000
   38      C       3.0790740000     2.5581240000    -6.3349760000
   39      H       3.9259100000     3.2679190000    -6.3702680000
   40      H       2.2081090000     2.9903670000    -6.8756090000
   41      H       3.3581470000     1.6188430000    -6.8618780000
   42      H       2.6013310000     2.1811800000     1.3215100000
 ----------------------------------------------------------------

   11   -2754.2509426268      6.34e-07  Convergence criterion met
 Total energy in the final basis set =    -2754.2509426268
        RIMP2         total energy =     -2759.3183089406 a.u.

                    Orbital Energies (a.u.)
 --------------------------------------------------------------

 Alpha MOs
 -- Occupied --
-92.0165 -92.0025 -91.9840 -91.9818 -26.3338 -20.6147 -20.5902 -20.5891
-20.5550 -11.4145 -11.3758 -11.3163 -11.3161 -11.3133 -11.3076 -11.2988
-11.2928 -11.2925 -11.2898 -11.2851 -11.2848 -11.2826 -11.2814 -11.2803
-11.2767 -11.2576 -11.2546 -11.2481 -11.2474  -9.0151  -9.0061  -8.9840
 -8.9825  -6.6957  -6.6949  -6.6947  -6.6873  -6.6867  -6.6854  -6.6649
 -6.6643  -6.6635  -6.6634  -6.6627  -6.6618  -1.6469  -1.4748  -1.4142
 -1.4119  -1.3708  -1.2398  -1.1925  -1.1685  -1.1434  -1.0828  -1.0502
 -1.0485  -1.0312  -0.9984  -0.9915  -0.9741  -0.9582  -0.9483  -0.9387
 -0.8924  -0.8737  -0.8439  -0.8062  -0.7924  -0.7854  -0.7766  -0.7665
 -0.7541  -0.7301  -0.7179  -0.7156  -0.6993  -0.6912  -0.6807  -0.6801
 -0.6752  -0.6604  -0.6567  -0.6508  -0.6283  -0.6180  -0.6145  -0.6100
 -0.6047  -0.6007  -0.5868  -0.5722  -0.5679  -0.5645  -0.5531  -0.5508
 -0.5300  -0.5245  -0.5214  -0.5142  -0.5124  -0.5085  -0.5007  -0.4912
 -0.4898  -0.4878  -0.4703  -0.4652  -0.4636  -0.4615  -0.4554  -0.4092
 -0.3950  -0.3839  -0.3605  -0.3417  -0.3123  -0.2953  -0.2530

          Ground-State Mulliken Net Atomic Charges

     Atom                 Charge (a.u.)
  ----------------------------------------
      1 C                    -0.194051
      2 C                    -0.254112
      3 S                    -0.027302
      4 C                    -0.018846
      5 H                     0.195719
      6 C                    -0.027609
      7 C                     0.234397
      8 C                     0.243012
      9 C                    -0.045377
     10 C                    -0.017283
     11 O                    -0.333842
     12 O                    -0.341824
     13 C                    -0.085626
     14 H                     0.121192
     15 H                     0.090789
     16 H                     0.093188
     17 C                    -0.086426
     18 H                     0.124063
     19 H                     0.095267
     20 H                     0.089384
     21 C                    -0.257600
     22 S                    -0.017686
     23 C                    -0.010968
     24 H                     0.195413
     25 H                     0.205284
     26 C                    -0.112682
     27 S                     0.131789
     28 C                    -0.178963
     29 C                    -0.042898
     30 C                    -0.017066
     31 C                     0.357893
     32 C                    -0.133900
     33 S                     0.063538
     34 C                     0.457965
     35 O                    -0.441441
     36 O                    -0.296996
     37 F                    -0.208764
     38 C                    -0.054623
     39 H                     0.117171
     40 H                     0.085302
     41 H                     0.085474
     42 H                     0.219045
  ----------------------------------------
  Sum of atomic charges =     0.000000

                    Cartesian Multipole Moments
 -----------------------------------------------------------------
    Charge (ESU x 10^10)
                -0.0000
    Dipole Moment (Debye)
         X       3.7277      Y       2.5693      Z       2.9576
       Tot       5.4078
    Quadrupole Moments (Debye-Ang)
        XX    -173.6365     XY      10.3927     YY    -174.4893
        XZ       1.9638     YZ      -8.7162     ZZ    -195.9290

 Total job time:  306.04s(wall), 9813.33s(cpu)
        *  Thank you very much for using Q-Chem.  Have a nice day.  *
