 Q-Chem 5.4, Q-Chem, Inc., Pleasanton, CA (2021)
 Q-Chem 5.4.0 for Intel X86 EM64T Linux

User input:
--------------------------------------------------------------
$molecule
0 1
C	-0.092419	-8.519741	-0.255929
C	0.449364	-7.635967	0.666007
S	-0.885736	-7.651740	-1.592708
C	0.254813	-6.261894	0.332317
H	0.980526	-7.954738	1.571741
C	-0.458965	-6.079985	-0.904324
C	-0.767823	-4.798382	-1.385968
C	0.681909	-5.153542	1.118303
C	0.369139	-3.869626	0.638514
C	-0.342916	-3.688927	-0.600871
O	1.368544	-5.481075	2.248132
O	-1.458570	-4.479871	-2.520275
C	-1.405396	-5.356026	-3.639637
H	-1.820940	-4.790496	-4.495304
H	-2.023129	-6.268513	-3.490336
H	-0.361595	-5.658187	-3.873314
C	1.480048	-4.546999	3.314934
H	1.899255	-5.107564	4.171837
H	0.490123	-4.131473	3.601473
H	2.171521	-3.712085	3.068969
C	-0.537642	-2.314326	-0.930308
S	0.785807	-2.295487	1.334769
C	-0.000000	-1.435180	-0.000000
H	-1.066134	-1.993211	-1.836691
H	-0.091781	-9.615985	-0.249906
C	0.000000	0.000000	0.000000
S	0.579852	0.687566	1.510732
C	1.591625	1.895024	0.727629
C	0.583771	0.695758	-1.064665
C	1.475308	1.760606	-0.678287
C	0.542366	0.643841	-2.486150
C	1.355286	1.612843	-3.106916
S	2.154609	2.570627	-1.965735
C	1.522440	1.804778	-4.559972
O	0.924684	1.087757	-5.350277
O	2.349739	2.785679	-5.004375
F	-0.170780	-0.212144	-3.246290
C	2.588082	3.053936	-6.334976
H	3.298799	3.899999	-6.370268
H	1.655291	3.328371	-6.875609
H	3.026021	2.177385	-6.861878
H	2.183053	2.599759	1.321510
$end

$rem
JOBTYPE		SP
EXCHANGE	HF
CORRELATION	pRIMP2
BASIS		cc-pvtz
METHOD		rimp2
AUX_BASIS	rimp2-cc-pvtz
SOLVENT_METHOD	PCM
PURECART	11111
SYMMETRY	false
MEM_TOTAL	110000
SCF_CONVERGENCE = 6
THRESH=10
GUI = 2
$end

$solvent
dielectric 4.90
$end
--------------------------------------------------------------

             Standard Nuclear Orientation (Angstroms)
    I     Atom           X                Y                Z
 ----------------------------------------------------------------
    1      C      -0.0924190000    -8.5197410000    -0.2559290000
    2      C       0.4493640000    -7.6359670000     0.6660070000
    3      S      -0.8857360000    -7.6517400000    -1.5927080000
    4      C       0.2548130000    -6.2618940000     0.3323170000
    5      H       0.9805260000    -7.9547380000     1.5717410000
    6      C      -0.4589650000    -6.0799850000    -0.9043240000
    7      C      -0.7678230000    -4.7983820000    -1.3859680000
    8      C       0.6819090000    -5.1535420000     1.1183030000
    9      C       0.3691390000    -3.8696260000     0.6385140000
   10      C      -0.3429160000    -3.6889270000    -0.6008710000
   11      O       1.3685440000    -5.4810750000     2.2481320000
   12      O      -1.4585700000    -4.4798710000    -2.5202750000
   13      C      -1.4053960000    -5.3560260000    -3.6396370000
   14      H      -1.8209400000    -4.7904960000    -4.4953040000
   15      H      -2.0231290000    -6.2685130000    -3.4903360000
   16      H      -0.3615950000    -5.6581870000    -3.8733140000
   17      C       1.4800480000    -4.5469990000     3.3149340000
   18      H       1.8992550000    -5.1075640000     4.1718370000
   19      H       0.4901230000    -4.1314730000     3.6014730000
   20      H       2.1715210000    -3.7120850000     3.0689690000
   21      C      -0.5376420000    -2.3143260000    -0.9303080000
   22      S       0.7858070000    -2.2954870000     1.3347690000
   23      C       0.0000000000    -1.4351800000     0.0000000000
   24      H      -1.0661340000    -1.9932110000    -1.8366910000
   25      H      -0.0917810000    -9.6159850000    -0.2499060000
   26      C       0.0000000000     0.0000000000     0.0000000000
   27      S       0.5798520000     0.6875660000     1.5107320000
   28      C       1.5916250000     1.8950240000     0.7276290000
   29      C       0.5837710000     0.6957580000    -1.0646650000
   30      C       1.4753080000     1.7606060000    -0.6782870000
   31      C       0.5423660000     0.6438410000    -2.4861500000
   32      C       1.3552860000     1.6128430000    -3.1069160000
   33      S       2.1546090000     2.5706270000    -1.9657350000
   34      C       1.5224400000     1.8047780000    -4.5599720000
   35      O       0.9246840000     1.0877570000    -5.3502770000
   36      O       2.3497390000     2.7856790000    -5.0043750000
   37      F      -0.1707800000    -0.2121440000    -3.2462900000
   38      C       2.5880820000     3.0539360000    -6.3349760000
   39      H       3.2987990000     3.8999990000    -6.3702680000
   40      H       1.6552910000     3.3283710000    -6.8756090000
   41      H       3.0260210000     2.1773850000    -6.8618780000
   42      H       2.1830530000     2.5997590000     1.3215100000
 ----------------------------------------------------------------

   10   -2754.2664652333      9.78e-07  Convergence criterion met
 Total energy in the final basis set =    -2754.2664652333
        RIMP2         total energy =     -2759.3316826664 a.u.

                    Orbital Energies (a.u.)
 --------------------------------------------------------------

 Alpha MOs
 -- Occupied --
-92.0167 -92.0006 -91.9893 -91.9843 -26.3361 -20.6140 -20.5917 -20.5881
-20.5535 -11.4134 -11.3778 -11.3179 -11.3130 -11.3078 -11.3045 -11.3001
-11.2990 -11.2952 -11.2897 -11.2895 -11.2871 -11.2837 -11.2821 -11.2810
-11.2768 -11.2588 -11.2551 -11.2484 -11.2448  -9.0156  -9.0044  -8.9898
 -8.9842  -6.6963  -6.6956  -6.6952  -6.6856  -6.6849  -6.6836  -6.6707
 -6.6699  -6.6690  -6.6652  -6.6646  -6.6637  -1.6496  -1.4740  -1.4157
 -1.4109  -1.3698  -1.2390  -1.1939  -1.1694  -1.1436  -1.0833  -1.0509
 -1.0492  -1.0310  -1.0004  -0.9924  -0.9745  -0.9592  -0.9491  -0.9377
 -0.8949  -0.8729  -0.8477  -0.8036  -0.7964  -0.7872  -0.7725  -0.7693
 -0.7553  -0.7298  -0.7208  -0.7176  -0.6996  -0.6914  -0.6815  -0.6802
 -0.6745  -0.6614  -0.6579  -0.6505  -0.6276  -0.6180  -0.6149  -0.6091
 -0.6029  -0.5996  -0.5885  -0.5749  -0.5663  -0.5611  -0.5542  -0.5424
 -0.5369  -0.5291  -0.5204  -0.5170  -0.5165  -0.5093  -0.5042  -0.4946
 -0.4875  -0.4844  -0.4732  -0.4673  -0.4629  -0.4618  -0.4593  -0.4215
 -0.3958  -0.3830  -0.3565  -0.3503  -0.3225  -0.2876  -0.2463

          Ground-State Mulliken Net Atomic Charges

     Atom                 Charge (a.u.)
  ----------------------------------------
      1 C                    -0.194090
      2 C                    -0.254206
      3 S                    -0.024884
      4 C                    -0.019689
      5 H                     0.195465
      6 C                    -0.026532
      7 C                     0.234727
      8 C                     0.241778
      9 C                    -0.052119
     10 C                    -0.015557
     11 O                    -0.333174
     12 O                    -0.340350
     13 C                    -0.085476
     14 H                     0.122880
     15 H                     0.090074
     16 H                     0.093033
     17 C                    -0.088008
     18 H                     0.125435
     19 H                     0.094441
     20 H                     0.089059
     21 C                    -0.264855
     22 S                    -0.021844
     23 C                    -0.014694
     24 H                     0.195707
     25 H                     0.205396
     26 C                    -0.035026
     27 S                     0.098369
     28 C                    -0.192239
     29 C                    -0.045863
     30 C                    -0.023934
     31 C                     0.359065
     32 C                    -0.124712
     33 S                     0.056927
     34 C                     0.455883
     35 O                    -0.444819
     36 O                    -0.297429
     37 F                    -0.210362
     38 C                    -0.054610
     39 H                     0.117089
     40 H                     0.085078
     41 H                     0.085049
     42 H                     0.219015
  ----------------------------------------
  Sum of atomic charges =     0.000000

                    Cartesian Multipole Moments
 -----------------------------------------------------------------
    Charge (ESU x 10^10)
                 0.0000
    Dipole Moment (Debye)
         X       3.3732      Y       2.6292      Z       3.0392
       Tot       5.2467
    Quadrupole Moments (Debye-Ang)
        XX    -192.3224     XY       7.4559     YY    -170.5159
        XZ      -0.8547     YZ      -8.5090     ZZ    -181.5799

 Total job time:  278.75s(wall), 9231.84s(cpu)
        *  Thank you very much for using Q-Chem.  Have a nice day.  *
