 Q-Chem 5.4, Q-Chem, Inc., Pleasanton, CA (2021)
 Q-Chem 5.4.0 for Intel X86 EM64T Linux

User input:
--------------------------------------------------------------
$molecule
0 1
C	0.208886	-8.519741	-0.174379
C	-0.472151	-7.635967	0.650052
S	1.193717	-7.651740	-1.377058
C	-0.225125	-6.261894	0.353105
H	-1.141594	-7.954738	1.458961
C	0.692811	-6.079985	-0.740583
C	1.039773	-4.798382	-1.195546
C	-0.817634	-5.153542	1.023267
C	-0.473754	-3.869626	0.565262
C	0.447350	-3.688927	-0.527745
O	-1.644483	-5.481075	2.054917
O	1.869424	-4.479871	-2.232592
C	2.939466	-5.356026	-2.565470
H	3.601405	-4.790496	-3.248608
H	2.587892	-6.268513	-3.094885
H	3.516052	-5.658187	-1.664539
C	-2.608813	-4.546999	2.524564
H	-3.270661	-5.107564	3.211568
H	-3.216646	-4.131473	1.692342
H	-2.141184	-3.712085	3.090211
C	0.690319	-2.314326	-0.823402
S	-0.985511	-2.295487	1.194935
C	0.000000	-1.435180	0.000000
H	1.361286	-1.993211	-1.630024
H	0.203444	-9.615985	-0.171719
C	0.000000	0.000000	0.000000
S	0.234946	0.868203	1.510732
C	0.641630	2.390125	0.727629
C	0.235036	0.877284	-1.064665
C	0.593019	2.219143	-0.678287
C	0.219452	0.812732	-2.486150
C	0.546689	2.034501	-3.106916
S	0.866345	3.240357	-1.965735
C	0.617067	2.279095	-4.559972
O	0.378342	1.376631	-5.350277
O	0.952308	3.517725	-5.004375
F	-0.065123	-0.264443	-3.246290
C	1.054950	3.861577	-6.334976
H	1.341516	4.928732	-6.370268
H	0.093573	3.716085	-6.875609
H	1.822303	3.252232	-6.861878
H	0.879812	3.278780	1.321510
$end

$rem
JOBTYPE		SP
EXCHANGE	HF
CORRELATION	pRIMP2
BASIS		cc-pvtz
METHOD		rimp2
AUX_BASIS	rimp2-cc-pvtz
SOLVENT_METHOD	PCM
PURECART	11111
SYMMETRY	false
MEM_TOTAL	110000
SCF_CONVERGENCE = 6
THRESH=10
GUI = 2
$end

$solvent
dielectric 4.90
$end
--------------------------------------------------------------

             Standard Nuclear Orientation (Angstroms)
    I     Atom           X                Y                Z
 ----------------------------------------------------------------
    1      C       0.2088860000    -8.5197410000    -0.1743790000
    2      C      -0.4721510000    -7.6359670000     0.6500520000
    3      S       1.1937170000    -7.6517400000    -1.3770580000
    4      C      -0.2251250000    -6.2618940000     0.3531050000
    5      H      -1.1415940000    -7.9547380000     1.4589610000
    6      C       0.6928110000    -6.0799850000    -0.7405830000
    7      C       1.0397730000    -4.7983820000    -1.1955460000
    8      C      -0.8176340000    -5.1535420000     1.0232670000
    9      C      -0.4737540000    -3.8696260000     0.5652620000
   10      C       0.4473500000    -3.6889270000    -0.5277450000
   11      O      -1.6444830000    -5.4810750000     2.0549170000
   12      O       1.8694240000    -4.4798710000    -2.2325920000
   13      C       2.9394660000    -5.3560260000    -2.5654700000
   14      H       3.6014050000    -4.7904960000    -3.2486080000
   15      H       2.5878920000    -6.2685130000    -3.0948850000
   16      H       3.5160520000    -5.6581870000    -1.6645390000
   17      C      -2.6088130000    -4.5469990000     2.5245640000
   18      H      -3.2706610000    -5.1075640000     3.2115680000
   19      H      -3.2166460000    -4.1314730000     1.6923420000
   20      H      -2.1411840000    -3.7120850000     3.0902110000
   21      C       0.6903190000    -2.3143260000    -0.8234020000
   22      S      -0.9855110000    -2.2954870000     1.1949350000
   23      C       0.0000000000    -1.4351800000     0.0000000000
   24      H       1.3612860000    -1.9932110000    -1.6300240000
   25      H       0.2034440000    -9.6159850000    -0.1717190000
   26      C       0.0000000000     0.0000000000     0.0000000000
   27      S       0.2349460000     0.8682030000     1.5107320000
   28      C       0.6416300000     2.3901250000     0.7276290000
   29      C       0.2350360000     0.8772840000    -1.0646650000
   30      C       0.5930190000     2.2191430000    -0.6782870000
   31      C       0.2194520000     0.8127320000    -2.4861500000
   32      C       0.5466890000     2.0345010000    -3.1069160000
   33      S       0.8663450000     3.2403570000    -1.9657350000
   34      C       0.6170670000     2.2790950000    -4.5599720000
   35      O       0.3783420000     1.3766310000    -5.3502770000
   36      O       0.9523080000     3.5177250000    -5.0043750000
   37      F      -0.0651230000    -0.2644430000    -3.2462900000
   38      C       1.0549500000     3.8615770000    -6.3349760000
   39      H       1.3415160000     4.9287320000    -6.3702680000
   40      H       0.0935730000     3.7160850000    -6.8756090000
   41      H       1.8223030000     3.2522320000    -6.8618780000
   42      H       0.8798120000     3.2787800000     1.3215100000
 ----------------------------------------------------------------

   10   -2754.2951370797      7.89e-07  Convergence criterion met
 Total energy in the final basis set =    -2754.2951370797
        RIMP2         total energy =     -2759.3496482537 a.u.

                    Orbital Energies (a.u.)
 --------------------------------------------------------------

 Alpha MOs
 -- Occupied --
-92.0161 -91.9951 -91.9905 -91.9868 -26.3344 -20.6119 -20.5929 -20.5916
-20.5497 -11.4101 -11.3776 -11.3199 -11.3190 -11.3107 -11.2972 -11.2970
-11.2958 -11.2945 -11.2884 -11.2875 -11.2875 -11.2859 -11.2846 -11.2821
-11.2804 -11.2621 -11.2599 -11.2589 -11.2503  -9.0144  -8.9991  -8.9911
 -8.9867  -6.6952  -6.6946  -6.6941  -6.6804  -6.6797  -6.6784  -6.6720
 -6.6713  -6.6704  -6.6677  -6.6671  -6.6662  -1.6475  -1.4716  -1.4170
 -1.4144  -1.3669  -1.2338  -1.1969  -1.1692  -1.1424  -1.0847  -1.0528
 -1.0479  -1.0279  -1.0031  -0.9937  -0.9719  -0.9614  -0.9508  -0.9387
 -0.8967  -0.8694  -0.8508  -0.8039  -0.7941  -0.7882  -0.7727  -0.7701
 -0.7580  -0.7330  -0.7189  -0.7157  -0.7019  -0.6890  -0.6834  -0.6783
 -0.6715  -0.6615  -0.6595  -0.6527  -0.6296  -0.6203  -0.6167  -0.6063
 -0.6022  -0.5944  -0.5852  -0.5761  -0.5708  -0.5635  -0.5530  -0.5506
 -0.5360  -0.5261  -0.5258  -0.5168  -0.5156  -0.5085  -0.5040  -0.4971
 -0.4886  -0.4843  -0.4769  -0.4690  -0.4617  -0.4612  -0.4599  -0.4181
 -0.3978  -0.3867  -0.3590  -0.3502  -0.3231  -0.2856  -0.2519

          Ground-State Mulliken Net Atomic Charges

     Atom                 Charge (a.u.)
  ----------------------------------------
      1 C                    -0.187240
      2 C                    -0.254148
      3 S                    -0.020449
      4 C                    -0.014758
      5 H                     0.196490
      6 C                    -0.029840
      7 C                     0.245360
      8 C                     0.242771
      9 C                    -0.043857
     10 C                    -0.031231
     11 O                    -0.333338
     12 O                    -0.338564
     13 C                    -0.085928
     14 H                     0.123293
     15 H                     0.091309
     16 H                     0.093795
     17 C                    -0.087161
     18 H                     0.125548
     19 H                     0.095424
     20 H                     0.089186
     21 C                    -0.197385
     22 S                    -0.020739
     23 C                    -0.004839
     24 H                     0.196975
     25 H                     0.206733
     26 C                    -0.040092
     27 S                     0.114195
     28 C                    -0.243266
     29 C                    -0.108657
     30 C                    -0.006729
     31 C                     0.388857
     32 C                    -0.148942
     33 S                     0.039764
     34 C                     0.461965
     35 O                    -0.450540
     36 O                    -0.298089
     37 F                    -0.212216
     38 C                    -0.054948
     39 H                     0.116562
     40 H                     0.084673
     41 H                     0.084367
     42 H                     0.215689
  ----------------------------------------
  Sum of atomic charges =     0.000000

                    Cartesian Multipole Moments
 -----------------------------------------------------------------
    Charge (ESU x 10^10)
                 0.0000
    Dipole Moment (Debye)
         X       1.1286      Y       1.3439      Z       3.4141
       Tot       3.8388
    Quadrupole Moments (Debye-Ang)
        XX    -184.3893     XY       2.5433     YY    -158.4498
        XZ     -15.0999     YZ     -10.7366     ZZ    -197.6664

 Total job time:  318.89s(wall), 10913.86s(cpu)
        *  Thank you very much for using Q-Chem.  Have a nice day.  *
