 Q-Chem 5.4, Q-Chem, Inc., Pleasanton, CA (2021)
 Q-Chem 5.4.0 for Intel X86 EM64T Linux

User input:
--------------------------------------------------------------
$molecule
0 1
C	-0.267851	-8.519741	-0.047927
C	0.801461	-7.635967	-0.056157
S	-1.822194	-7.651740	-0.029285
C	0.415201	-6.261894	-0.054516
H	1.851431	-7.954738	-0.063290
C	-1.012650	-6.079985	-0.054687
C	-1.584194	-4.798382	-0.028030
C	1.309433	-5.153542	-0.031399
C	0.737539	-3.869626	-0.000427
C	-0.691828	-3.688927	-0.003462
O	2.631211	-5.481075	-0.061128
O	-2.911907	-4.479871	0.003021
C	-3.854716	-5.356026	-0.602710
H	-4.803517	-4.790496	-0.670671
H	-4.034285	-6.268513	0.006913
H	-3.535185	-5.658187	-1.623507
C	3.610841	-4.546999	0.375708
H	4.562544	-5.107564	0.441115
H	3.364029	-4.131473	1.376277
H	3.743566	-3.712085	-0.346107
C	-1.074491	-2.314326	0.000458
S	1.548848	-2.295487	-0.013144
C	0.000000	-1.435180	0.000000
H	-2.123688	-1.993211	0.004953
H	-0.262315	-9.615985	-0.045468
C	0.000000	0.000000	0.000000
S	0.002233	0.899428	1.510732
C	0.001157	2.474749	0.727629
C	-0.000030	0.908223	-1.064665
C	-0.001545	2.297013	-0.678287
C	0.001624	0.841837	-2.486150
C	0.001494	2.106670	-3.106916
S	-0.001841	3.354171	-1.965735
C	0.006168	2.361146	-4.559972
O	0.009152	1.427646	-5.350277
O	0.009405	3.644337	-5.004375
F	0.005539	-0.272288	-3.246290
C	0.019554	4.003038	-6.334976
H	0.020155	5.108000	-6.370268
H	-0.871409	3.613681	-6.875609
H	0.918470	3.613062	-6.861878
H	0.001222	3.394771	1.321510
$end

$rem
JOBTYPE		SP
EXCHANGE	HF
CORRELATION	pRIMP2
BASIS		cc-pvtz
METHOD		rimp2
AUX_BASIS	rimp2-cc-pvtz
SOLVENT_METHOD	PCM
PURECART	11111
SYMMETRY	false
MEM_TOTAL	110000
SCF_CONVERGENCE = 6
THRESH=10
GUI = 2
$end

$solvent
dielectric 4.90
$end
--------------------------------------------------------------

             Standard Nuclear Orientation (Angstroms)
    I     Atom           X                Y                Z
 ----------------------------------------------------------------
    1      C      -0.2678510000    -8.5197410000    -0.0479270000
    2      C       0.8014610000    -7.6359670000    -0.0561570000
    3      S      -1.8221940000    -7.6517400000    -0.0292850000
    4      C       0.4152010000    -6.2618940000    -0.0545160000
    5      H       1.8514310000    -7.9547380000    -0.0632900000
    6      C      -1.0126500000    -6.0799850000    -0.0546870000
    7      C      -1.5841940000    -4.7983820000    -0.0280300000
    8      C       1.3094330000    -5.1535420000    -0.0313990000
    9      C       0.7375390000    -3.8696260000    -0.0004270000
   10      C      -0.6918280000    -3.6889270000    -0.0034620000
   11      O       2.6312110000    -5.4810750000    -0.0611280000
   12      O      -2.9119070000    -4.4798710000     0.0030210000
   13      C      -3.8547160000    -5.3560260000    -0.6027100000
   14      H      -4.8035170000    -4.7904960000    -0.6706710000
   15      H      -4.0342850000    -6.2685130000     0.0069130000
   16      H      -3.5351850000    -5.6581870000    -1.6235070000
   17      C       3.6108410000    -4.5469990000     0.3757080000
   18      H       4.5625440000    -5.1075640000     0.4411150000
   19      H       3.3640290000    -4.1314730000     1.3762770000
   20      H       3.7435660000    -3.7120850000    -0.3461070000
   21      C      -1.0744910000    -2.3143260000     0.0004580000
   22      S       1.5488480000    -2.2954870000    -0.0131440000
   23      C       0.0000000000    -1.4351800000     0.0000000000
   24      H      -2.1236880000    -1.9932110000     0.0049530000
   25      H      -0.2623150000    -9.6159850000    -0.0454680000
   26      C       0.0000000000     0.0000000000     0.0000000000
   27      S       0.0022330000     0.8994280000     1.5107320000
   28      C       0.0011570000     2.4747490000     0.7276290000
   29      C      -0.0000300000     0.9082230000    -1.0646650000
   30      C      -0.0015450000     2.2970130000    -0.6782870000
   31      C       0.0016240000     0.8418370000    -2.4861500000
   32      C       0.0014940000     2.1066700000    -3.1069160000
   33      S      -0.0018410000     3.3541710000    -1.9657350000
   34      C       0.0061680000     2.3611460000    -4.5599720000
   35      O       0.0091520000     1.4276460000    -5.3502770000
   36      O       0.0094050000     3.6443370000    -5.0043750000
   37      F       0.0055390000    -0.2722880000    -3.2462900000
   38      C       0.0195540000     4.0030380000    -6.3349760000
   39      H       0.0201550000     5.1080000000    -6.3702680000
   40      H      -0.8714090000     3.6136810000    -6.8756090000
   41      H       0.9184700000     3.6130620000    -6.8618780000
   42      H       0.0012220000     3.3947710000     1.3215100000
 ----------------------------------------------------------------

   10   -2754.2949473095      8.83e-07  Convergence criterion met
 Total energy in the final basis set =    -2754.2949473095
        RIMP2         total energy =     -2759.3469785202 a.u.

                    Orbital Energies (a.u.)
 --------------------------------------------------------------

 Alpha MOs
 -- Occupied --
-92.0161 -91.9941 -91.9899 -91.9867 -26.3337 -20.6119 -20.5924 -20.5920
-20.5499 -11.4101 -11.3770 -11.3193 -11.3191 -11.3094 -11.2970 -11.2957
-11.2932 -11.2930 -11.2883 -11.2871 -11.2868 -11.2862 -11.2842 -11.2826
-11.2804 -11.2611 -11.2599 -11.2599 -11.2502  -9.0142  -8.9982  -8.9902
 -8.9866  -6.6949  -6.6943  -6.6939  -6.6795  -6.6788  -6.6774  -6.6711
 -6.6704  -6.6695  -6.6676  -6.6670  -6.6661  -1.6465  -1.4717  -1.4166
 -1.4147  -1.3669  -1.2327  -1.1962  -1.1682  -1.1415  -1.0840  -1.0524
 -1.0470  -1.0273  -1.0025  -0.9933  -0.9710  -0.9615  -0.9506  -0.9383
 -0.8960  -0.8688  -0.8509  -0.8048  -0.7903  -0.7884  -0.7738  -0.7685
 -0.7585  -0.7330  -0.7178  -0.7148  -0.7015  -0.6885  -0.6833  -0.6783
 -0.6707  -0.6603  -0.6593  -0.6528  -0.6310  -0.6203  -0.6172  -0.6062
 -0.6018  -0.5940  -0.5826  -0.5795  -0.5675  -0.5654  -0.5562  -0.5517
 -0.5350  -0.5260  -0.5244  -0.5162  -0.5144  -0.5079  -0.5012  -0.4939
 -0.4912  -0.4838  -0.4764  -0.4682  -0.4616  -0.4610  -0.4604  -0.4050
 -0.4014  -0.3876  -0.3579  -0.3483  -0.3144  -0.2894  -0.2599

          Ground-State Mulliken Net Atomic Charges

     Atom                 Charge (a.u.)
  ----------------------------------------
      1 C                    -0.186683
      2 C                    -0.254542
      3 S                    -0.021484
      4 C                    -0.012608
      5 H                     0.196696
      6 C                    -0.028071
      7 C                     0.247549
      8 C                     0.239422
      9 C                    -0.048170
     10 C                    -0.032875
     11 O                    -0.333012
     12 O                    -0.339817
     13 C                    -0.085661
     14 H                     0.122764
     15 H                     0.090805
     16 H                     0.094756
     17 C                    -0.086283
     18 H                     0.124796
     19 H                     0.094080
     20 H                     0.090330
     21 C                    -0.210903
     22 S                     0.003277
     23 C                    -0.050106
     24 H                     0.196950
     25 H                     0.206701
     26 C                    -0.023857
     27 S                     0.120023
     28 C                    -0.240338
     29 C                    -0.089533
     30 C                    -0.005923
     31 C                     0.397622
     32 C                    -0.159842
     33 S                     0.036685
     34 C                     0.460823
     35 O                    -0.450217
     36 O                    -0.297772
     37 F                    -0.210987
     38 C                    -0.055002
     39 H                     0.116527
     40 H                     0.084545
     41 H                     0.084502
     42 H                     0.214835
  ----------------------------------------
  Sum of atomic charges =     0.000000

                    Cartesian Multipole Moments
 -----------------------------------------------------------------
    Charge (ESU x 10^10)
                -0.0000
    Dipole Moment (Debye)
         X       0.0341      Y       1.4392      Z       3.0310
       Tot       3.3555
    Quadrupole Moments (Debye-Ang)
        XX    -177.7172     XY       0.6273     YY    -158.0203
        XZ       5.6456     YZ      -9.1568     ZZ    -205.3557

 Total job time:  288.16s(wall), 9077.81s(cpu)
        *  Thank you very much for using Q-Chem.  Have a nice day.  *
