 Q-Chem 5.4, Q-Chem, Inc., Pleasanton, CA (2021)
 Q-Chem 5.4.0 for Intel X86 EM64T Linux

User input:
--------------------------------------------------------------
$molecule
0 1
C	-0.135457	-8.519741	-0.235993
C	0.558188	-7.635967	0.577858
S	-1.148850	-7.651740	-1.414705
C	0.308648	-6.261894	0.283020
H	1.238560	-7.954738	1.377597
C	-0.609026	-6.079985	-0.810887
C	-0.996828	-4.798382	-1.231581
C	0.865740	-5.153542	0.982901
C	0.474408	-3.869626	0.564713
C	-0.442046	-3.688927	-0.532196
O	1.738137	-5.481075	1.976332
O	-1.874052	-4.479871	-2.228709
C	-2.016062	-5.356026	-3.340298
H	-2.573877	-4.790496	-4.110807
H	-2.598484	-6.268513	-3.085998
H	-1.028695	-5.658187	-3.751679
C	2.033195	-4.546999	3.007565
H	2.594833	-5.107564	3.778655
H	1.108067	-4.131473	3.461650
H	2.671451	-3.712085	2.645264
C	-0.691020	-2.314326	-0.822814
S	1.005649	-2.295487	1.178037
C	-0.000000	-1.435180	-0.000000
H	-1.368875	-1.993211	-1.623656
H	-0.133782	-9.615985	-0.230172
C	0.000000	0.000000	0.000000
S	0.579852	0.687566	1.510732
C	1.591625	1.895024	0.727629
C	0.583771	0.695758	-1.064665
C	1.475308	1.760606	-0.678287
C	0.542366	0.643841	-2.486150
C	1.355286	1.612843	-3.106916
S	2.154609	2.570627	-1.965735
C	1.522440	1.804778	-4.559972
O	0.924684	1.087757	-5.350277
O	2.349739	2.785679	-5.004375
F	-0.170780	-0.212144	-3.246290
C	2.588082	3.053936	-6.334976
H	3.298799	3.899999	-6.370268
H	1.655291	3.328371	-6.875609
H	3.026021	2.177385	-6.861878
H	2.183053	2.599759	1.321510
$end

$rem
JOBTYPE		SP
EXCHANGE	HF
CORRELATION	pRIMP2
BASIS		cc-pvtz
METHOD		rimp2
AUX_BASIS	rimp2-cc-pvtz
SOLVENT_METHOD	PCM
PURECART	11111
SYMMETRY	false
MEM_TOTAL	110000
SCF_CONVERGENCE = 6
THRESH=10
GUI = 2
$end

$solvent
dielectric 4.90
$end
--------------------------------------------------------------

             Standard Nuclear Orientation (Angstroms)
    I     Atom           X                Y                Z
 ----------------------------------------------------------------
    1      C      -0.1354570000    -8.5197410000    -0.2359930000
    2      C       0.5581880000    -7.6359670000     0.5778580000
    3      S      -1.1488500000    -7.6517400000    -1.4147050000
    4      C       0.3086480000    -6.2618940000     0.2830200000
    5      H       1.2385600000    -7.9547380000     1.3775970000
    6      C      -0.6090260000    -6.0799850000    -0.8108870000
    7      C      -0.9968280000    -4.7983820000    -1.2315810000
    8      C       0.8657400000    -5.1535420000     0.9829010000
    9      C       0.4744080000    -3.8696260000     0.5647130000
   10      C      -0.4420460000    -3.6889270000    -0.5321960000
   11      O       1.7381370000    -5.4810750000     1.9763320000
   12      O      -1.8740520000    -4.4798710000    -2.2287090000
   13      C      -2.0160620000    -5.3560260000    -3.3402980000
   14      H      -2.5738770000    -4.7904960000    -4.1108070000
   15      H      -2.5984840000    -6.2685130000    -3.0859980000
   16      H      -1.0286950000    -5.6581870000    -3.7516790000
   17      C       2.0331950000    -4.5469990000     3.0075650000
   18      H       2.5948330000    -5.1075640000     3.7786550000
   19      H       1.1080670000    -4.1314730000     3.4616500000
   20      H       2.6714510000    -3.7120850000     2.6452640000
   21      C      -0.6910200000    -2.3143260000    -0.8228140000
   22      S       1.0056490000    -2.2954870000     1.1780370000
   23      C       0.0000000000    -1.4351800000     0.0000000000
   24      H      -1.3688750000    -1.9932110000    -1.6236560000
   25      H      -0.1337820000    -9.6159850000    -0.2301720000
   26      C       0.0000000000     0.0000000000     0.0000000000
   27      S       0.5798520000     0.6875660000     1.5107320000
   28      C       1.5916250000     1.8950240000     0.7276290000
   29      C       0.5837710000     0.6957580000    -1.0646650000
   30      C       1.4753080000     1.7606060000    -0.6782870000
   31      C       0.5423660000     0.6438410000    -2.4861500000
   32      C       1.3552860000     1.6128430000    -3.1069160000
   33      S       2.1546090000     2.5706270000    -1.9657350000
   34      C       1.5224400000     1.8047780000    -4.5599720000
   35      O       0.9246840000     1.0877570000    -5.3502770000
   36      O       2.3497390000     2.7856790000    -5.0043750000
   37      F      -0.1707800000    -0.2121440000    -3.2462900000
   38      C       2.5880820000     3.0539360000    -6.3349760000
   39      H       3.2987990000     3.8999990000    -6.3702680000
   40      H       1.6552910000     3.3283710000    -6.8756090000
   41      H       3.0260210000     2.1773850000    -6.8618780000
   42      H       2.1830530000     2.5997590000     1.3215100000
 ----------------------------------------------------------------

   10   -2754.2669015348      9.83e-07  Convergence criterion met
 Total energy in the final basis set =    -2754.2669015348
        RIMP2         total energy =     -2759.3313840072 a.u.

                    Orbital Energies (a.u.)
 --------------------------------------------------------------

 Alpha MOs
 -- Occupied --
-92.0165 -92.0001 -91.9893 -91.9843 -26.3351 -20.6139 -20.5917 -20.5882
-20.5534 -11.4132 -11.3773 -11.3179 -11.3132 -11.3077 -11.3042 -11.2995
-11.2979 -11.2943 -11.2897 -11.2894 -11.2871 -11.2838 -11.2821 -11.2812
-11.2770 -11.2586 -11.2553 -11.2485 -11.2457  -9.0153  -9.0039  -8.9898
 -8.9842  -6.6960  -6.6953  -6.6950  -6.6851  -6.6845  -6.6832  -6.6707
 -6.6699  -6.6690  -6.6652  -6.6646  -6.6638  -1.6483  -1.4739  -1.4157
 -1.4111  -1.3696  -1.2386  -1.1938  -1.1691  -1.1435  -1.0831  -1.0505
 -1.0493  -1.0307  -1.0003  -0.9922  -0.9742  -0.9594  -0.9491  -0.9377
 -0.8948  -0.8727  -0.8474  -0.8030  -0.7953  -0.7869  -0.7726  -0.7694
 -0.7553  -0.7300  -0.7198  -0.7166  -0.6996  -0.6911  -0.6807  -0.6801
 -0.6743  -0.6610  -0.6579  -0.6506  -0.6281  -0.6181  -0.6153  -0.6090
 -0.6029  -0.5993  -0.5884  -0.5752  -0.5661  -0.5614  -0.5542  -0.5424
 -0.5369  -0.5285  -0.5207  -0.5162  -0.5153  -0.5090  -0.5037  -0.4939
 -0.4874  -0.4854  -0.4728  -0.4672  -0.4628  -0.4627  -0.4597  -0.4190
 -0.3955  -0.3833  -0.3555  -0.3508  -0.3204  -0.2885  -0.2483

          Ground-State Mulliken Net Atomic Charges

     Atom                 Charge (a.u.)
  ----------------------------------------
      1 C                    -0.193633
      2 C                    -0.254420
      3 S                    -0.024830
      4 C                    -0.019072
      5 H                     0.195530
      6 C                    -0.026018
      7 C                     0.234224
      8 C                     0.241415
      9 C                    -0.052545
     10 C                    -0.017193
     11 O                    -0.333156
     12 O                    -0.340321
     13 C                    -0.085458
     14 H                     0.122583
     15 H                     0.090128
     16 H                     0.093239
     17 C                    -0.087545
     18 H                     0.125293
     19 H                     0.094290
     20 H                     0.089028
     21 C                    -0.259538
     22 S                    -0.015561
     23 C                    -0.018653
     24 H                     0.192621
     25 H                     0.205420
     26 C                    -0.039232
     27 S                     0.100700
     28 C                    -0.192805
     29 C                    -0.046227
     30 C                    -0.020238
     31 C                     0.359726
     32 C                    -0.128502
     33 S                     0.055548
     34 C                     0.456337
     35 O                    -0.444780
     36 O                    -0.297435
     37 F                    -0.209833
     38 C                    -0.054628
     39 H                     0.117040
     40 H                     0.085056
     41 H                     0.085060
     42 H                     0.218389
  ----------------------------------------
  Sum of atomic charges =     0.000000

                    Cartesian Multipole Moments
 -----------------------------------------------------------------
    Charge (ESU x 10^10)
                 0.0000
    Dipole Moment (Debye)
         X       3.3707      Y       2.5482      Z       2.9941
       Tot       5.1788
    Quadrupole Moments (Debye-Ang)
        XX    -189.4376     XY       7.4943     YY    -170.2529
        XZ       2.3498     YZ      -8.1750     ZZ    -184.5686

 Total job time:  278.58s(wall), 9227.16s(cpu)
        *  Thank you very much for using Q-Chem.  Have a nice day.  *
