 Q-Chem 5.4, Q-Chem, Inc., Pleasanton, CA (2021)
 Q-Chem 5.4.0 for Intel X86 EM64T Linux

User input:
--------------------------------------------------------------
$molecule
0 1
C	-0.136647	-8.519741	0.235306
C	0.221346	-7.635967	-0.772334
S	-0.650746	-7.651740	1.702286
C	0.090779	-6.261894	-0.408807
H	0.573754	-7.954738	-1.761423
C	-0.397735	-6.079985	0.932876
C	-0.568166	-4.798382	1.479069
C	0.418347	-5.153542	-1.241204
C	0.251852	-3.869626	-0.693206
C	-0.239872	-3.688927	0.648921
O	0.842486	-5.481075	-2.493437
O	-0.993092	-4.479871	2.737331
C	-1.884752	-5.356026	3.416110
H	-2.273124	-4.790496	4.284447
H	-1.373310	-6.268513	3.793352
H	-2.734702	-5.658187	2.766716
C	1.588030	-4.546999	-3.264581
H	1.974995	-5.107564	-4.136519
H	2.443843	-4.131473	-2.690439
H	0.955140	-3.712085	-3.636177
C	-0.367068	-2.314326	1.009848
S	0.517386	-2.295487	-1.459936
C	0.000000	-1.435180	0.000000
H	-0.721689	-1.993211	1.997308
H	-0.132444	-9.615985	0.230945
C	0.000000	0.000000	0.000000
S	0.080615	0.895811	1.510732
C	0.216842	2.465231	0.727629
C	0.079127	0.904769	-1.064665
C	0.198659	2.288406	-0.678287
C	0.074988	0.838492	-2.486150
C	0.185097	2.098524	-3.106916
S	0.290501	3.341568	-1.965735
C	0.211932	2.351623	-4.559972
O	0.133545	1.421416	-5.350277
O	0.326994	3.629649	-5.004375
F	-0.018214	-0.271734	-3.246290
C	0.368367	3.986101	-6.334976
H	0.465270	5.086806	-6.370268
H	-0.553140	3.675878	-6.875609
H	1.229874	3.519263	-6.861878
H	0.297091	3.381746	1.321510
$end

$rem
JOBTYPE		SP
EXCHANGE	HF
CORRELATION	pRIMP2
BASIS		cc-pvtz
METHOD		rimp2
AUX_BASIS	rimp2-cc-pvtz
SOLVENT_METHOD	PCM
PURECART	11111
SYMMETRY	false
MEM_TOTAL	110000
SCF_CONVERGENCE = 6
THRESH=10
GUI = 2
$end

$solvent
dielectric 4.90
$end
--------------------------------------------------------------

             Standard Nuclear Orientation (Angstroms)
    I     Atom           X                Y                Z
 ----------------------------------------------------------------
    1      C      -0.1366470000    -8.5197410000     0.2353060000
    2      C       0.2213460000    -7.6359670000    -0.7723340000
    3      S      -0.6507460000    -7.6517400000     1.7022860000
    4      C       0.0907790000    -6.2618940000    -0.4088070000
    5      H       0.5737540000    -7.9547380000    -1.7614230000
    6      C      -0.3977350000    -6.0799850000     0.9328760000
    7      C      -0.5681660000    -4.7983820000     1.4790690000
    8      C       0.4183470000    -5.1535420000    -1.2412040000
    9      C       0.2518520000    -3.8696260000    -0.6932060000
   10      C      -0.2398720000    -3.6889270000     0.6489210000
   11      O       0.8424860000    -5.4810750000    -2.4934370000
   12      O      -0.9930920000    -4.4798710000     2.7373310000
   13      C      -1.8847520000    -5.3560260000     3.4161100000
   14      H      -2.2731240000    -4.7904960000     4.2844470000
   15      H      -1.3733100000    -6.2685130000     3.7933520000
   16      H      -2.7347020000    -5.6581870000     2.7667160000
   17      C       1.5880300000    -4.5469990000    -3.2645810000
   18      H       1.9749950000    -5.1075640000    -4.1365190000
   19      H       2.4438430000    -4.1314730000    -2.6904390000
   20      H       0.9551400000    -3.7120850000    -3.6361770000
   21      C      -0.3670680000    -2.3143260000     1.0098480000
   22      S       0.5173860000    -2.2954870000    -1.4599360000
   23      C       0.0000000000    -1.4351800000     0.0000000000
   24      H      -0.7216890000    -1.9932110000     1.9973080000
   25      H      -0.1324440000    -9.6159850000     0.2309450000
   26      C       0.0000000000     0.0000000000     0.0000000000
   27      S       0.0806150000     0.8958110000     1.5107320000
   28      C       0.2168420000     2.4652310000     0.7276290000
   29      C       0.0791270000     0.9047690000    -1.0646650000
   30      C       0.1986590000     2.2884060000    -0.6782870000
   31      C       0.0749880000     0.8384920000    -2.4861500000
   32      C       0.1850970000     2.0985240000    -3.1069160000
   33      S       0.2905010000     3.3415680000    -1.9657350000
   34      C       0.2119320000     2.3516230000    -4.5599720000
   35      O       0.1335450000     1.4214160000    -5.3502770000
   36      O       0.3269940000     3.6296490000    -5.0043750000
   37      F      -0.0182140000    -0.2717340000    -3.2462900000
   38      C       0.3683670000     3.9861010000    -6.3349760000
   39      H       0.4652700000     5.0868060000    -6.3702680000
   40      H      -0.5531400000     3.6758780000    -6.8756090000
   41      H       1.2298740000     3.5192630000    -6.8618780000
   42      H       0.2970910000     3.3817460000     1.3215100000
 ----------------------------------------------------------------

   10   -2754.2938769275      8.38e-07  Convergence criterion met
 Total energy in the final basis set =    -2754.2938769275
        RIMP2         total energy =     -2759.3498424620 a.u.

                    Orbital Energies (a.u.)
 --------------------------------------------------------------

 Alpha MOs
 -- Occupied --
-92.0150 -91.9948 -91.9866 -91.9865 -26.3353 -20.6120 -20.5922 -20.5915
-20.5497 -11.4101 -11.3786 -11.3187 -11.3186 -11.3141 -11.2972 -11.2971
-11.2968 -11.2926 -11.2885 -11.2866 -11.2858 -11.2856 -11.2840 -11.2821
-11.2801 -11.2618 -11.2595 -11.2594 -11.2500  -9.0134  -8.9988  -8.9875
 -8.9864  -6.6942  -6.6936  -6.6931  -6.6801  -6.6794  -6.6781  -6.6683
 -6.6676  -6.6674  -6.6668  -6.6665  -6.6659  -1.6505  -1.4717  -1.4159
 -1.4147  -1.3670  -1.2340  -1.1964  -1.1691  -1.1420  -1.0848  -1.0524
 -1.0480  -1.0285  -1.0025  -0.9939  -0.9723  -0.9609  -0.9501  -0.9382
 -0.8961  -0.8695  -0.8522  -0.8095  -0.7948  -0.7871  -0.7752  -0.7637
 -0.7584  -0.7328  -0.7203  -0.7178  -0.7007  -0.6886  -0.6841  -0.6785
 -0.6731  -0.6620  -0.6587  -0.6525  -0.6290  -0.6199  -0.6165  -0.6065
 -0.6018  -0.5950  -0.5882  -0.5717  -0.5705  -0.5644  -0.5591  -0.5527
 -0.5305  -0.5264  -0.5253  -0.5173  -0.5152  -0.5085  -0.5017  -0.4958
 -0.4871  -0.4832  -0.4793  -0.4656  -0.4614  -0.4610  -0.4591  -0.4234
 -0.3953  -0.3869  -0.3603  -0.3500  -0.3245  -0.2839  -0.2479

          Ground-State Mulliken Net Atomic Charges

     Atom                 Charge (a.u.)
  ----------------------------------------
      1 C                    -0.187232
      2 C                    -0.254579
      3 S                    -0.022795
      4 C                    -0.014569
      5 H                     0.196695
      6 C                    -0.030110
      7 C                     0.246512
      8 C                     0.241896
      9 C                    -0.041963
     10 C                    -0.020090
     11 O                    -0.333461
     12 O                    -0.340099
     13 C                    -0.085756
     14 H                     0.122428
     15 H                     0.091279
     16 H                     0.094463
     17 C                    -0.089600
     18 H                     0.125656
     19 H                     0.094115
     20 H                     0.092294
     21 C                    -0.254714
     22 S                    -0.017017
     23 C                     0.020629
     24 H                     0.189124
     25 H                     0.206655
     26 C                     0.013321
     27 S                     0.100666
     28 C                    -0.241942
     29 C                    -0.111759
     30 C                    -0.015258
     31 C                     0.379832
     32 C                    -0.140075
     33 S                     0.036116
     34 C                     0.461619
     35 O                    -0.451659
     36 O                    -0.297936
     37 F                    -0.208918
     38 C                    -0.055115
     39 H                     0.116704
     40 H                     0.084597
     41 H                     0.084300
     42 H                     0.215746
  ----------------------------------------
  Sum of atomic charges =     0.000000

                    Cartesian Multipole Moments
 -----------------------------------------------------------------
    Charge (ESU x 10^10)
                -0.0000
    Dipole Moment (Debye)
         X       0.0945      Y       1.4857      Z       2.9132
       Tot       3.2716
    Quadrupole Moments (Debye-Ang)
        XX    -194.2288     XY       2.9451     YY    -159.0855
        XZ     -12.6470     YZ     -10.0572     ZZ    -188.5933

 Total job time:  281.86s(wall), 9288.81s(cpu)
        *  Thank you very much for using Q-Chem.  Have a nice day.  *
