 Q-Chem 5.4, Q-Chem, Inc., Pleasanton, CA (2021)
 Q-Chem 5.4.0 for Intel X86 EM64T Linux

User input:
--------------------------------------------------------------
$molecule
0 1
C	-0.235993	-8.519741	0.135457
C	0.577858	-7.635967	-0.558188
S	-1.414705	-7.651740	1.148850
C	0.283020	-6.261894	-0.308648
H	1.377597	-7.954738	-1.238560
C	-0.810887	-6.079985	0.609026
C	-1.231581	-4.798382	0.996828
C	0.982901	-5.153542	-0.865740
C	0.564713	-3.869626	-0.474408
C	-0.532196	-3.688927	0.442046
O	1.976332	-5.481075	-1.738137
O	-2.228709	-4.479871	1.874052
C	-3.340298	-5.356026	2.016062
H	-4.110807	-4.790496	2.573877
H	-3.085998	-6.268513	2.598484
H	-3.751679	-5.658187	1.028695
C	3.007565	-4.546999	-2.033195
H	3.778655	-5.107564	-2.594833
H	3.461650	-4.131473	-1.108067
H	2.645264	-3.712085	-2.671451
C	-0.822814	-2.314326	0.691020
S	1.178037	-2.295487	-1.005649
C	0.000000	-1.435180	0.000000
H	-1.623656	-1.993211	1.368875
H	-0.230172	-9.615985	0.133782
C	0.000000	0.000000	0.000000
S	0.309721	0.844422	1.510732
C	0.847502	2.325108	0.727629
C	0.310602	0.853460	-1.064665
C	0.784173	2.159014	-0.678287
C	0.289451	0.790512	-2.486150
C	0.721927	1.979112	-3.106916
S	1.145464	3.152519	-1.965735
C	0.813355	2.216642	-4.559972
O	0.496884	1.338418	-5.350277
O	1.255274	3.421340	-5.004375
F	-0.087923	-0.257761	-3.246290
C	1.387494	3.754937	-6.334976
H	1.765978	4.793056	-6.370268
H	0.417095	3.693789	-6.875609
H	2.098820	3.081033	-6.861878
H	1.162229	3.189623	1.321510
$end

$rem
JOBTYPE		SP
EXCHANGE	HF
CORRELATION	pRIMP2
BASIS		cc-pvtz
METHOD		rimp2
AUX_BASIS	rimp2-cc-pvtz
SOLVENT_METHOD	PCM
PURECART	11111
SYMMETRY	false
MEM_TOTAL	110000
SCF_CONVERGENCE = 6
THRESH=10
GUI = 2
$end

$solvent
dielectric 4.90
$end
--------------------------------------------------------------

             Standard Nuclear Orientation (Angstroms)
    I     Atom           X                Y                Z
 ----------------------------------------------------------------
    1      C      -0.2359930000    -8.5197410000     0.1354570000
    2      C       0.5778580000    -7.6359670000    -0.5581880000
    3      S      -1.4147050000    -7.6517400000     1.1488500000
    4      C       0.2830200000    -6.2618940000    -0.3086480000
    5      H       1.3775970000    -7.9547380000    -1.2385600000
    6      C      -0.8108870000    -6.0799850000     0.6090260000
    7      C      -1.2315810000    -4.7983820000     0.9968280000
    8      C       0.9829010000    -5.1535420000    -0.8657400000
    9      C       0.5647130000    -3.8696260000    -0.4744080000
   10      C      -0.5321960000    -3.6889270000     0.4420460000
   11      O       1.9763320000    -5.4810750000    -1.7381370000
   12      O      -2.2287090000    -4.4798710000     1.8740520000
   13      C      -3.3402980000    -5.3560260000     2.0160620000
   14      H      -4.1108070000    -4.7904960000     2.5738770000
   15      H      -3.0859980000    -6.2685130000     2.5984840000
   16      H      -3.7516790000    -5.6581870000     1.0286950000
   17      C       3.0075650000    -4.5469990000    -2.0331950000
   18      H       3.7786550000    -5.1075640000    -2.5948330000
   19      H       3.4616500000    -4.1314730000    -1.1080670000
   20      H       2.6452640000    -3.7120850000    -2.6714510000
   21      C      -0.8228140000    -2.3143260000     0.6910200000
   22      S       1.1780370000    -2.2954870000    -1.0056490000
   23      C       0.0000000000    -1.4351800000     0.0000000000
   24      H      -1.6236560000    -1.9932110000     1.3688750000
   25      H      -0.2301720000    -9.6159850000     0.1337820000
   26      C       0.0000000000     0.0000000000     0.0000000000
   27      S       0.3097210000     0.8444220000     1.5107320000
   28      C       0.8475020000     2.3251080000     0.7276290000
   29      C       0.3106020000     0.8534600000    -1.0646650000
   30      C       0.7841730000     2.1590140000    -0.6782870000
   31      C       0.2894510000     0.7905120000    -2.4861500000
   32      C       0.7219270000     1.9791120000    -3.1069160000
   33      S       1.1454640000     3.1525190000    -1.9657350000
   34      C       0.8133550000     2.2166420000    -4.5599720000
   35      O       0.4968840000     1.3384180000    -5.3502770000
   36      O       1.2552740000     3.4213400000    -5.0043750000
   37      F      -0.0879230000    -0.2577610000    -3.2462900000
   38      C       1.3874940000     3.7549370000    -6.3349760000
   39      H       1.7659780000     4.7930560000    -6.3702680000
   40      H       0.4170950000     3.6937890000    -6.8756090000
   41      H       2.0988200000     3.0810330000    -6.8618780000
   42      H       1.1622290000     3.1896230000     1.3215100000
 ----------------------------------------------------------------

   10   -2754.2905358142      8.42e-07  Convergence criterion met
 Total energy in the final basis set =    -2754.2905358142
        RIMP2         total energy =     -2759.3464271020 a.u.

                    Orbital Energies (a.u.)
 --------------------------------------------------------------

 Alpha MOs
 -- Occupied --
-92.0164 -91.9957 -91.9896 -91.9863 -26.3338 -20.6122 -20.5920 -20.5917
-20.5503 -11.4106 -11.3776 -11.3191 -11.3180 -11.3083 -11.2981 -11.2973
-11.2958 -11.2948 -11.2885 -11.2866 -11.2863 -11.2862 -11.2840 -11.2830
-11.2798 -11.2610 -11.2590 -11.2569 -11.2499  -9.0146  -8.9997  -8.9900
 -8.9862  -6.6953  -6.6947  -6.6942  -6.6809  -6.6803  -6.6789  -6.6709
 -6.6702  -6.6692  -6.6672  -6.6666  -6.6657  -1.6470  -1.4720  -1.4162
 -1.4143  -1.3673  -1.2345  -1.1959  -1.1686  -1.1423  -1.0843  -1.0521
 -1.0478  -1.0284  -1.0023  -0.9931  -0.9719  -0.9610  -0.9503  -0.9386
 -0.8958  -0.8697  -0.8503  -0.8072  -0.7913  -0.7876  -0.7749  -0.7657
 -0.7580  -0.7325  -0.7183  -0.7153  -0.7006  -0.6887  -0.6830  -0.6786
 -0.6717  -0.6612  -0.6589  -0.6526  -0.6295  -0.6199  -0.6169  -0.6067
 -0.6030  -0.5952  -0.5837  -0.5762  -0.5680  -0.5652  -0.5571  -0.5516
 -0.5330  -0.5269  -0.5247  -0.5161  -0.5144  -0.5084  -0.5016  -0.4963
 -0.4889  -0.4845  -0.4764  -0.4681  -0.4618  -0.4614  -0.4597  -0.4141
 -0.3982  -0.3866  -0.3582  -0.3500  -0.3204  -0.2864  -0.2533

          Ground-State Mulliken Net Atomic Charges

     Atom                 Charge (a.u.)
  ----------------------------------------
      1 C                    -0.187997
      2 C                    -0.254511
      3 S                    -0.022806
      4 C                    -0.014328
      5 H                     0.196547
      6 C                    -0.025665
      7 C                     0.239404
      8 C                     0.240975
      9 C                    -0.042245
     10 C                    -0.009291
     11 O                    -0.333129
     12 O                    -0.340023
     13 C                    -0.085661
     14 H                     0.122386
     15 H                     0.091106
     16 H                     0.094403
     17 C                    -0.087925
     18 H                     0.125402
     19 H                     0.094223
     20 H                     0.090925
     21 C                    -0.258097
     22 S                    -0.007002
     23 C                    -0.013492
     24 H                     0.196074
     25 H                     0.206497
     26 C                     0.015379
     27 S                     0.124470
     28 C                    -0.236368
     29 C                    -0.146199
     30 C                    -0.002125
     31 C                     0.385797
     32 C                    -0.149582
     33 S                     0.042653
     34 C                     0.460926
     35 O                    -0.449314
     36 O                    -0.297974
     37 F                    -0.209238
     38 C                    -0.054842
     39 H                     0.116625
     40 H                     0.084765
     41 H                     0.084424
     42 H                     0.214831
  ----------------------------------------
  Sum of atomic charges =     0.000000

                    Cartesian Multipole Moments
 -----------------------------------------------------------------
    Charge (ESU x 10^10)
                -0.0000
    Dipole Moment (Debye)
         X       1.2322      Y       1.5978      Z       2.9379
       Tot       3.5641
    Quadrupole Moments (Debye-Ang)
        XX    -179.7450     XY       6.3164     YY    -160.6524
        XZ     -14.0475     YZ      -9.0040     ZZ    -201.1216

 Total job time:  312.99s(wall), 10852.20s(cpu)
        *  Thank you very much for using Q-Chem.  Have a nice day.  *
