 Q-Chem 5.4, Q-Chem, Inc., Pleasanton, CA (2021)
 Q-Chem 5.4.0 for Intel X86 EM64T Linux

User input:
--------------------------------------------------------------
$molecule
0 1
C	-0.235993	-8.519741	0.135457
C	0.577858	-7.635967	-0.558188
S	-1.414705	-7.651740	1.148850
C	0.283020	-6.261894	-0.308648
H	1.377597	-7.954738	-1.238560
C	-0.810887	-6.079985	0.609026
C	-1.231581	-4.798382	0.996828
C	0.982901	-5.153542	-0.865740
C	0.564713	-3.869626	-0.474408
C	-0.532196	-3.688927	0.442046
O	1.976332	-5.481075	-1.738137
O	-2.228709	-4.479871	1.874052
C	-3.340298	-5.356026	2.016062
H	-4.110807	-4.790496	2.573877
H	-3.085998	-6.268513	2.598484
H	-3.751679	-5.658187	1.028695
C	3.007565	-4.546999	-2.033195
H	3.778655	-5.107564	-2.594833
H	3.461650	-4.131473	-1.108067
H	2.645264	-3.712085	-2.671451
C	-0.822814	-2.314326	0.691020
S	1.178037	-2.295487	-1.005649
C	-0.000000	-1.435180	-0.000000
H	-1.623656	-1.993211	1.368875
H	-0.230172	-9.615985	0.133782
C	0.000000	0.000000	0.000000
S	0.690437	0.576430	1.510732
C	1.896512	1.589852	0.727629
C	0.695720	0.583817	-1.064665
C	1.758621	1.477674	-0.678287
C	0.645928	0.539878	-2.486150
C	1.614763	1.352997	-3.106916
S	2.568261	2.157430	-1.965735
C	1.812707	1.512991	-4.559972
O	1.099523	0.910662	-5.350277
O	2.797769	2.335330	-5.004375
F	-0.205024	-0.179266	-3.246290
C	3.079074	2.558124	-6.334976
H	3.925910	3.267919	-6.370268
H	2.208109	2.990367	-6.875609
H	3.358147	1.618843	-6.861878
H	2.601331	2.181180	1.321510
$end

$rem
JOBTYPE		SP
EXCHANGE	HF
CORRELATION	pRIMP2
BASIS		cc-pvtz
METHOD		rimp2
AUX_BASIS	rimp2-cc-pvtz
SOLVENT_METHOD	PCM
PURECART	11111
SYMMETRY	false
MEM_TOTAL	110000
SCF_CONVERGENCE = 6
THRESH=10
GUI = 2
$end

$solvent
dielectric 4.90
$end
--------------------------------------------------------------

             Standard Nuclear Orientation (Angstroms)
    I     Atom           X                Y                Z
 ----------------------------------------------------------------
    1      C      -0.2359930000    -8.5197410000     0.1354570000
    2      C       0.5778580000    -7.6359670000    -0.5581880000
    3      S      -1.4147050000    -7.6517400000     1.1488500000
    4      C       0.2830200000    -6.2618940000    -0.3086480000
    5      H       1.3775970000    -7.9547380000    -1.2385600000
    6      C      -0.8108870000    -6.0799850000     0.6090260000
    7      C      -1.2315810000    -4.7983820000     0.9968280000
    8      C       0.9829010000    -5.1535420000    -0.8657400000
    9      C       0.5647130000    -3.8696260000    -0.4744080000
   10      C      -0.5321960000    -3.6889270000     0.4420460000
   11      O       1.9763320000    -5.4810750000    -1.7381370000
   12      O      -2.2287090000    -4.4798710000     1.8740520000
   13      C      -3.3402980000    -5.3560260000     2.0160620000
   14      H      -4.1108070000    -4.7904960000     2.5738770000
   15      H      -3.0859980000    -6.2685130000     2.5984840000
   16      H      -3.7516790000    -5.6581870000     1.0286950000
   17      C       3.0075650000    -4.5469990000    -2.0331950000
   18      H       3.7786550000    -5.1075640000    -2.5948330000
   19      H       3.4616500000    -4.1314730000    -1.1080670000
   20      H       2.6452640000    -3.7120850000    -2.6714510000
   21      C      -0.8228140000    -2.3143260000     0.6910200000
   22      S       1.1780370000    -2.2954870000    -1.0056490000
   23      C       0.0000000000    -1.4351800000     0.0000000000
   24      H      -1.6236560000    -1.9932110000     1.3688750000
   25      H      -0.2301720000    -9.6159850000     0.1337820000
   26      C       0.0000000000     0.0000000000     0.0000000000
   27      S       0.6904370000     0.5764300000     1.5107320000
   28      C       1.8965120000     1.5898520000     0.7276290000
   29      C       0.6957200000     0.5838170000    -1.0646650000
   30      C       1.7586210000     1.4776740000    -0.6782870000
   31      C       0.6459280000     0.5398780000    -2.4861500000
   32      C       1.6147630000     1.3529970000    -3.1069160000
   33      S       2.5682610000     2.1574300000    -1.9657350000
   34      C       1.8127070000     1.5129910000    -4.5599720000
   35      O       1.0995230000     0.9106620000    -5.3502770000
   36      O       2.7977690000     2.3353300000    -5.0043750000
   37      F      -0.2050240000    -0.1792660000    -3.2462900000
   38      C       3.0790740000     2.5581240000    -6.3349760000
   39      H       3.9259100000     3.2679190000    -6.3702680000
   40      H       2.2081090000     2.9903670000    -6.8756090000
   41      H       3.3581470000     1.6188430000    -6.8618780000
   42      H       2.6013310000     2.1811800000     1.3215100000
 ----------------------------------------------------------------

   11   -2754.2518153680      5.17e-07  Convergence criterion met
 Total energy in the final basis set =    -2754.2518153680
        RIMP2         total energy =     -2759.3210513753 a.u.

                    Orbital Energies (a.u.)
 --------------------------------------------------------------

 Alpha MOs
 -- Occupied --
-92.0178 -92.0036 -91.9864 -91.9838 -26.3345 -20.6152 -20.5910 -20.5883
-20.5553 -11.4149 -11.3779 -11.3173 -11.3170 -11.3122 -11.3081 -11.3009
-11.2927 -11.2912 -11.2901 -11.2862 -11.2860 -11.2843 -11.2816 -11.2807
-11.2762 -11.2577 -11.2542 -11.2481 -11.2425  -9.0164  -9.0073  -8.9871
 -8.9838  -6.6970  -6.6962  -6.6959  -6.6884  -6.6878  -6.6865  -6.6680
 -6.6673  -6.6663  -6.6648  -6.6641  -6.6633  -1.6476  -1.4752  -1.4149
 -1.4111  -1.3711  -1.2420  -1.1927  -1.1690  -1.1442  -1.0842  -1.0514
 -1.0479  -1.0325  -0.9995  -0.9916  -0.9751  -0.9585  -0.9487  -0.9391
 -0.8932  -0.8746  -0.8449  -0.8071  -0.7935  -0.7862  -0.7771  -0.7644
 -0.7542  -0.7304  -0.7188  -0.7158  -0.6987  -0.6912  -0.6812  -0.6795
 -0.6760  -0.6629  -0.6573  -0.6506  -0.6272  -0.6177  -0.6157  -0.6104
 -0.6073  -0.5998  -0.5801  -0.5765  -0.5655  -0.5622  -0.5546  -0.5481
 -0.5314  -0.5301  -0.5222  -0.5157  -0.5139  -0.5075  -0.5025  -0.4956
 -0.4896  -0.4852  -0.4710  -0.4669  -0.4649  -0.4636  -0.4578  -0.4094
 -0.3984  -0.3834  -0.3591  -0.3477  -0.3196  -0.2894  -0.2493

          Ground-State Mulliken Net Atomic Charges

     Atom                 Charge (a.u.)
  ----------------------------------------
      1 C                    -0.195570
      2 C                    -0.253419
      3 S                    -0.026717
      4 C                    -0.022431
      5 H                     0.195569
      6 C                    -0.023316
      7 C                     0.228758
      8 C                     0.243675
      9 C                    -0.046329
     10 C                     0.000253
     11 O                    -0.332985
     12 O                    -0.340914
     13 C                    -0.085514
     14 H                     0.121371
     15 H                     0.090297
     16 H                     0.093365
     17 C                    -0.088479
     18 H                     0.125393
     19 H                     0.093616
     20 H                     0.090190
     21 C                    -0.293613
     22 S                    -0.028402
     23 C                     0.022564
     24 H                     0.191585
     25 H                     0.205148
     26 C                    -0.103646
     27 S                     0.144872
     28 C                    -0.174277
     29 C                    -0.092429
     30 C                    -0.015895
     31 C                     0.377160
     32 C                    -0.131038
     33 S                     0.067192
     34 C                     0.458946
     35 O                    -0.441144
     36 O                    -0.297162
     37 F                    -0.209384
     38 C                    -0.054606
     39 H                     0.117276
     40 H                     0.085582
     41 H                     0.085331
     42 H                     0.219131
  ----------------------------------------
  Sum of atomic charges =     0.000000

                    Cartesian Multipole Moments
 -----------------------------------------------------------------
    Charge (ESU x 10^10)
                 0.0000
    Dipole Moment (Debye)
         X       4.1945      Y       2.7081      Z       2.4534
       Tot       5.5630
    Quadrupole Moments (Debye-Ang)
        XX    -170.6932     XY       9.9887     YY    -174.4468
        XZ     -19.1358     YZ      -6.0252     ZZ    -198.3694

 Total job time:  303.85s(wall), 9813.01s(cpu)
        *  Thank you very much for using Q-Chem.  Have a nice day.  *
