 Q-Chem 5.4, Q-Chem, Inc., Pleasanton, CA (2021)
 Q-Chem 5.4.0 for Intel X86 EM64T Linux

User input:
--------------------------------------------------------------
$molecule
0 1
C	0.093711	-8.519741	-0.255459
C	-0.083869	-7.635967	0.799036
S	0.345260	-7.651740	-1.789425
C	-0.018411	-6.261894	0.418360
H	-0.259169	-7.954738	1.834294
C	0.229701	-6.079985	-0.987769
C	0.302697	-4.798382	-1.555260
C	-0.196459	-5.153542	1.294992
C	-0.127651	-3.869626	0.726408
C	0.123544	-3.688927	-0.680716
O	-0.396706	-5.481075	2.601852
O	0.502673	-4.479871	-2.868193
C	1.262918	-5.356026	-3.691495
H	1.494604	-4.790496	-4.614080
H	0.693738	-6.268513	-3.974195
H	2.212720	-5.658187	-3.199559
C	-0.997016	-4.546999	3.490743
H	-1.226691	-5.107564	4.416630
H	-1.939526	-4.131473	3.073934
H	-0.309214	-3.712085	3.746794
C	0.186133	-2.314326	-1.058247
S	-0.256010	-2.295487	1.527599
C	0.000000	-1.435180	0.000000
H	0.363896	-1.993211	-2.092285
H	0.090328	-9.615985	-0.250435
C	0.000000	0.000000	0.000000
S	0.002233	0.899428	1.510732
C	0.001157	2.474749	0.727629
C	-0.000030	0.908223	-1.064665
C	-0.001545	2.297013	-0.678287
C	0.001624	0.841837	-2.486150
C	0.001494	2.106670	-3.106916
S	-0.001841	3.354171	-1.965735
C	0.006168	2.361146	-4.559972
O	0.009152	1.427646	-5.350277
O	0.009405	3.644337	-5.004375
F	0.005539	-0.272288	-3.246290
C	0.019554	4.003038	-6.334976
H	0.020155	5.108000	-6.370268
H	-0.871409	3.613681	-6.875609
H	0.918470	3.613062	-6.861878
H	0.001222	3.394771	1.321510
$end

$rem
JOBTYPE		SP
EXCHANGE	HF
CORRELATION	pRIMP2
BASIS		cc-pvtz
METHOD		rimp2
AUX_BASIS	rimp2-cc-pvtz
SOLVENT_METHOD	PCM
PURECART	11111
SYMMETRY	false
MEM_TOTAL	110000
SCF_CONVERGENCE = 6
THRESH=10
GUI = 2
$end

$solvent
dielectric 4.90
$end
--------------------------------------------------------------

             Standard Nuclear Orientation (Angstroms)
    I     Atom           X                Y                Z
 ----------------------------------------------------------------
    1      C       0.0937110000    -8.5197410000    -0.2554590000
    2      C      -0.0838690000    -7.6359670000     0.7990360000
    3      S       0.3452600000    -7.6517400000    -1.7894250000
    4      C      -0.0184110000    -6.2618940000     0.4183600000
    5      H      -0.2591690000    -7.9547380000     1.8342940000
    6      C       0.2297010000    -6.0799850000    -0.9877690000
    7      C       0.3026970000    -4.7983820000    -1.5552600000
    8      C      -0.1964590000    -5.1535420000     1.2949920000
    9      C      -0.1276510000    -3.8696260000     0.7264080000
   10      C       0.1235440000    -3.6889270000    -0.6807160000
   11      O      -0.3967060000    -5.4810750000     2.6018520000
   12      O       0.5026730000    -4.4798710000    -2.8681930000
   13      C       1.2629180000    -5.3560260000    -3.6914950000
   14      H       1.4946040000    -4.7904960000    -4.6140800000
   15      H       0.6937380000    -6.2685130000    -3.9741950000
   16      H       2.2127200000    -5.6581870000    -3.1995590000
   17      C      -0.9970160000    -4.5469990000     3.4907430000
   18      H      -1.2266910000    -5.1075640000     4.4166300000
   19      H      -1.9395260000    -4.1314730000     3.0739340000
   20      H      -0.3092140000    -3.7120850000     3.7467940000
   21      C       0.1861330000    -2.3143260000    -1.0582470000
   22      S      -0.2560100000    -2.2954870000     1.5275990000
   23      C       0.0000000000    -1.4351800000     0.0000000000
   24      H       0.3638960000    -1.9932110000    -2.0922850000
   25      H       0.0903280000    -9.6159850000    -0.2504350000
   26      C       0.0000000000     0.0000000000     0.0000000000
   27      S       0.0022330000     0.8994280000     1.5107320000
   28      C       0.0011570000     2.4747490000     0.7276290000
   29      C      -0.0000300000     0.9082230000    -1.0646650000
   30      C      -0.0015450000     2.2970130000    -0.6782870000
   31      C       0.0016240000     0.8418370000    -2.4861500000
   32      C       0.0014940000     2.1066700000    -3.1069160000
   33      S      -0.0018410000     3.3541710000    -1.9657350000
   34      C       0.0061680000     2.3611460000    -4.5599720000
   35      O       0.0091520000     1.4276460000    -5.3502770000
   36      O       0.0094050000     3.6443370000    -5.0043750000
   37      F       0.0055390000    -0.2722880000    -3.2462900000
   38      C       0.0195540000     4.0030380000    -6.3349760000
   39      H       0.0201550000     5.1080000000    -6.3702680000
   40      H      -0.8714090000     3.6136810000    -6.8756090000
   41      H       0.9184700000     3.6130620000    -6.8618780000
   42      H       0.0012220000     3.3947710000     1.3215100000
 ----------------------------------------------------------------

   10   -2754.2971711805      8.37e-07  Convergence criterion met
 Total energy in the final basis set =    -2754.2971711805
        RIMP2         total energy =     -2759.3520587878 a.u.

                    Orbital Energies (a.u.)
 --------------------------------------------------------------

 Alpha MOs
 -- Occupied --
-92.0160 -91.9949 -91.9913 -91.9873 -26.3384 -20.6117 -20.5932 -20.5920
-20.5492 -11.4097 -11.3789 -11.3204 -11.3199 -11.3149 -11.2975 -11.2966
-11.2960 -11.2913 -11.2887 -11.2883 -11.2879 -11.2857 -11.2850 -11.2811
-11.2805 -11.2624 -11.2609 -11.2583 -11.2507  -9.0145  -8.9989  -8.9919
 -8.9872  -6.6953  -6.6948  -6.6942  -6.6801  -6.6795  -6.6781  -6.6729
 -6.6722  -6.6712  -6.6682  -6.6675  -6.6667  -1.6528  -1.4714  -1.4174
 -1.4146  -1.3666  -1.2336  -1.1977  -1.1700  -1.1425  -1.0852  -1.0534
 -1.0482  -1.0280  -1.0042  -0.9943  -0.9724  -0.9614  -0.9511  -0.9385
 -0.8974  -0.8695  -0.8526  -0.8075  -0.7965  -0.7891  -0.7726  -0.7697
 -0.7583  -0.7335  -0.7216  -0.7198  -0.7021  -0.6898  -0.6851  -0.6783
 -0.6725  -0.6625  -0.6598  -0.6529  -0.6298  -0.6205  -0.6161  -0.6061
 -0.5997  -0.5937  -0.5889  -0.5762  -0.5698  -0.5611  -0.5529  -0.5490
 -0.5372  -0.5273  -0.5257  -0.5188  -0.5177  -0.5098  -0.5057  -0.4967
 -0.4872  -0.4841  -0.4798  -0.4678  -0.4619  -0.4611  -0.4585  -0.4250
 -0.3988  -0.3863  -0.3601  -0.3508  -0.3260  -0.2846  -0.2475

          Ground-State Mulliken Net Atomic Charges

     Atom                 Charge (a.u.)
  ----------------------------------------
      1 C                    -0.185742
      2 C                    -0.255007
      3 S                    -0.019465
      4 C                    -0.013002
      5 H                     0.196578
      6 C                    -0.030105
      7 C                     0.255420
      8 C                     0.241960
      9 C                    -0.036087
     10 C                    -0.043515
     11 O                    -0.333260
     12 O                    -0.338624
     13 C                    -0.086545
     14 H                     0.124314
     15 H                     0.091693
     16 H                     0.094060
     17 C                    -0.088666
     18 H                     0.126290
     19 H                     0.095275
     20 H                     0.089567
     21 C                    -0.191517
     22 S                    -0.042590
     23 C                    -0.028965
     24 H                     0.210924
     25 H                     0.207023
     26 C                    -0.041427
     27 S                     0.083183
     28 C                    -0.246176
     29 C                    -0.053659
     30 C                    -0.019182
     31 C                     0.400445
     32 C                    -0.140378
     33 S                     0.034856
     34 C                     0.462570
     35 O                    -0.452601
     36 O                    -0.298065
     37 F                    -0.217440
     38 C                    -0.055111
     39 H                     0.116661
     40 H                     0.084513
     41 H                     0.084240
     42 H                     0.217560
  ----------------------------------------
  Sum of atomic charges =     0.000000

                    Cartesian Multipole Moments
 -----------------------------------------------------------------
    Charge (ESU x 10^10)
                 0.0000
    Dipole Moment (Debye)
         X       0.2580      Y       1.0366      Z       3.2310
       Tot       3.4030
    Quadrupole Moments (Debye-Ang)
        XX    -197.9594     XY      -1.5406     YY    -156.1036
        XZ      -9.3433     YZ      -9.8600     ZZ    -185.3262

 Total job time:  310.78s(wall), 9551.99s(cpu)
        *  Thank you very much for using Q-Chem.  Have a nice day.  *
