 Q-Chem 5.4, Q-Chem, Inc., Pleasanton, CA (2021)
 Q-Chem 5.4.0 for Intel X86 EM64T Linux

User input:
--------------------------------------------------------------
$molecule
0 1
C	-0.235993	-8.519741	0.135457
C	0.577858	-7.635967	-0.558188
S	-1.414705	-7.651740	1.148850
C	0.283020	-6.261894	-0.308648
H	1.377597	-7.954738	-1.238560
C	-0.810887	-6.079985	0.609026
C	-1.231581	-4.798382	0.996828
C	0.982901	-5.153542	-0.865740
C	0.564713	-3.869626	-0.474408
C	-0.532196	-3.688927	0.442046
O	1.976332	-5.481075	-1.738137
O	-2.228709	-4.479871	1.874052
C	-3.340298	-5.356026	2.016062
H	-4.110807	-4.790496	2.573877
H	-3.085998	-6.268513	2.598484
H	-3.751679	-5.658187	1.028695
C	3.007565	-4.546999	-2.033195
H	3.778655	-5.107564	-2.594833
H	3.461650	-4.131473	-1.108067
H	2.645264	-3.712085	-2.671451
C	-0.822814	-2.314326	0.691020
S	1.178037	-2.295487	-1.005649
C	0.000000	-1.435180	0.000000
H	-1.623656	-1.993211	1.368875
H	-0.230172	-9.615985	0.133782
C	0.000000	0.000000	0.000000
S	0.080615	0.895811	1.510732
C	0.216842	2.465231	0.727629
C	0.079127	0.904769	-1.064665
C	0.198659	2.288406	-0.678287
C	0.074988	0.838492	-2.486150
C	0.185097	2.098524	-3.106916
S	0.290501	3.341568	-1.965735
C	0.211932	2.351623	-4.559972
O	0.133545	1.421416	-5.350277
O	0.326994	3.629649	-5.004375
F	-0.018214	-0.271734	-3.246290
C	0.368367	3.986101	-6.334976
H	0.465270	5.086806	-6.370268
H	-0.553140	3.675878	-6.875609
H	1.229874	3.519263	-6.861878
H	0.297091	3.381746	1.321510
$end

$rem
JOBTYPE		SP
EXCHANGE	HF
CORRELATION	pRIMP2
BASIS		cc-pvtz
METHOD		rimp2
AUX_BASIS	rimp2-cc-pvtz
SOLVENT_METHOD	PCM
PURECART	11111
SYMMETRY	false
MEM_TOTAL	110000
SCF_CONVERGENCE = 6
THRESH=10
GUI = 2
$end

$solvent
dielectric 4.90
$end
--------------------------------------------------------------

             Standard Nuclear Orientation (Angstroms)
    I     Atom           X                Y                Z
 ----------------------------------------------------------------
    1      C      -0.2359930000    -8.5197410000     0.1354570000
    2      C       0.5778580000    -7.6359670000    -0.5581880000
    3      S      -1.4147050000    -7.6517400000     1.1488500000
    4      C       0.2830200000    -6.2618940000    -0.3086480000
    5      H       1.3775970000    -7.9547380000    -1.2385600000
    6      C      -0.8108870000    -6.0799850000     0.6090260000
    7      C      -1.2315810000    -4.7983820000     0.9968280000
    8      C       0.9829010000    -5.1535420000    -0.8657400000
    9      C       0.5647130000    -3.8696260000    -0.4744080000
   10      C      -0.5321960000    -3.6889270000     0.4420460000
   11      O       1.9763320000    -5.4810750000    -1.7381370000
   12      O      -2.2287090000    -4.4798710000     1.8740520000
   13      C      -3.3402980000    -5.3560260000     2.0160620000
   14      H      -4.1108070000    -4.7904960000     2.5738770000
   15      H      -3.0859980000    -6.2685130000     2.5984840000
   16      H      -3.7516790000    -5.6581870000     1.0286950000
   17      C       3.0075650000    -4.5469990000    -2.0331950000
   18      H       3.7786550000    -5.1075640000    -2.5948330000
   19      H       3.4616500000    -4.1314730000    -1.1080670000
   20      H       2.6452640000    -3.7120850000    -2.6714510000
   21      C      -0.8228140000    -2.3143260000     0.6910200000
   22      S       1.1780370000    -2.2954870000    -1.0056490000
   23      C       0.0000000000    -1.4351800000     0.0000000000
   24      H      -1.6236560000    -1.9932110000     1.3688750000
   25      H      -0.2301720000    -9.6159850000     0.1337820000
   26      C       0.0000000000     0.0000000000     0.0000000000
   27      S       0.0806150000     0.8958110000     1.5107320000
   28      C       0.2168420000     2.4652310000     0.7276290000
   29      C       0.0791270000     0.9047690000    -1.0646650000
   30      C       0.1986590000     2.2884060000    -0.6782870000
   31      C       0.0749880000     0.8384920000    -2.4861500000
   32      C       0.1850970000     2.0985240000    -3.1069160000
   33      S       0.2905010000     3.3415680000    -1.9657350000
   34      C       0.2119320000     2.3516230000    -4.5599720000
   35      O       0.1335450000     1.4214160000    -5.3502770000
   36      O       0.3269940000     3.6296490000    -5.0043750000
   37      F      -0.0182140000    -0.2717340000    -3.2462900000
   38      C       0.3683670000     3.9861010000    -6.3349760000
   39      H       0.4652700000     5.0868060000    -6.3702680000
   40      H      -0.5531400000     3.6758780000    -6.8756090000
   41      H       1.2298740000     3.5192630000    -6.8618780000
   42      H       0.2970910000     3.3817460000     1.3215100000
 ----------------------------------------------------------------

   10   -2754.2969586281      8.30e-07  Convergence criterion met
 Total energy in the final basis set =    -2754.2969586281
        RIMP2         total energy =     -2759.3503429251 a.u.

                    Orbital Energies (a.u.)
 --------------------------------------------------------------

 Alpha MOs
 -- Occupied --
-92.0165 -91.9944 -91.9896 -91.9867 -26.3336 -20.6117 -20.5922 -20.5921
-20.5495 -11.4098 -11.3775 -11.3193 -11.3190 -11.3120 -11.2966 -11.2964
-11.2956 -11.2925 -11.2883 -11.2870 -11.2866 -11.2865 -11.2843 -11.2818
-11.2804 -11.2616 -11.2598 -11.2596 -11.2502  -9.0146  -8.9985  -8.9900
 -8.9866  -6.6953  -6.6947  -6.6942  -6.6797  -6.6791  -6.6777  -6.6709
 -6.6702  -6.6692  -6.6676  -6.6670  -6.6661  -1.6470  -1.4714  -1.4164
 -1.4148  -1.3667  -1.2333  -1.1965  -1.1687  -1.1418  -1.0846  -1.0526
 -1.0473  -1.0278  -1.0028  -0.9935  -0.9714  -0.9613  -0.9505  -0.9385
 -0.8961  -0.8690  -0.8513  -0.8073  -0.7911  -0.7878  -0.7748  -0.7656
 -0.7586  -0.7330  -0.7182  -0.7151  -0.7010  -0.6883  -0.6836  -0.6782
 -0.6711  -0.6611  -0.6592  -0.6528  -0.6301  -0.6203  -0.6170  -0.6061
 -0.6019  -0.5941  -0.5855  -0.5757  -0.5693  -0.5656  -0.5573  -0.5523
 -0.5324  -0.5264  -0.5252  -0.5163  -0.5145  -0.5083  -0.5014  -0.4964
 -0.4892  -0.4839  -0.4771  -0.4680  -0.4615  -0.4611  -0.4596  -0.4154
 -0.3978  -0.3870  -0.3583  -0.3500  -0.3206  -0.2858  -0.2541

          Ground-State Mulliken Net Atomic Charges

     Atom                 Charge (a.u.)
  ----------------------------------------
      1 C                    -0.186909
      2 C                    -0.254248
      3 S                    -0.022044
      4 C                    -0.013252
      5 H                     0.196747
      6 C                    -0.027734
      7 C                     0.246361
      8 C                     0.239625
      9 C                    -0.042223
     10 C                    -0.023751
     11 O                    -0.333186
     12 O                    -0.339905
     13 C                    -0.085745
     14 H                     0.122587
     15 H                     0.091231
     16 H                     0.094547
     17 C                    -0.087116
     18 H                     0.125189
     19 H                     0.094261
     20 H                     0.090959
     21 C                    -0.246321
     22 S                    -0.003813
     23 C                    -0.014100
     24 H                     0.197523
     25 H                     0.206698
     26 C                     0.000947
     27 S                     0.115363
     28 C                    -0.243645
     29 C                    -0.117117
     30 C                    -0.006648
     31 C                     0.392701
     32 C                    -0.151056
     33 S                     0.036822
     34 C                     0.461140
     35 O                    -0.451097
     36 O                    -0.298020
     37 F                    -0.209969
     38 C                    -0.055078
     39 H                     0.116518
     40 H                     0.084601
     41 H                     0.084319
     42 H                     0.214836
  ----------------------------------------
  Sum of atomic charges =     0.000000

                    Cartesian Multipole Moments
 -----------------------------------------------------------------
    Charge (ESU x 10^10)
                -0.0000
    Dipole Moment (Debye)
         X       0.2282      Y       1.3783      Z       3.0063
       Tot       3.3150
    Quadrupole Moments (Debye-Ang)
        XX    -181.4709     XY       2.6537     YY    -158.2890
        XZ     -11.2988     YZ      -9.4806     ZZ    -201.5931

 Total job time:  277.96s(wall), 9249.16s(cpu)
        *  Thank you very much for using Q-Chem.  Have a nice day.  *
