 Q-Chem 5.4, Q-Chem, Inc., Pleasanton, CA (2021)
 Q-Chem 5.4.0 for Intel X86 EM64T Linux

User input:
--------------------------------------------------------------
$molecule
0 1
C	-0.174379	-8.519741	-0.208886
C	0.650052	-7.635967	0.472151
S	-1.377058	-7.651740	-1.193717
C	0.353105	-6.261894	0.225125
H	1.458961	-7.954738	1.141594
C	-0.740583	-6.079985	-0.692811
C	-1.195546	-4.798382	-1.039773
C	1.023267	-5.153542	0.817634
C	0.565262	-3.869626	0.473754
C	-0.527745	-3.688927	-0.447350
O	2.054917	-5.481075	1.644483
O	-2.232592	-4.479871	-1.869424
C	-2.565470	-5.356026	-2.939466
H	-3.248608	-4.790496	-3.601405
H	-3.094885	-6.268513	-2.587892
H	-1.664539	-5.658187	-3.516052
C	2.524564	-4.546999	2.608813
H	3.211568	-5.107564	3.270661
H	1.692342	-4.131473	3.216646
H	3.090211	-3.712085	2.141184
C	-0.823402	-2.314326	-0.690319
S	1.194935	-2.295487	0.985511
C	-0.000000	-1.435180	-0.000000
H	-1.630024	-1.993211	-1.361286
H	-0.171719	-9.615985	-0.203444
C	0.000000	0.000000	0.000000
S	0.382139	0.814215	1.510732
C	1.046923	2.242395	0.727629
C	0.383804	0.823142	-1.064665
C	0.969360	2.082453	-0.678287
C	0.357247	0.762277	-2.486150
C	0.891671	1.908660	-3.106916
S	1.415865	3.040689	-1.965735
C	1.003453	2.137318	-4.559972
O	0.611644	1.290019	-5.350277
O	1.548687	3.298916	-5.004375
F	-0.110054	-0.249117	-3.246290
C	1.709479	3.619721	-6.334976
H	2.177001	4.620902	-6.370268
H	0.737443	3.643380	-6.875609
H	2.359363	2.886384	-6.861878
H	1.435800	3.076190	1.321510
$end

$rem
JOBTYPE		SP
EXCHANGE	HF
CORRELATION	pRIMP2
BASIS		cc-pvtz
METHOD		rimp2
AUX_BASIS	rimp2-cc-pvtz
SOLVENT_METHOD	PCM
PURECART	11111
SYMMETRY	false
MEM_TOTAL	110000
SCF_CONVERGENCE = 6
THRESH=10
GUI = 2
$end

$solvent
dielectric 4.90
$end
--------------------------------------------------------------

             Standard Nuclear Orientation (Angstroms)
    I     Atom           X                Y                Z
 ----------------------------------------------------------------
    1      C      -0.1743790000    -8.5197410000    -0.2088860000
    2      C       0.6500520000    -7.6359670000     0.4721510000
    3      S      -1.3770580000    -7.6517400000    -1.1937170000
    4      C       0.3531050000    -6.2618940000     0.2251250000
    5      H       1.4589610000    -7.9547380000     1.1415940000
    6      C      -0.7405830000    -6.0799850000    -0.6928110000
    7      C      -1.1955460000    -4.7983820000    -1.0397730000
    8      C       1.0232670000    -5.1535420000     0.8176340000
    9      C       0.5652620000    -3.8696260000     0.4737540000
   10      C      -0.5277450000    -3.6889270000    -0.4473500000
   11      O       2.0549170000    -5.4810750000     1.6444830000
   12      O      -2.2325920000    -4.4798710000    -1.8694240000
   13      C      -2.5654700000    -5.3560260000    -2.9394660000
   14      H      -3.2486080000    -4.7904960000    -3.6014050000
   15      H      -3.0948850000    -6.2685130000    -2.5878920000
   16      H      -1.6645390000    -5.6581870000    -3.5160520000
   17      C       2.5245640000    -4.5469990000     2.6088130000
   18      H       3.2115680000    -5.1075640000     3.2706610000
   19      H       1.6923420000    -4.1314730000     3.2166460000
   20      H       3.0902110000    -3.7120850000     2.1411840000
   21      C      -0.8234020000    -2.3143260000    -0.6903190000
   22      S       1.1949350000    -2.2954870000     0.9855110000
   23      C       0.0000000000    -1.4351800000     0.0000000000
   24      H      -1.6300240000    -1.9932110000    -1.3612860000
   25      H      -0.1717190000    -9.6159850000    -0.2034440000
   26      C       0.0000000000     0.0000000000     0.0000000000
   27      S       0.3821390000     0.8142150000     1.5107320000
   28      C       1.0469230000     2.2423950000     0.7276290000
   29      C       0.3838040000     0.8231420000    -1.0646650000
   30      C       0.9693600000     2.0824530000    -0.6782870000
   31      C       0.3572470000     0.7622770000    -2.4861500000
   32      C       0.8916710000     1.9086600000    -3.1069160000
   33      S       1.4158650000     3.0406890000    -1.9657350000
   34      C       1.0034530000     2.1373180000    -4.5599720000
   35      O       0.6116440000     1.2900190000    -5.3502770000
   36      O       1.5486870000     3.2989160000    -5.0043750000
   37      F      -0.1100540000    -0.2491170000    -3.2462900000
   38      C       1.7094790000     3.6197210000    -6.3349760000
   39      H       2.1770010000     4.6209020000    -6.3702680000
   40      H       0.7374430000     3.6433800000    -6.8756090000
   41      H       2.3593630000     2.8863840000    -6.8618780000
   42      H       1.4358000000     3.0761900000     1.3215100000
 ----------------------------------------------------------------

   10   -2754.2858597331      8.08e-07  Convergence criterion met
 Total energy in the final basis set =    -2754.2858597331
        RIMP2         total energy =     -2759.3430994403 a.u.

                    Orbital Energies (a.u.)
 --------------------------------------------------------------

 Alpha MOs
 -- Occupied --
-92.0161 -91.9962 -91.9909 -91.9859 -26.3343 -20.6125 -20.5925 -20.5904
-20.5508 -11.4110 -11.3772 -11.3191 -11.3169 -11.3064 -11.2991 -11.2984
-11.2970 -11.2940 -11.2887 -11.2875 -11.2852 -11.2851 -11.2848 -11.2836
-11.2793 -11.2603 -11.2584 -11.2541 -11.2497  -9.0145  -9.0001  -8.9912
 -8.9858  -6.6952  -6.6946  -6.6942  -6.6814  -6.6807  -6.6794  -6.6721
 -6.6714  -6.6705  -6.6668  -6.6662  -6.6653  -1.6472  -1.4723  -1.4165
 -1.4132  -1.3677  -1.2349  -1.1955  -1.1687  -1.1426  -1.0837  -1.0515
 -1.0483  -1.0285  -1.0020  -0.9929  -0.9723  -0.9608  -0.9502  -0.9380
 -0.8959  -0.8703  -0.8497  -0.8034  -0.7933  -0.7876  -0.7713  -0.7708
 -0.7572  -0.7318  -0.7187  -0.7155  -0.7010  -0.6895  -0.6824  -0.6788
 -0.6721  -0.6607  -0.6589  -0.6520  -0.6296  -0.6195  -0.6165  -0.6070
 -0.6020  -0.5961  -0.5869  -0.5770  -0.5674  -0.5614  -0.5554  -0.5463
 -0.5375  -0.5268  -0.5224  -0.5162  -0.5157  -0.5082  -0.5034  -0.4941
 -0.4880  -0.4851  -0.4747  -0.4699  -0.4619  -0.4617  -0.4609  -0.4157
 -0.3967  -0.3858  -0.3571  -0.3503  -0.3195  -0.2878  -0.2526

          Ground-State Mulliken Net Atomic Charges

     Atom                 Charge (a.u.)
  ----------------------------------------
      1 C                    -0.189018
      2 C                    -0.254890
      3 S                    -0.022444
      4 C                    -0.014689
      5 H                     0.196146
      6 C                    -0.026646
      7 C                     0.240135
      8 C                     0.240911
      9 C                    -0.046922
     10 C                    -0.024849
     11 O                    -0.333100
     12 O                    -0.339799
     13 C                    -0.085513
     14 H                     0.123000
     15 H                     0.090453
     16 H                     0.094238
     17 C                    -0.087171
     18 H                     0.125237
     19 H                     0.094447
     20 H                     0.089549
     21 C                    -0.230009
     22 S                    -0.006970
     23 C                    -0.046788
     24 H                     0.194430
     25 H                     0.206291
     26 C                    -0.007358
     27 S                     0.102311
     28 C                    -0.218626
     29 C                    -0.063694
     30 C                    -0.011758
     31 C                     0.363655
     32 C                    -0.142915
     33 S                     0.044061
     34 C                     0.457408
     35 O                    -0.448528
     36 O                    -0.297831
     37 F                    -0.210061
     38 C                    -0.054794
     39 H                     0.116692
     40 H                     0.084602
     41 H                     0.084679
     42 H                     0.216129
  ----------------------------------------
  Sum of atomic charges =     0.000000

                    Cartesian Multipole Moments
 -----------------------------------------------------------------
    Charge (ESU x 10^10)
                 0.0000
    Dipole Moment (Debye)
         X       1.9112      Y       1.7638      Z       3.0373
       Tot       3.9986
    Quadrupole Moments (Debye-Ang)
        XX    -189.9058     XY       5.4614     YY    -162.4721
        XZ       7.3939     YZ      -8.5602     ZZ    -189.7457

 Total job time:  292.31s(wall), 9268.69s(cpu)
        *  Thank you very much for using Q-Chem.  Have a nice day.  *
