 Q-Chem 5.4, Q-Chem, Inc., Pleasanton, CA (2021)
 Q-Chem 5.4.0 for Intel X86 EM64T Linux

User input:
--------------------------------------------------------------
$molecule
0 1
C	0.255459	-8.519741	0.093711
C	-0.799036	-7.635967	-0.083869
S	1.789425	-7.651740	0.345260
C	-0.418360	-6.261894	-0.018411
H	-1.834294	-7.954738	-0.259169
C	0.987769	-6.079985	0.229701
C	1.555260	-4.798382	0.302697
C	-1.294992	-5.153542	-0.196459
C	-0.726408	-3.869626	-0.127651
C	0.680716	-3.688927	0.123544
O	-2.601852	-5.481075	-0.396706
O	2.868193	-4.479871	0.502673
C	3.691495	-5.356026	1.262918
H	4.614080	-4.790496	1.494604
H	3.974195	-6.268513	0.693738
H	3.199559	-5.658187	2.212720
C	-3.490743	-4.546999	-0.997016
H	-4.416630	-5.107564	-1.226691
H	-3.073934	-4.131473	-1.939526
H	-3.746794	-3.712085	-0.309214
C	1.058247	-2.314326	0.186133
S	-1.527599	-2.295487	-0.256010
C	-0.000000	-1.435180	-0.000000
H	2.092285	-1.993211	0.363896
H	0.250435	-9.615985	0.090328
C	0.000000	0.000000	0.000000
S	0.451648	0.777811	1.510732
C	1.238377	2.142617	0.727629
C	0.454085	0.786559	-1.064665
C	1.147169	1.990043	-0.678287
C	0.422325	0.728240	-2.486150
C	1.054629	1.823683	-3.106916
S	1.675491	2.905718	-1.965735
C	1.185914	2.041729	-4.559972
O	0.721749	1.231802	-5.350277
O	1.830313	3.151386	-5.004375
F	-0.131347	-0.238577	-3.246290
C	2.018453	3.456956	-6.334976
H	2.571455	4.413580	-6.370268
H	1.052178	3.565244	-6.875609
H	2.601950	2.669768	-6.861878
H	1.698444	2.939346	1.321510
$end

$rem
JOBTYPE		SP
EXCHANGE	HF
CORRELATION	pRIMP2
BASIS		cc-pvtz
METHOD		rimp2
AUX_BASIS	rimp2-cc-pvtz
SOLVENT_METHOD	PCM
PURECART	11111
SYMMETRY	false
MEM_TOTAL	110000
SCF_CONVERGENCE = 6
THRESH=10
GUI = 2
$end

$solvent
dielectric 4.90
$end
--------------------------------------------------------------

             Standard Nuclear Orientation (Angstroms)
    I     Atom           X                Y                Z
 ----------------------------------------------------------------
    1      C       0.2554590000    -8.5197410000     0.0937110000
    2      C      -0.7990360000    -7.6359670000    -0.0838690000
    3      S       1.7894250000    -7.6517400000     0.3452600000
    4      C      -0.4183600000    -6.2618940000    -0.0184110000
    5      H      -1.8342940000    -7.9547380000    -0.2591690000
    6      C       0.9877690000    -6.0799850000     0.2297010000
    7      C       1.5552600000    -4.7983820000     0.3026970000
    8      C      -1.2949920000    -5.1535420000    -0.1964590000
    9      C      -0.7264080000    -3.8696260000    -0.1276510000
   10      C       0.6807160000    -3.6889270000     0.1235440000
   11      O      -2.6018520000    -5.4810750000    -0.3967060000
   12      O       2.8681930000    -4.4798710000     0.5026730000
   13      C       3.6914950000    -5.3560260000     1.2629180000
   14      H       4.6140800000    -4.7904960000     1.4946040000
   15      H       3.9741950000    -6.2685130000     0.6937380000
   16      H       3.1995590000    -5.6581870000     2.2127200000
   17      C      -3.4907430000    -4.5469990000    -0.9970160000
   18      H      -4.4166300000    -5.1075640000    -1.2266910000
   19      H      -3.0739340000    -4.1314730000    -1.9395260000
   20      H      -3.7467940000    -3.7120850000    -0.3092140000
   21      C       1.0582470000    -2.3143260000     0.1861330000
   22      S      -1.5275990000    -2.2954870000    -0.2560100000
   23      C       0.0000000000    -1.4351800000     0.0000000000
   24      H       2.0922850000    -1.9932110000     0.3638960000
   25      H       0.2504350000    -9.6159850000     0.0903280000
   26      C       0.0000000000     0.0000000000     0.0000000000
   27      S       0.4516480000     0.7778110000     1.5107320000
   28      C       1.2383770000     2.1426170000     0.7276290000
   29      C       0.4540850000     0.7865590000    -1.0646650000
   30      C       1.1471690000     1.9900430000    -0.6782870000
   31      C       0.4223250000     0.7282400000    -2.4861500000
   32      C       1.0546290000     1.8236830000    -3.1069160000
   33      S       1.6754910000     2.9057180000    -1.9657350000
   34      C       1.1859140000     2.0417290000    -4.5599720000
   35      O       0.7217490000     1.2318020000    -5.3502770000
   36      O       1.8303130000     3.1513860000    -5.0043750000
   37      F      -0.1313470000    -0.2385770000    -3.2462900000
   38      C       2.0184530000     3.4569560000    -6.3349760000
   39      H       2.5714550000     4.4135800000    -6.3702680000
   40      H       1.0521780000     3.5652440000    -6.8756090000
   41      H       2.6019500000     2.6697680000    -6.8618780000
   42      H       1.6984440000     2.9393460000     1.3215100000
 ----------------------------------------------------------------

   10   -2754.2789127103      9.49e-07  Convergence criterion met
 Total energy in the final basis set =    -2754.2789127103
        RIMP2         total energy =     -2759.3372899449 a.u.

                    Orbital Energies (a.u.)
 --------------------------------------------------------------

 Alpha MOs
 -- Occupied --
-92.0164 -91.9969 -91.9862 -91.9856 -26.3338 -20.6129 -20.5915 -20.5910
-20.5517 -11.4117 -11.3764 -11.3181 -11.3169 -11.3014 -11.3008 -11.2996
-11.2966 -11.2927 -11.2888 -11.2860 -11.2859 -11.2859 -11.2842 -11.2832
-11.2790 -11.2598 -11.2578 -11.2558 -11.2494  -9.0146  -9.0008  -8.9867
 -8.9856  -6.6953  -6.6946  -6.6943  -6.6821  -6.6814  -6.6801  -6.6676
 -6.6669  -6.6666  -6.6660  -6.6659  -6.6651  -1.6467  -1.4728  -1.4156
 -1.4137  -1.3683  -1.2349  -1.1946  -1.1678  -1.1422  -1.0832  -1.0509
 -1.0482  -1.0286  -1.0008  -0.9924  -0.9720  -0.9602  -0.9496  -0.9385
 -0.8944  -0.8704  -0.8480  -0.8052  -0.7908  -0.7873  -0.7746  -0.7681
 -0.7568  -0.7318  -0.7180  -0.7151  -0.7006  -0.6895  -0.6821  -0.6791
 -0.6723  -0.6602  -0.6580  -0.6521  -0.6297  -0.6194  -0.6160  -0.6074
 -0.6025  -0.5969  -0.5842  -0.5748  -0.5703  -0.5658  -0.5535  -0.5527
 -0.5302  -0.5267  -0.5232  -0.5155  -0.5134  -0.5077  -0.5012  -0.4924
 -0.4907  -0.4859  -0.4742  -0.4652  -0.4623  -0.4619  -0.4593  -0.4058
 -0.3993  -0.3861  -0.3589  -0.3455  -0.3129  -0.2922  -0.2573

          Ground-State Mulliken Net Atomic Charges

     Atom                 Charge (a.u.)
  ----------------------------------------
      1 C                    -0.189589
      2 C                    -0.254119
      3 S                    -0.023621
      4 C                    -0.016107
      5 H                     0.196281
      6 C                    -0.029122
      7 C                     0.241254
      8 C                     0.244374
      9 C                    -0.051078
     10 C                    -0.016587
     11 O                    -0.333691
     12 O                    -0.340511
     13 C                    -0.085547
     14 H                     0.122163
     15 H                     0.091161
     16 H                     0.093636
     17 C                    -0.086197
     18 H                     0.124333
     19 H                     0.095529
     20 H                     0.089155
     21 C                    -0.216864
     22 S                    -0.001474
     23 C                    -0.035065
     24 H                     0.199491
     25 H                     0.206178
     26 C                    -0.052081
     27 S                     0.123346
     28 C                    -0.219305
     29 C                    -0.093161
     30 C                    -0.002691
     31 C                     0.369415
     32 C                    -0.149496
     33 S                     0.047604
     34 C                     0.458625
     35 O                    -0.446815
     36 O                    -0.297573
     37 F                    -0.209429
     38 C                    -0.054901
     39 H                     0.116756
     40 H                     0.084810
     41 H                     0.084914
     42 H                     0.215998
  ----------------------------------------
  Sum of atomic charges =     0.000000

                    Cartesian Multipole Moments
 -----------------------------------------------------------------
    Charge (ESU x 10^10)
                -0.0000
    Dipole Moment (Debye)
         X       1.9512      Y       1.9776      Z       3.3342
       Tot       4.3399
    Quadrupole Moments (Debye-Ang)
        XX    -176.5103     XY       7.3466     YY    -164.4274
        XZ       3.4579     YZ     -11.0343     ZZ    -201.5598

 Total job time:  1268.17s(wall), 10573.59s(cpu)
        *  Thank you very much for using Q-Chem.  Have a nice day.  *
