 Q-Chem 5.4, Q-Chem, Inc., Pleasanton, CA (2021)
 Q-Chem 5.4.0 for Intel X86 EM64T Linux

User input:
--------------------------------------------------------------
$molecule
0 1
C	0.092419	-8.519741	0.255929
C	-0.449364	-7.635967	-0.666007
S	0.885736	-7.651740	1.592708
C	-0.254813	-6.261894	-0.332317
H	-0.980526	-7.954738	-1.571741
C	0.458965	-6.079985	0.904324
C	0.767823	-4.798382	1.385968
C	-0.681909	-5.153542	-1.118303
C	-0.369139	-3.869626	-0.638514
C	0.342916	-3.688927	0.600871
O	-1.368544	-5.481075	-2.248132
O	1.458570	-4.479871	2.520275
C	1.405396	-5.356026	3.639637
H	1.820940	-4.790496	4.495304
H	2.023129	-6.268513	3.490336
H	0.361595	-5.658187	3.873314
C	-1.480048	-4.546999	-3.314934
H	-1.899255	-5.107564	-4.171837
H	-0.490123	-4.131473	-3.601473
H	-2.171521	-3.712085	-3.068969
C	0.537642	-2.314326	0.930308
S	-0.785807	-2.295487	-1.334769
C	0.000000	-1.435180	0.000000
H	1.066134	-1.993211	1.836691
H	0.091781	-9.615985	0.249906
C	0.000000	0.000000	0.000000
S	0.080615	0.895811	1.510732
C	0.216842	2.465231	0.727629
C	0.079127	0.904769	-1.064665
C	0.198659	2.288406	-0.678287
C	0.074988	0.838492	-2.486150
C	0.185097	2.098524	-3.106916
S	0.290501	3.341568	-1.965735
C	0.211932	2.351623	-4.559972
O	0.133545	1.421416	-5.350277
O	0.326994	3.629649	-5.004375
F	-0.018214	-0.271734	-3.246290
C	0.368367	3.986101	-6.334976
H	0.465270	5.086806	-6.370268
H	-0.553140	3.675878	-6.875609
H	1.229874	3.519263	-6.861878
H	0.297091	3.381746	1.321510
$end

$rem
JOBTYPE		SP
EXCHANGE	HF
CORRELATION	pRIMP2
BASIS		cc-pvtz
METHOD		rimp2
AUX_BASIS	rimp2-cc-pvtz
SOLVENT_METHOD	PCM
PURECART	11111
SYMMETRY	false
MEM_TOTAL	110000
SCF_CONVERGENCE = 6
THRESH=10
GUI = 2
$end

$solvent
dielectric 4.90
$end
--------------------------------------------------------------

             Standard Nuclear Orientation (Angstroms)
    I     Atom           X                Y                Z
 ----------------------------------------------------------------
    1      C       0.0924190000    -8.5197410000     0.2559290000
    2      C      -0.4493640000    -7.6359670000    -0.6660070000
    3      S       0.8857360000    -7.6517400000     1.5927080000
    4      C      -0.2548130000    -6.2618940000    -0.3323170000
    5      H      -0.9805260000    -7.9547380000    -1.5717410000
    6      C       0.4589650000    -6.0799850000     0.9043240000
    7      C       0.7678230000    -4.7983820000     1.3859680000
    8      C      -0.6819090000    -5.1535420000    -1.1183030000
    9      C      -0.3691390000    -3.8696260000    -0.6385140000
   10      C       0.3429160000    -3.6889270000     0.6008710000
   11      O      -1.3685440000    -5.4810750000    -2.2481320000
   12      O       1.4585700000    -4.4798710000     2.5202750000
   13      C       1.4053960000    -5.3560260000     3.6396370000
   14      H       1.8209400000    -4.7904960000     4.4953040000
   15      H       2.0231290000    -6.2685130000     3.4903360000
   16      H       0.3615950000    -5.6581870000     3.8733140000
   17      C      -1.4800480000    -4.5469990000    -3.3149340000
   18      H      -1.8992550000    -5.1075640000    -4.1718370000
   19      H      -0.4901230000    -4.1314730000    -3.6014730000
   20      H      -2.1715210000    -3.7120850000    -3.0689690000
   21      C       0.5376420000    -2.3143260000     0.9303080000
   22      S      -0.7858070000    -2.2954870000    -1.3347690000
   23      C       0.0000000000    -1.4351800000     0.0000000000
   24      H       1.0661340000    -1.9932110000     1.8366910000
   25      H       0.0917810000    -9.6159850000     0.2499060000
   26      C       0.0000000000     0.0000000000     0.0000000000
   27      S       0.0806150000     0.8958110000     1.5107320000
   28      C       0.2168420000     2.4652310000     0.7276290000
   29      C       0.0791270000     0.9047690000    -1.0646650000
   30      C       0.1986590000     2.2884060000    -0.6782870000
   31      C       0.0749880000     0.8384920000    -2.4861500000
   32      C       0.1850970000     2.0985240000    -3.1069160000
   33      S       0.2905010000     3.3415680000    -1.9657350000
   34      C       0.2119320000     2.3516230000    -4.5599720000
   35      O       0.1335450000     1.4214160000    -5.3502770000
   36      O       0.3269940000     3.6296490000    -5.0043750000
   37      F      -0.0182140000    -0.2717340000    -3.2462900000
   38      C       0.3683670000     3.9861010000    -6.3349760000
   39      H       0.4652700000     5.0868060000    -6.3702680000
   40      H      -0.5531400000     3.6758780000    -6.8756090000
   41      H       1.2298740000     3.5192630000    -6.8618780000
   42      H       0.2970910000     3.3817460000     1.3215100000
 ----------------------------------------------------------------

   10   -2754.2955473297      8.08e-07  Convergence criterion met
 Total energy in the final basis set =    -2754.2955473297
        RIMP2         total energy =     -2759.3506542950 a.u.

                    Orbital Energies (a.u.)
 --------------------------------------------------------------

 Alpha MOs
 -- Occupied --
-92.0156 -91.9946 -91.9873 -91.9865 -26.3344 -20.6119 -20.5922 -20.5916
-20.5496 -11.4100 -11.3781 -11.3188 -11.3187 -11.3136 -11.2971 -11.2970
-11.2964 -11.2925 -11.2884 -11.2866 -11.2862 -11.2858 -11.2841 -11.2820
-11.2802 -11.2617 -11.2595 -11.2594 -11.2500  -9.0139  -8.9986  -8.9880
 -8.9865  -6.6947  -6.6941  -6.6936  -6.6799  -6.6792  -6.6779  -6.6689
 -6.6682  -6.6674  -6.6672  -6.6668  -6.6660  -1.6488  -1.4716  -1.4160
 -1.4147  -1.3668  -1.2337  -1.1965  -1.1690  -1.1419  -1.0847  -1.0524
 -1.0477  -1.0282  -1.0025  -0.9938  -0.9720  -0.9609  -0.9501  -0.9383
 -0.8960  -0.8693  -0.8518  -0.8089  -0.7933  -0.7872  -0.7750  -0.7643
 -0.7584  -0.7327  -0.7193  -0.7165  -0.7007  -0.6884  -0.6839  -0.6784
 -0.6723  -0.6616  -0.6588  -0.6527  -0.6294  -0.6200  -0.6166  -0.6063
 -0.6014  -0.5947  -0.5879  -0.5730  -0.5690  -0.5675  -0.5575  -0.5523
 -0.5307  -0.5271  -0.5221  -0.5186  -0.5149  -0.5091  -0.5017  -0.4948
 -0.4871  -0.4829  -0.4803  -0.4665  -0.4616  -0.4607  -0.4600  -0.4206
 -0.3960  -0.3868  -0.3592  -0.3503  -0.3234  -0.2845  -0.2496

          Ground-State Mulliken Net Atomic Charges

     Atom                 Charge (a.u.)
  ----------------------------------------
      1 C                    -0.187290
      2 C                    -0.253962
      3 S                    -0.022601
      4 C                    -0.012897
      5 H                     0.196698
      6 C                    -0.030313
      7 C                     0.244863
      8 C                     0.239870
      9 C                    -0.045419
     10 C                    -0.028432
     11 O                    -0.333737
     12 O                    -0.340225
     13 C                    -0.085600
     14 H                     0.122526
     15 H                     0.091290
     16 H                     0.094178
     17 C                    -0.087806
     18 H                     0.124926
     19 H                     0.096115
     20 H                     0.089568
     21 C                    -0.243548
     22 S                    -0.004311
     23 C                     0.005553
     24 H                     0.193325
     25 H                     0.206644
     26 C                    -0.002424
     27 S                     0.098862
     28 C                    -0.236629
     29 C                    -0.092977
     30 C                    -0.017789
     31 C                     0.381986
     32 C                    -0.143932
     33 S                     0.036223
     34 C                     0.459800
     35 O                    -0.451691
     36 O                    -0.297945
     37 F                    -0.208978
     38 C                    -0.055099
     39 H                     0.116619
     40 H                     0.084368
     41 H                     0.084426
     42 H                     0.215763
  ----------------------------------------
  Sum of atomic charges =     0.000000

                    Cartesian Multipole Moments
 -----------------------------------------------------------------
    Charge (ESU x 10^10)
                -0.0000
    Dipole Moment (Debye)
         X       0.0390      Y       1.4556      Z       3.1632
       Tot       3.4823
    Quadrupole Moments (Debye-Ang)
        XX    -199.7760     XY       2.5547     YY    -159.0163
        XZ       6.0795     YZ     -11.2333     ZZ    -183.2047

 Total job time:  307.31s(wall), 10460.46s(cpu)
        *  Thank you very much for using Q-Chem.  Have a nice day.  *
