 Q-Chem 5.4, Q-Chem, Inc., Pleasanton, CA (2021)
 Q-Chem 5.4.0 for Intel X86 EM64T Linux

User input:
--------------------------------------------------------------
$molecule
0 1
C	0.047927	-8.519741	-0.267851
C	0.056157	-7.635967	0.801461
S	0.029285	-7.651740	-1.822194
C	0.054516	-6.261894	0.415201
H	0.063290	-7.954738	1.851431
C	0.054687	-6.079985	-1.012650
C	0.028030	-4.798382	-1.584194
C	0.031399	-5.153542	1.309433
C	0.000427	-3.869626	0.737539
C	0.003462	-3.688927	-0.691828
O	0.061128	-5.481075	2.631211
O	-0.003021	-4.479871	-2.911907
C	0.602710	-5.356026	-3.854716
H	0.670671	-4.790496	-4.803517
H	-0.006913	-6.268513	-4.034285
H	1.623507	-5.658187	-3.535185
C	-0.375708	-4.546999	3.610841
H	-0.441115	-5.107564	4.562544
H	-1.376277	-4.131473	3.364029
H	0.346107	-3.712085	3.743566
C	-0.000458	-2.314326	-1.074491
S	0.013144	-2.295487	1.548848
C	0.000000	-1.435180	0.000000
H	-0.004953	-1.993211	-2.123688
H	0.045468	-9.615985	-0.262315
C	0.000000	0.000000	0.000000
S	0.234946	0.868203	1.510732
C	0.641630	2.390125	0.727629
C	0.235036	0.877284	-1.064665
C	0.593019	2.219143	-0.678287
C	0.219452	0.812732	-2.486150
C	0.546689	2.034501	-3.106916
S	0.866345	3.240357	-1.965735
C	0.617067	2.279095	-4.559972
O	0.378342	1.376631	-5.350277
O	0.952308	3.517725	-5.004375
F	-0.065123	-0.264443	-3.246290
C	1.054950	3.861577	-6.334976
H	1.341516	4.928732	-6.370268
H	0.093573	3.716085	-6.875609
H	1.822303	3.252232	-6.861878
H	0.879812	3.278780	1.321510
$end

$rem
JOBTYPE		SP
EXCHANGE	HF
CORRELATION	pRIMP2
BASIS		cc-pvtz
METHOD		rimp2
AUX_BASIS	rimp2-cc-pvtz
SOLVENT_METHOD	PCM
PURECART	11111
SYMMETRY	false
MEM_TOTAL	110000
SCF_CONVERGENCE = 6
THRESH=10
GUI = 2
$end

$solvent
dielectric 4.90
$end
--------------------------------------------------------------

             Standard Nuclear Orientation (Angstroms)
    I     Atom           X                Y                Z
 ----------------------------------------------------------------
    1      C       0.0479270000    -8.5197410000    -0.2678510000
    2      C       0.0561570000    -7.6359670000     0.8014610000
    3      S       0.0292850000    -7.6517400000    -1.8221940000
    4      C       0.0545160000    -6.2618940000     0.4152010000
    5      H       0.0632900000    -7.9547380000     1.8514310000
    6      C       0.0546870000    -6.0799850000    -1.0126500000
    7      C       0.0280300000    -4.7983820000    -1.5841940000
    8      C       0.0313990000    -5.1535420000     1.3094330000
    9      C       0.0004270000    -3.8696260000     0.7375390000
   10      C       0.0034620000    -3.6889270000    -0.6918280000
   11      O       0.0611280000    -5.4810750000     2.6312110000
   12      O      -0.0030210000    -4.4798710000    -2.9119070000
   13      C       0.6027100000    -5.3560260000    -3.8547160000
   14      H       0.6706710000    -4.7904960000    -4.8035170000
   15      H      -0.0069130000    -6.2685130000    -4.0342850000
   16      H       1.6235070000    -5.6581870000    -3.5351850000
   17      C      -0.3757080000    -4.5469990000     3.6108410000
   18      H      -0.4411150000    -5.1075640000     4.5625440000
   19      H      -1.3762770000    -4.1314730000     3.3640290000
   20      H       0.3461070000    -3.7120850000     3.7435660000
   21      C      -0.0004580000    -2.3143260000    -1.0744910000
   22      S       0.0131440000    -2.2954870000     1.5488480000
   23      C       0.0000000000    -1.4351800000     0.0000000000
   24      H      -0.0049530000    -1.9932110000    -2.1236880000
   25      H       0.0454680000    -9.6159850000    -0.2623150000
   26      C       0.0000000000     0.0000000000     0.0000000000
   27      S       0.2349460000     0.8682030000     1.5107320000
   28      C       0.6416300000     2.3901250000     0.7276290000
   29      C       0.2350360000     0.8772840000    -1.0646650000
   30      C       0.5930190000     2.2191430000    -0.6782870000
   31      C       0.2194520000     0.8127320000    -2.4861500000
   32      C       0.5466890000     2.0345010000    -3.1069160000
   33      S       0.8663450000     3.2403570000    -1.9657350000
   34      C       0.6170670000     2.2790950000    -4.5599720000
   35      O       0.3783420000     1.3766310000    -5.3502770000
   36      O       0.9523080000     3.5177250000    -5.0043750000
   37      F      -0.0651230000    -0.2644430000    -3.2462900000
   38      C       1.0549500000     3.8615770000    -6.3349760000
   39      H       1.3415160000     4.9287320000    -6.3702680000
   40      H       0.0935730000     3.7160850000    -6.8756090000
   41      H       1.8223030000     3.2522320000    -6.8618780000
   42      H       0.8798120000     3.2787800000     1.3215100000
 ----------------------------------------------------------------

   10   -2754.2924155542      8.34e-07  Convergence criterion met
 Total energy in the final basis set =    -2754.2924155542
        RIMP2         total energy =     -2759.3492360581 a.u.

                    Orbital Energies (a.u.)
 --------------------------------------------------------------

 Alpha MOs
 -- Occupied --
-92.0161 -91.9958 -91.9905 -91.9869 -26.3388 -20.6120 -20.5930 -20.5914
-20.5499 -11.4103 -11.3789 -11.3200 -11.3191 -11.3129 -11.2980 -11.2973
-11.2964 -11.2934 -11.2885 -11.2878 -11.2878 -11.2854 -11.2846 -11.2815
-11.2805 -11.2618 -11.2602 -11.2561 -11.2504  -9.0147  -8.9998  -8.9912
 -8.9868  -6.6955  -6.6949  -6.6944  -6.6810  -6.6803  -6.6790  -6.6722
 -6.6715  -6.6705  -6.6678  -6.6672  -6.6663  -1.6534  -1.4718  -1.4171
 -1.4141  -1.3671  -1.2343  -1.1971  -1.1699  -1.1428  -1.0849  -1.0529
 -1.0486  -1.0285  -1.0037  -0.9941  -0.9728  -0.9610  -0.9508  -0.9385
 -0.8971  -0.8701  -0.8520  -0.8076  -0.7969  -0.7889  -0.7723  -0.7700
 -0.7579  -0.7333  -0.7223  -0.7202  -0.7017  -0.6900  -0.6850  -0.6786
 -0.6728  -0.6625  -0.6595  -0.6525  -0.6293  -0.6201  -0.6157  -0.6065
 -0.6002  -0.5948  -0.5883  -0.5761  -0.5693  -0.5603  -0.5539  -0.5477
 -0.5369  -0.5277  -0.5244  -0.5197  -0.5175  -0.5097  -0.5058  -0.4966
 -0.4860  -0.4846  -0.4797  -0.4674  -0.4620  -0.4614  -0.4586  -0.4251
 -0.3986  -0.3858  -0.3599  -0.3508  -0.3259  -0.2847  -0.2467

          Ground-State Mulliken Net Atomic Charges

     Atom                 Charge (a.u.)
  ----------------------------------------
      1 C                    -0.186703
      2 C                    -0.255363
      3 S                    -0.020363
      4 C                    -0.013521
      5 H                     0.196536
      6 C                    -0.029248
      7 C                     0.253737
      8 C                     0.242723
      9 C                    -0.038554
     10 C                    -0.031845
     11 O                    -0.333165
     12 O                    -0.339577
     13 C                    -0.086490
     14 H                     0.124444
     15 H                     0.091468
     16 H                     0.093890
     17 C                    -0.088701
     18 H                     0.126223
     19 H                     0.095059
     20 H                     0.089601
     21 C                    -0.222049
     22 S                    -0.043004
     23 C                    -0.037365
     24 H                     0.216360
     25 H                     0.206822
     26 C                     0.010491
     27 S                     0.090218
     28 C                    -0.240588
     29 C                    -0.076420
     30 C                    -0.019860
     31 C                     0.375157
     32 C                    -0.134105
     33 S                     0.041925
     34 C                     0.458990
     35 O                    -0.451326
     36 O                    -0.298001
     37 F                    -0.215829
     38 C                    -0.054915
     39 H                     0.116723
     40 H                     0.084547
     41 H                     0.084338
     42 H                     0.217741
  ----------------------------------------
  Sum of atomic charges =     0.000000

                    Cartesian Multipole Moments
 -----------------------------------------------------------------
    Charge (ESU x 10^10)
                 0.0000
    Dipole Moment (Debye)
         X       1.1769      Y       1.2755      Z       3.1589
       Tot       3.6043
    Quadrupole Moments (Debye-Ang)
        XX    -199.4881     XY       2.5547     YY    -158.0417
        XZ      -8.5533     YZ      -9.5185     ZZ    -182.4256

 Total job time:  303.53s(wall), 9962.72s(cpu)
        *  Thank you very much for using Q-Chem.  Have a nice day.  *
