 Q-Chem 5.4, Q-Chem, Inc., Pleasanton, CA (2021)
 Q-Chem 5.4.0 for Intel X86 EM64T Linux

User input:
--------------------------------------------------------------
$molecule
0 1
C	-0.272104	-8.519741	-0.000687
C	0.779533	-7.635967	-0.194476
S	-1.799596	-7.651740	0.287581
C	0.399427	-6.261894	-0.125787
H	1.812314	-7.954738	-0.383826
C	-1.006762	-6.079985	0.121989
C	-1.564994	-4.798382	0.247488
C	1.284087	-5.153542	-0.258303
C	0.726260	-3.869626	-0.128493
C	-0.681918	-3.688927	0.116725
O	2.580622	-5.481075	-0.517104
O	-2.867144	-4.479871	0.508622
C	-3.900814	-5.356026	0.075811
H	-4.847002	-4.790496	0.173640
H	-3.971794	-6.268513	0.707354
H	-3.763397	-5.658187	-0.984963
C	3.621225	-4.546999	-0.257016
H	4.569828	-5.107564	-0.357864
H	3.551910	-4.131473	0.771211
H	3.626592	-3.712085	-0.990913
C	-1.058088	-2.314326	0.187034
S	1.523035	-2.295487	-0.281899
C	0.000000	-1.435180	0.000000
H	-2.090565	-1.993211	0.373653
H	-0.266226	-9.615985	0.000773
C	0.000000	0.000000	0.000000
S	0.002233	0.899428	1.510732
C	0.001157	2.474749	0.727629
C	-0.000030	0.908223	-1.064665
C	-0.001545	2.297013	-0.678287
C	0.001624	0.841837	-2.486150
C	0.001494	2.106670	-3.106916
S	-0.001841	3.354171	-1.965735
C	0.006168	2.361146	-4.559972
O	0.009152	1.427646	-5.350277
O	0.009405	3.644337	-5.004375
F	0.005539	-0.272288	-3.246290
C	0.019554	4.003038	-6.334976
H	0.020155	5.108000	-6.370268
H	-0.871409	3.613681	-6.875609
H	0.918470	3.613062	-6.861878
H	0.001222	3.394771	1.321510
$end

$rem
JOBTYPE		SP
EXCHANGE	HF
CORRELATION	pRIMP2
BASIS		cc-pvtz
METHOD		rimp2
AUX_BASIS	rimp2-cc-pvtz
SOLVENT_METHOD	PCM
PURECART	11111
SYMMETRY	false
MEM_TOTAL	110000
SCF_CONVERGENCE = 6
THRESH=10
GUI = 2
$end

$solvent
dielectric 4.90
$end
--------------------------------------------------------------

             Standard Nuclear Orientation (Angstroms)
    I     Atom           X                Y                Z
 ----------------------------------------------------------------
    1      C      -0.2721040000    -8.5197410000    -0.0006870000
    2      C       0.7795330000    -7.6359670000    -0.1944760000
    3      S      -1.7995960000    -7.6517400000     0.2875810000
    4      C       0.3994270000    -6.2618940000    -0.1257870000
    5      H       1.8123140000    -7.9547380000    -0.3838260000
    6      C      -1.0067620000    -6.0799850000     0.1219890000
    7      C      -1.5649940000    -4.7983820000     0.2474880000
    8      C       1.2840870000    -5.1535420000    -0.2583030000
    9      C       0.7262600000    -3.8696260000    -0.1284930000
   10      C      -0.6819180000    -3.6889270000     0.1167250000
   11      O       2.5806220000    -5.4810750000    -0.5171040000
   12      O      -2.8671440000    -4.4798710000     0.5086220000
   13      C      -3.9008140000    -5.3560260000     0.0758110000
   14      H      -4.8470020000    -4.7904960000     0.1736400000
   15      H      -3.9717940000    -6.2685130000     0.7073540000
   16      H      -3.7633970000    -5.6581870000    -0.9849630000
   17      C       3.6212250000    -4.5469990000    -0.2570160000
   18      H       4.5698280000    -5.1075640000    -0.3578640000
   19      H       3.5519100000    -4.1314730000     0.7712110000
   20      H       3.6265920000    -3.7120850000    -0.9909130000
   21      C      -1.0580880000    -2.3143260000     0.1870340000
   22      S       1.5230350000    -2.2954870000    -0.2818990000
   23      C       0.0000000000    -1.4351800000     0.0000000000
   24      H      -2.0905650000    -1.9932110000     0.3736530000
   25      H      -0.2662260000    -9.6159850000     0.0007730000
   26      C       0.0000000000     0.0000000000     0.0000000000
   27      S       0.0022330000     0.8994280000     1.5107320000
   28      C       0.0011570000     2.4747490000     0.7276290000
   29      C      -0.0000300000     0.9082230000    -1.0646650000
   30      C      -0.0015450000     2.2970130000    -0.6782870000
   31      C       0.0016240000     0.8418370000    -2.4861500000
   32      C       0.0014940000     2.1066700000    -3.1069160000
   33      S      -0.0018410000     3.3541710000    -1.9657350000
   34      C       0.0061680000     2.3611460000    -4.5599720000
   35      O       0.0091520000     1.4276460000    -5.3502770000
   36      O       0.0094050000     3.6443370000    -5.0043750000
   37      F       0.0055390000    -0.2722880000    -3.2462900000
   38      C       0.0195540000     4.0030380000    -6.3349760000
   39      H       0.0201550000     5.1080000000    -6.3702680000
   40      H      -0.8714090000     3.6136810000    -6.8756090000
   41      H       0.9184700000     3.6130620000    -6.8618780000
   42      H       0.0012220000     3.3947710000     1.3215100000
 ----------------------------------------------------------------

   10   -2754.2953297029      8.83e-07  Convergence criterion met
 Total energy in the final basis set =    -2754.2953297029
        RIMP2         total energy =     -2759.3474525173 a.u.

                    Orbital Energies (a.u.)
 --------------------------------------------------------------

 Alpha MOs
 -- Occupied --
-92.0163 -91.9942 -91.9899 -91.9867 -26.3337 -20.6119 -20.5924 -20.5921
-20.5498 -11.4101 -11.3770 -11.3193 -11.3191 -11.3097 -11.2969 -11.2958
-11.2934 -11.2930 -11.2883 -11.2870 -11.2868 -11.2863 -11.2843 -11.2824
-11.2804 -11.2612 -11.2600 -11.2599 -11.2502  -9.0144  -8.9982  -8.9902
 -8.9866  -6.6951  -6.6945  -6.6941  -6.6795  -6.6788  -6.6775  -6.6711
 -6.6704  -6.6694  -6.6676  -6.6670  -6.6661  -1.6466  -1.4716  -1.4165
 -1.4148  -1.3669  -1.2328  -1.1962  -1.1683  -1.1415  -1.0841  -1.0524
 -1.0471  -1.0273  -1.0026  -0.9933  -0.9710  -0.9615  -0.9506  -0.9383
 -0.8960  -0.8688  -0.8509  -0.8054  -0.7900  -0.7886  -0.7741  -0.7678
 -0.7586  -0.7330  -0.7178  -0.7148  -0.7014  -0.6885  -0.6834  -0.6783
 -0.6707  -0.6604  -0.6593  -0.6529  -0.6310  -0.6203  -0.6172  -0.6062
 -0.6018  -0.5940  -0.5831  -0.5788  -0.5677  -0.5660  -0.5563  -0.5519
 -0.5343  -0.5260  -0.5246  -0.5162  -0.5142  -0.5079  -0.5011  -0.4947
 -0.4908  -0.4838  -0.4764  -0.4680  -0.4616  -0.4611  -0.4602  -0.4062
 -0.4012  -0.3874  -0.3577  -0.3485  -0.3151  -0.2889  -0.2596

          Ground-State Mulliken Net Atomic Charges

     Atom                 Charge (a.u.)
  ----------------------------------------
      1 C                    -0.186812
      2 C                    -0.254256
      3 S                    -0.021510
      4 C                    -0.012597
      5 H                     0.196636
      6 C                    -0.027805
      7 C                     0.247268
      8 C                     0.239201
      9 C                    -0.046643
     10 C                    -0.032902
     11 O                    -0.333103
     12 O                    -0.339892
     13 C                    -0.085684
     14 H                     0.122695
     15 H                     0.090949
     16 H                     0.094758
     17 C                    -0.086259
     18 H                     0.124772
     19 H                     0.094197
     20 H                     0.090451
     21 C                    -0.214256
     22 S                     0.002384
     23 C                    -0.047719
     24 H                     0.197198
     25 H                     0.206713
     26 C                    -0.020139
     27 S                     0.119969
     28 C                    -0.241181
     29 C                    -0.093107
     30 C                    -0.005808
     31 C                     0.397824
     32 C                    -0.159206
     33 S                     0.036831
     34 C                     0.460778
     35 O                    -0.450307
     36 O                    -0.297809
     37 F                    -0.210949
     38 C                    -0.055002
     39 H                     0.116511
     40 H                     0.084563
     41 H                     0.084466
     42 H                     0.214780
  ----------------------------------------
  Sum of atomic charges =     0.000000

                    Cartesian Multipole Moments
 -----------------------------------------------------------------
    Charge (ESU x 10^10)
                -0.0000
    Dipole Moment (Debye)
         X       0.0057      Y       1.4295      Z       3.0359
       Tot       3.3556
    Quadrupole Moments (Debye-Ang)
        XX    -176.4575     XY       0.8624     YY    -158.0075
        XZ       1.3991     YZ      -9.2582     ZZ    -206.6358

 Total job time:  336.77s(wall), 9855.59s(cpu)
        *  Thank you very much for using Q-Chem.  Have a nice day.  *
