 Q-Chem 5.4, Q-Chem, Inc., Pleasanton, CA (2021)
 Q-Chem 5.4.0 for Intel X86 EM64T Linux

User input:
--------------------------------------------------------------
$molecule
0 1
C	0.000687	-8.519741	-0.272104
C	0.194476	-7.635967	0.779533
S	-0.287581	-7.651740	-1.799596
C	0.125787	-6.261894	0.399427
H	0.383826	-7.954738	1.812314
C	-0.121989	-6.079985	-1.006762
C	-0.247488	-4.798382	-1.564994
C	0.258303	-5.153542	1.284087
C	0.128493	-3.869626	0.726260
C	-0.116725	-3.688927	-0.681918
O	0.517104	-5.481075	2.580622
O	-0.508622	-4.479871	-2.867144
C	-0.075811	-5.356026	-3.900814
H	-0.173640	-4.790496	-4.847002
H	-0.707354	-6.268513	-3.971794
H	0.984963	-5.658187	-3.763397
C	0.257016	-4.546999	3.621225
H	0.357864	-5.107564	4.569828
H	-0.771211	-4.131473	3.551910
H	0.990913	-3.712085	3.626592
C	-0.187034	-2.314326	-1.058088
S	0.281899	-2.295487	1.523035
C	0.000000	-1.435180	0.000000
H	-0.373653	-1.993211	-2.090565
H	-0.000773	-9.615985	-0.266226
C	0.000000	0.000000	0.000000
S	0.080615	0.895811	1.510732
C	0.216842	2.465231	0.727629
C	0.079127	0.904769	-1.064665
C	0.198659	2.288406	-0.678287
C	0.074988	0.838492	-2.486150
C	0.185097	2.098524	-3.106916
S	0.290501	3.341568	-1.965735
C	0.211932	2.351623	-4.559972
O	0.133545	1.421416	-5.350277
O	0.326994	3.629649	-5.004375
F	-0.018214	-0.271734	-3.246290
C	0.368367	3.986101	-6.334976
H	0.465270	5.086806	-6.370268
H	-0.553140	3.675878	-6.875609
H	1.229874	3.519263	-6.861878
H	0.297091	3.381746	1.321510
$end

$rem
JOBTYPE		SP
EXCHANGE	HF
CORRELATION	pRIMP2
BASIS		cc-pvtz
METHOD		rimp2
AUX_BASIS	rimp2-cc-pvtz
SOLVENT_METHOD	PCM
PURECART	11111
SYMMETRY	false
MEM_TOTAL	110000
SCF_CONVERGENCE = 6
THRESH=10
GUI = 2
$end

$solvent
dielectric 4.90
$end
--------------------------------------------------------------

             Standard Nuclear Orientation (Angstroms)
    I     Atom           X                Y                Z
 ----------------------------------------------------------------
    1      C       0.0006870000    -8.5197410000    -0.2721040000
    2      C       0.1944760000    -7.6359670000     0.7795330000
    3      S      -0.2875810000    -7.6517400000    -1.7995960000
    4      C       0.1257870000    -6.2618940000     0.3994270000
    5      H       0.3838260000    -7.9547380000     1.8123140000
    6      C      -0.1219890000    -6.0799850000    -1.0067620000
    7      C      -0.2474880000    -4.7983820000    -1.5649940000
    8      C       0.2583030000    -5.1535420000     1.2840870000
    9      C       0.1284930000    -3.8696260000     0.7262600000
   10      C      -0.1167250000    -3.6889270000    -0.6819180000
   11      O       0.5171040000    -5.4810750000     2.5806220000
   12      O      -0.5086220000    -4.4798710000    -2.8671440000
   13      C      -0.0758110000    -5.3560260000    -3.9008140000
   14      H      -0.1736400000    -4.7904960000    -4.8470020000
   15      H      -0.7073540000    -6.2685130000    -3.9717940000
   16      H       0.9849630000    -5.6581870000    -3.7633970000
   17      C       0.2570160000    -4.5469990000     3.6212250000
   18      H       0.3578640000    -5.1075640000     4.5698280000
   19      H      -0.7712110000    -4.1314730000     3.5519100000
   20      H       0.9909130000    -3.7120850000     3.6265920000
   21      C      -0.1870340000    -2.3143260000    -1.0580880000
   22      S       0.2818990000    -2.2954870000     1.5230350000
   23      C       0.0000000000    -1.4351800000     0.0000000000
   24      H      -0.3736530000    -1.9932110000    -2.0905650000
   25      H      -0.0007730000    -9.6159850000    -0.2662260000
   26      C       0.0000000000     0.0000000000     0.0000000000
   27      S       0.0806150000     0.8958110000     1.5107320000
   28      C       0.2168420000     2.4652310000     0.7276290000
   29      C       0.0791270000     0.9047690000    -1.0646650000
   30      C       0.1986590000     2.2884060000    -0.6782870000
   31      C       0.0749880000     0.8384920000    -2.4861500000
   32      C       0.1850970000     2.0985240000    -3.1069160000
   33      S       0.2905010000     3.3415680000    -1.9657350000
   34      C       0.2119320000     2.3516230000    -4.5599720000
   35      O       0.1335450000     1.4214160000    -5.3502770000
   36      O       0.3269940000     3.6296490000    -5.0043750000
   37      F      -0.0182140000    -0.2717340000    -3.2462900000
   38      C       0.3683670000     3.9861010000    -6.3349760000
   39      H       0.4652700000     5.0868060000    -6.3702680000
   40      H      -0.5531400000     3.6758780000    -6.8756090000
   41      H       1.2298740000     3.5192630000    -6.8618780000
   42      H       0.2970910000     3.3817460000     1.3215100000
 ----------------------------------------------------------------

   10   -2754.2967084649      8.35e-07  Convergence criterion met
 Total energy in the final basis set =    -2754.2967084649
        RIMP2         total energy =     -2759.3517985683 a.u.

                    Orbital Energies (a.u.)
 --------------------------------------------------------------

 Alpha MOs
 -- Occupied --
-92.0161 -91.9950 -91.9913 -91.9872 -26.3384 -20.6117 -20.5932 -20.5918
-20.5493 -11.4098 -11.3789 -11.3203 -11.3198 -11.3147 -11.2976 -11.2965
-11.2962 -11.2915 -11.2885 -11.2883 -11.2879 -11.2855 -11.2849 -11.2810
-11.2807 -11.2623 -11.2608 -11.2579 -11.2506  -9.0146  -8.9990  -8.9919
 -8.9871  -6.6953  -6.6948  -6.6943  -6.6802  -6.6795  -6.6782  -6.6729
 -6.6722  -6.6712  -6.6681  -6.6675  -6.6666  -1.6528  -1.4715  -1.4173
 -1.4145  -1.3667  -1.2337  -1.1976  -1.1700  -1.1425  -1.0851  -1.0533
 -1.0483  -1.0281  -1.0041  -0.9943  -0.9725  -0.9613  -0.9510  -0.9385
 -0.8974  -0.8696  -0.8525  -0.8075  -0.7965  -0.7891  -0.7725  -0.7698
 -0.7582  -0.7334  -0.7215  -0.7199  -0.7020  -0.6898  -0.6851  -0.6784
 -0.6725  -0.6625  -0.6598  -0.6528  -0.6298  -0.6204  -0.6161  -0.6062
 -0.5997  -0.5939  -0.5888  -0.5766  -0.5694  -0.5601  -0.5538  -0.5489
 -0.5373  -0.5274  -0.5236  -0.5205  -0.5177  -0.5099  -0.5055  -0.4964
 -0.4861  -0.4843  -0.4804  -0.4679  -0.4621  -0.4612  -0.4588  -0.4245
 -0.3988  -0.3863  -0.3601  -0.3508  -0.3259  -0.2848  -0.2474

          Ground-State Mulliken Net Atomic Charges

     Atom                 Charge (a.u.)
  ----------------------------------------
      1 C                    -0.185829
      2 C                    -0.255282
      3 S                    -0.019669
      4 C                    -0.012165
      5 H                     0.196545
      6 C                    -0.029434
      7 C                     0.253977
      8 C                     0.241291
      9 C                    -0.036681
     10 C                    -0.039403
     11 O                    -0.333188
     12 O                    -0.339151
     13 C                    -0.086454
     14 H                     0.124532
     15 H                     0.091508
     16 H                     0.094164
     17 C                    -0.088433
     18 H                     0.126047
     19 H                     0.095098
     20 H                     0.089674
     21 C                    -0.201824
     22 S                    -0.041467
     23 C                    -0.034152
     24 H                     0.210802
     25 H                     0.206988
     26 C                    -0.026669
     27 S                     0.082473
     28 C                    -0.242627
     29 C                    -0.052812
     30 C                    -0.020372
     31 C                     0.395481
     32 C                    -0.140285
     33 S                     0.035950
     34 C                     0.461360
     35 O                    -0.452559
     36 O                    -0.298018
     37 F                    -0.217218
     38 C                    -0.055150
     39 H                     0.116674
     40 H                     0.084434
     41 H                     0.084331
     42 H                     0.217513
  ----------------------------------------
  Sum of atomic charges =     0.000000

                    Cartesian Multipole Moments
 -----------------------------------------------------------------
    Charge (ESU x 10^10)
                 0.0000
    Dipole Moment (Debye)
         X       0.5363      Y       1.0660      Z       3.1480
       Tot       3.3666
    Quadrupole Moments (Debye-Ang)
        XX    -201.7426     XY       0.0707     YY    -156.3965
        XZ      -2.4118     YZ      -9.3404     ZZ    -181.3979

 Total job time:  301.53s(wall), 9348.66s(cpu)
        *  Thank you very much for using Q-Chem.  Have a nice day.  *
