 Q-Chem 5.4, Q-Chem, Inc., Pleasanton, CA (2021)
 Q-Chem 5.4.0 for Intel X86 EM64T Linux

User input:
--------------------------------------------------------------
$molecule
0 1
C	1.432238	-8.398629	0.267851
C	1.270668	-7.529711	-0.801461
S	1.299871	-7.540578	1.822194
C	1.033679	-6.176229	-0.415201
H	1.318997	-7.844878	-1.851431
C	1.001923	-5.997113	1.012650
C	0.805626	-4.730351	1.584194
C	0.863981	-5.080701	-1.309433
C	0.671533	-3.810912	-0.737539
C	0.637166	-3.633485	0.691828
O	0.891580	-5.408420	-2.631211
O	0.780896	-4.411287	2.911907
C	0.336511	-5.379315	3.854716
H	0.171379	-4.834178	4.803517
H	1.095324	-6.172080	4.034285
H	-0.616308	-5.854145	3.535185
C	1.159578	-4.412679	-3.610841
H	1.321333	-4.953370	-4.562544
H	2.072791	-3.829719	-3.364029
H	0.303747	-3.715791	-3.743566
C	0.402329	-2.279087	1.074491
S	0.385663	-2.262896	-1.548848
C	0.249216	-1.413377	-0.000000
H	0.350996	-1.962069	2.123688
H	1.625021	-9.477792	0.262315
C	0.000000	0.000000	0.000000
S	0.579852	0.687566	1.510732
C	1.591625	1.895024	0.727629
C	0.583771	0.695758	-1.064665
C	1.475308	1.760606	-0.678287
C	0.542366	0.643841	-2.486150
C	1.355286	1.612843	-3.106916
S	2.154609	2.570627	-1.965735
C	1.522440	1.804778	-4.559972
O	0.924684	1.087757	-5.350277
O	2.349739	2.785679	-5.004375
F	-0.170780	-0.212144	-3.246290
C	2.588082	3.053936	-6.334976
H	3.298799	3.899999	-6.370268
H	1.655291	3.328371	-6.875609
H	3.026021	2.177385	-6.861878
H	2.183053	2.599759	1.321510
$end

$rem
JOBTYPE		SP
EXCHANGE	HF
CORRELATION	pRIMP2
BASIS		cc-pvtz
METHOD		rimp2
AUX_BASIS	rimp2-cc-pvtz
SOLVENT_METHOD	PCM
PURECART	11111
SYMMETRY	false
MEM_TOTAL	110000
SCF_CONVERGENCE = 6
THRESH=10
GUI = 2
$end

$solvent
dielectric 4.90
$end
--------------------------------------------------------------

             Standard Nuclear Orientation (Angstroms)
    I     Atom           X                Y                Z
 ----------------------------------------------------------------
    1      C       1.4322380000    -8.3986290000     0.2678510000
    2      C       1.2706680000    -7.5297110000    -0.8014610000
    3      S       1.2998710000    -7.5405780000     1.8221940000
    4      C       1.0336790000    -6.1762290000    -0.4152010000
    5      H       1.3189970000    -7.8448780000    -1.8514310000
    6      C       1.0019230000    -5.9971130000     1.0126500000
    7      C       0.8056260000    -4.7303510000     1.5841940000
    8      C       0.8639810000    -5.0807010000    -1.3094330000
    9      C       0.6715330000    -3.8109120000    -0.7375390000
   10      C       0.6371660000    -3.6334850000     0.6918280000
   11      O       0.8915800000    -5.4084200000    -2.6312110000
   12      O       0.7808960000    -4.4112870000     2.9119070000
   13      C       0.3365110000    -5.3793150000     3.8547160000
   14      H       0.1713790000    -4.8341780000     4.8035170000
   15      H       1.0953240000    -6.1720800000     4.0342850000
   16      H      -0.6163080000    -5.8541450000     3.5351850000
   17      C       1.1595780000    -4.4126790000    -3.6108410000
   18      H       1.3213330000    -4.9533700000    -4.5625440000
   19      H       2.0727910000    -3.8297190000    -3.3640290000
   20      H       0.3037470000    -3.7157910000    -3.7435660000
   21      C       0.4023290000    -2.2790870000     1.0744910000
   22      S       0.3856630000    -2.2628960000    -1.5488480000
   23      C       0.2492160000    -1.4133770000     0.0000000000
   24      H       0.3509960000    -1.9620690000     2.1236880000
   25      H       1.6250210000    -9.4777920000     0.2623150000
   26      C       0.0000000000     0.0000000000     0.0000000000
   27      S       0.5798520000     0.6875660000     1.5107320000
   28      C       1.5916250000     1.8950240000     0.7276290000
   29      C       0.5837710000     0.6957580000    -1.0646650000
   30      C       1.4753080000     1.7606060000    -0.6782870000
   31      C       0.5423660000     0.6438410000    -2.4861500000
   32      C       1.3552860000     1.6128430000    -3.1069160000
   33      S       2.1546090000     2.5706270000    -1.9657350000
   34      C       1.5224400000     1.8047780000    -4.5599720000
   35      O       0.9246840000     1.0877570000    -5.3502770000
   36      O       2.3497390000     2.7856790000    -5.0043750000
   37      F      -0.1707800000    -0.2121440000    -3.2462900000
   38      C       2.5880820000     3.0539360000    -6.3349760000
   39      H       3.2987990000     3.8999990000    -6.3702680000
   40      H       1.6552910000     3.3283710000    -6.8756090000
   41      H       3.0260210000     2.1773850000    -6.8618780000
   42      H       2.1830530000     2.5997590000     1.3215100000
 ----------------------------------------------------------------

   11   -2754.2455222842      5.68e-07  Convergence criterion met
 Total energy in the final basis set =    -2754.2455222842
        RIMP2         total energy =     -2759.3164251168 a.u.

                    Orbital Energies (a.u.)
 --------------------------------------------------------------

 Alpha MOs
 -- Occupied --
-92.0153 -92.0055 -91.9827 -91.9807 -26.3365 -20.6163 -20.5896 -20.5870
-20.5573 -11.4166 -11.3787 -11.3204 -11.3159 -11.3118 -11.3094 -11.3019
-11.2969 -11.2954 -11.2908 -11.2889 -11.2844 -11.2839 -11.2804 -11.2771
-11.2742 -11.2570 -11.2516 -11.2471 -11.2393  -9.0145  -9.0090  -8.9826
 -8.9821  -6.6951  -6.6943  -6.6941  -6.6902  -6.6896  -6.6883  -6.6636
 -6.6630  -6.6629  -6.6623  -6.6622  -6.6612  -1.6521  -1.4765  -1.4135
 -1.4099  -1.3727  -1.2435  -1.1919  -1.1693  -1.1440  -1.0845  -1.0523
 -1.0467  -1.0342  -0.9985  -0.9919  -0.9764  -0.9569  -0.9473  -0.9390
 -0.8920  -0.8764  -0.8454  -0.8107  -0.7970  -0.7866  -0.7763  -0.7618
 -0.7546  -0.7293  -0.7236  -0.7182  -0.6982  -0.6916  -0.6825  -0.6802
 -0.6777  -0.6630  -0.6559  -0.6496  -0.6253  -0.6163  -0.6140  -0.6116
 -0.6067  -0.6038  -0.5856  -0.5692  -0.5664  -0.5618  -0.5555  -0.5513
 -0.5341  -0.5245  -0.5209  -0.5186  -0.5120  -0.5070  -0.5036  -0.4935
 -0.4874  -0.4823  -0.4757  -0.4668  -0.4647  -0.4610  -0.4519  -0.4251
 -0.3888  -0.3837  -0.3604  -0.3495  -0.3231  -0.2866  -0.2422

          Ground-State Mulliken Net Atomic Charges

     Atom                 Charge (a.u.)
  ----------------------------------------
      1 C                    -0.199690
      2 C                    -0.252635
      3 S                    -0.029455
      4 C                    -0.024173
      5 H                     0.195243
      6 C                    -0.023389
      7 C                     0.226624
      8 C                     0.244572
      9 C                    -0.047539
     10 C                    -0.007122
     11 O                    -0.333752
     12 O                    -0.342598
     13 C                    -0.085448
     14 H                     0.120687
     15 H                     0.090035
     16 H                     0.092801
     17 C                    -0.088184
     18 H                     0.124763
     19 H                     0.093183
     20 H                     0.091586
     21 C                    -0.283324
     22 S                    -0.038098
     23 C                     0.005089
     24 H                     0.181592
     25 H                     0.204443
     26 C                    -0.076937
     27 S                     0.116368
     28 C                    -0.157263
     29 C                    -0.012565
     30 C                    -0.042562
     31 C                     0.322582
     32 C                    -0.105123
     33 S                     0.071326
     34 C                     0.456920
     35 O                    -0.439487
     36 O                    -0.296598
     37 F                    -0.208238
     38 C                    -0.054466
     39 H                     0.117694
     40 H                     0.085764
     41 H                     0.085470
     42 H                     0.221903
  ----------------------------------------
  Sum of atomic charges =     0.000000

                    Cartesian Multipole Moments
 -----------------------------------------------------------------
    Charge (ESU x 10^10)
                 0.0000
    Dipole Moment (Debye)
         X       3.3437      Y       4.2660      Z       1.9888
       Tot       5.7736
    Quadrupole Moments (Debye-Ang)
        XX    -192.0895     XY       9.2230     YY    -175.2413
        XZ     -13.8481     YZ      -9.0153     ZZ    -179.3784

 Total job time:  335.87s(wall), 10428.06s(cpu)
        *  Thank you very much for using Q-Chem.  Have a nice day.  *
