 Q-Chem 5.4, Q-Chem, Inc., Pleasanton, CA (2021)
 Q-Chem 5.4.0 for Intel X86 EM64T Linux

User input:
--------------------------------------------------------------
$molecule
0 1
C	0.208886	-8.519741	-0.174379
C	-0.472151	-7.635967	0.650052
S	1.193717	-7.651740	-1.377058
C	-0.225125	-6.261894	0.353105
H	-1.141594	-7.954738	1.458961
C	0.692811	-6.079985	-0.740583
C	1.039773	-4.798382	-1.195546
C	-0.817634	-5.153542	1.023267
C	-0.473754	-3.869626	0.565262
C	0.447350	-3.688927	-0.527745
O	-1.644483	-5.481075	2.054917
O	1.869424	-4.479871	-2.232592
C	2.939466	-5.356026	-2.565470
H	3.601405	-4.790496	-3.248608
H	2.587892	-6.268513	-3.094885
H	3.516052	-5.658187	-1.664539
C	-2.608813	-4.546999	2.524564
H	-3.270661	-5.107564	3.211568
H	-3.216646	-4.131473	1.692342
H	-2.141184	-3.712085	3.090211
C	0.690319	-2.314326	-0.823402
S	-0.985511	-2.295487	1.194935
C	0.000000	-1.435180	0.000000
H	1.361286	-1.993211	-1.630024
H	0.203444	-9.615985	-0.171719
C	0.000000	0.000000	0.000000
S	0.002233	0.899428	1.510732
C	0.001157	2.474749	0.727629
C	-0.000030	0.908223	-1.064665
C	-0.001545	2.297013	-0.678287
C	0.001624	0.841837	-2.486150
C	0.001494	2.106670	-3.106916
S	-0.001841	3.354171	-1.965735
C	0.006168	2.361146	-4.559972
O	0.009152	1.427646	-5.350277
O	0.009405	3.644337	-5.004375
F	0.005539	-0.272288	-3.246290
C	0.019554	4.003038	-6.334976
H	0.020155	5.108000	-6.370268
H	-0.871409	3.613681	-6.875609
H	0.918470	3.613062	-6.861878
H	0.001222	3.394771	1.321510
$end

$rem
JOBTYPE		SP
EXCHANGE	HF
CORRELATION	pRIMP2
BASIS		cc-pvtz
METHOD		rimp2
AUX_BASIS	rimp2-cc-pvtz
SOLVENT_METHOD	PCM
PURECART	11111
SYMMETRY	false
MEM_TOTAL	110000
SCF_CONVERGENCE = 6
THRESH=10
GUI = 2
$end

$solvent
dielectric 4.90
$end
--------------------------------------------------------------

             Standard Nuclear Orientation (Angstroms)
    I     Atom           X                Y                Z
 ----------------------------------------------------------------
    1      C       0.2088860000    -8.5197410000    -0.1743790000
    2      C      -0.4721510000    -7.6359670000     0.6500520000
    3      S       1.1937170000    -7.6517400000    -1.3770580000
    4      C      -0.2251250000    -6.2618940000     0.3531050000
    5      H      -1.1415940000    -7.9547380000     1.4589610000
    6      C       0.6928110000    -6.0799850000    -0.7405830000
    7      C       1.0397730000    -4.7983820000    -1.1955460000
    8      C      -0.8176340000    -5.1535420000     1.0232670000
    9      C      -0.4737540000    -3.8696260000     0.5652620000
   10      C       0.4473500000    -3.6889270000    -0.5277450000
   11      O      -1.6444830000    -5.4810750000     2.0549170000
   12      O       1.8694240000    -4.4798710000    -2.2325920000
   13      C       2.9394660000    -5.3560260000    -2.5654700000
   14      H       3.6014050000    -4.7904960000    -3.2486080000
   15      H       2.5878920000    -6.2685130000    -3.0948850000
   16      H       3.5160520000    -5.6581870000    -1.6645390000
   17      C      -2.6088130000    -4.5469990000     2.5245640000
   18      H      -3.2706610000    -5.1075640000     3.2115680000
   19      H      -3.2166460000    -4.1314730000     1.6923420000
   20      H      -2.1411840000    -3.7120850000     3.0902110000
   21      C       0.6903190000    -2.3143260000    -0.8234020000
   22      S      -0.9855110000    -2.2954870000     1.1949350000
   23      C       0.0000000000    -1.4351800000     0.0000000000
   24      H       1.3612860000    -1.9932110000    -1.6300240000
   25      H       0.2034440000    -9.6159850000    -0.1717190000
   26      C       0.0000000000     0.0000000000     0.0000000000
   27      S       0.0022330000     0.8994280000     1.5107320000
   28      C       0.0011570000     2.4747490000     0.7276290000
   29      C      -0.0000300000     0.9082230000    -1.0646650000
   30      C      -0.0015450000     2.2970130000    -0.6782870000
   31      C       0.0016240000     0.8418370000    -2.4861500000
   32      C       0.0014940000     2.1066700000    -3.1069160000
   33      S      -0.0018410000     3.3541710000    -1.9657350000
   34      C       0.0061680000     2.3611460000    -4.5599720000
   35      O       0.0091520000     1.4276460000    -5.3502770000
   36      O       0.0094050000     3.6443370000    -5.0043750000
   37      F       0.0055390000    -0.2722880000    -3.2462900000
   38      C       0.0195540000     4.0030380000    -6.3349760000
   39      H       0.0201550000     5.1080000000    -6.3702680000
   40      H      -0.8714090000     3.6136810000    -6.8756090000
   41      H       0.9184700000     3.6130620000    -6.8618780000
   42      H       0.0012220000     3.3947710000     1.3215100000
 ----------------------------------------------------------------

   10   -2754.2986526323      7.80e-07  Convergence criterion met
 Total energy in the final basis set =    -2754.2986526323
        RIMP2         total energy =     -2759.3518243654 a.u.

                    Orbital Energies (a.u.)
 --------------------------------------------------------------

 Alpha MOs
 -- Occupied --
-92.0161 -91.9943 -91.9918 -91.9870 -26.3345 -20.6116 -20.5931 -20.5918
-20.5492 -11.4096 -11.3776 -11.3202 -11.3194 -11.3132 -11.2968 -11.2959
-11.2958 -11.2922 -11.2882 -11.2879 -11.2878 -11.2860 -11.2848 -11.2814
-11.2807 -11.2623 -11.2604 -11.2596 -11.2505  -9.0144  -8.9983  -8.9922
 -8.9869  -6.6951  -6.6946  -6.6941  -6.6796  -6.6789  -6.6776  -6.6732
 -6.6725  -6.6715  -6.6679  -6.6673  -6.6664  -1.6476  -1.4713  -1.4172
 -1.4146  -1.3665  -1.2332  -1.1972  -1.1694  -1.1421  -1.0848  -1.0531
 -1.0476  -1.0275  -1.0035  -0.9939  -0.9716  -0.9617  -0.9510  -0.9385
 -0.8970  -0.8690  -0.8516  -0.8042  -0.7939  -0.7884  -0.7727  -0.7697
 -0.7583  -0.7332  -0.7189  -0.7157  -0.7020  -0.6887  -0.6838  -0.6781
 -0.6711  -0.6615  -0.6597  -0.6529  -0.6301  -0.6205  -0.6169  -0.6059
 -0.6013  -0.5937  -0.5868  -0.5762  -0.5706  -0.5636  -0.5530  -0.5497
 -0.5372  -0.5263  -0.5258  -0.5171  -0.5156  -0.5085  -0.5041  -0.4969
 -0.4890  -0.4837  -0.4775  -0.4693  -0.4617  -0.4610  -0.4596  -0.4190
 -0.3979  -0.3869  -0.3590  -0.3502  -0.3231  -0.2855  -0.2520

          Ground-State Mulliken Net Atomic Charges

     Atom                 Charge (a.u.)
  ----------------------------------------
      1 C                    -0.186517
      2 C                    -0.254329
      3 S                    -0.020104
      4 C                    -0.013049
      5 H                     0.196571
      6 C                    -0.029200
      7 C                     0.248261
      8 C                     0.238929
      9 C                    -0.042730
     10 C                    -0.034825
     11 O                    -0.333157
     12 O                    -0.338351
     13 C                    -0.085969
     14 H                     0.123444
     15 H                     0.091313
     16 H                     0.093862
     17 C                    -0.087402
     18 H                     0.125539
     19 H                     0.095456
     20 H                     0.089430
     21 C                    -0.206345
     22 S                    -0.019030
     23 C                    -0.021793
     24 H                     0.195833
     25 H                     0.206839
     26 C                    -0.022861
     27 S                     0.101968
     28 C                    -0.244400
     29 C                    -0.079611
     30 C                    -0.010483
     31 C                     0.390258
     32 C                    -0.147810
     33 S                     0.035711
     34 C                     0.460704
     35 O                    -0.451589
     36 O                    -0.298103
     37 F                    -0.212603
     38 C                    -0.055030
     39 H                     0.116499
     40 H                     0.084561
     41 H                     0.084260
     42 H                     0.215852
  ----------------------------------------
  Sum of atomic charges =     0.000000

                    Cartesian Multipole Moments
 -----------------------------------------------------------------
    Charge (ESU x 10^10)
                 0.0000
    Dipole Moment (Debye)
         X       0.2017      Y       1.1851      Z       3.4418
       Tot       3.6457
    Quadrupole Moments (Debye-Ang)
        XX    -185.4621     XY      -1.4350     YY    -157.0354
        XZ     -12.3415     YZ     -10.9476     ZZ    -197.8814

 Total job time:  301.69s(wall), 10322.72s(cpu)
        *  Thank you very much for using Q-Chem.  Have a nice day.  *
