 Q-Chem 5.4, Q-Chem, Inc., Pleasanton, CA (2021)
 Q-Chem 5.4.0 for Intel X86 EM64T Linux

User input:
--------------------------------------------------------------
$molecule
0 1
C	0.175432	-8.519741	-0.208002
C	-0.352097	-7.635967	0.722164
S	0.936458	-7.651740	-1.563424
C	-0.160388	-6.261894	0.386833
H	-0.870905	-7.954738	1.635031
C	0.553685	-6.079985	-0.849637
C	0.816372	-4.798382	-1.357938
C	-0.627524	-5.153542	1.149702
C	-0.368399	-3.869626	0.638941
C	0.348912	-3.688927	-0.597409
O	-1.262667	-5.481075	2.309260
O	1.453338	-4.479871	-2.523296
C	2.449320	-5.356026	-3.036927
H	2.982577	-4.790496	-3.824632
H	2.011155	-6.268513	-3.497250
H	3.173591	-5.658187	-2.249807
C	-2.130793	-4.546999	2.939226
H	-2.663289	-5.107564	3.730721
H	-2.873906	-4.131473	2.225196
H	-1.572045	-3.712085	3.415077
C	0.536849	-2.314326	-0.930765
S	-0.763041	-2.295487	1.347913
C	0.000000	-1.435180	0.000000
H	1.057554	-1.993211	-1.841645
H	0.170535	-9.615985	-0.204438
C	0.000000	0.000000	0.000000
S	0.234946	0.868203	1.510732
C	0.641630	2.390125	0.727629
C	0.235036	0.877284	-1.064665
C	0.593019	2.219143	-0.678287
C	0.219452	0.812732	-2.486150
C	0.546689	2.034501	-3.106916
S	0.866345	3.240357	-1.965735
C	0.617067	2.279095	-4.559972
O	0.378342	1.376631	-5.350277
O	0.952308	3.517725	-5.004375
F	-0.065123	-0.264443	-3.246290
C	1.054950	3.861577	-6.334976
H	1.341516	4.928732	-6.370268
H	0.093573	3.716085	-6.875609
H	1.822303	3.252232	-6.861878
H	0.879812	3.278780	1.321510
$end

$rem
JOBTYPE		SP
EXCHANGE	HF
CORRELATION	pRIMP2
BASIS		cc-pvtz
METHOD		rimp2
AUX_BASIS	rimp2-cc-pvtz
SOLVENT_METHOD	PCM
PURECART	11111
SYMMETRY	false
MEM_TOTAL	110000
SCF_CONVERGENCE = 6
THRESH=10
GUI = 2
$end

$solvent
dielectric 4.90
$end
--------------------------------------------------------------

             Standard Nuclear Orientation (Angstroms)
    I     Atom           X                Y                Z
 ----------------------------------------------------------------
    1      C       0.1754320000    -8.5197410000    -0.2080020000
    2      C      -0.3520970000    -7.6359670000     0.7221640000
    3      S       0.9364580000    -7.6517400000    -1.5634240000
    4      C      -0.1603880000    -6.2618940000     0.3868330000
    5      H      -0.8709050000    -7.9547380000     1.6350310000
    6      C       0.5536850000    -6.0799850000    -0.8496370000
    7      C       0.8163720000    -4.7983820000    -1.3579380000
    8      C      -0.6275240000    -5.1535420000     1.1497020000
    9      C      -0.3683990000    -3.8696260000     0.6389410000
   10      C       0.3489120000    -3.6889270000    -0.5974090000
   11      O      -1.2626670000    -5.4810750000     2.3092600000
   12      O       1.4533380000    -4.4798710000    -2.5232960000
   13      C       2.4493200000    -5.3560260000    -3.0369270000
   14      H       2.9825770000    -4.7904960000    -3.8246320000
   15      H       2.0111550000    -6.2685130000    -3.4972500000
   16      H       3.1735910000    -5.6581870000    -2.2498070000
   17      C      -2.1307930000    -4.5469990000     2.9392260000
   18      H      -2.6632890000    -5.1075640000     3.7307210000
   19      H      -2.8739060000    -4.1314730000     2.2251960000
   20      H      -1.5720450000    -3.7120850000     3.4150770000
   21      C       0.5368490000    -2.3143260000    -0.9307650000
   22      S      -0.7630410000    -2.2954870000     1.3479130000
   23      C       0.0000000000    -1.4351800000     0.0000000000
   24      H       1.0575540000    -1.9932110000    -1.8416450000
   25      H       0.1705350000    -9.6159850000    -0.2044380000
   26      C       0.0000000000     0.0000000000     0.0000000000
   27      S       0.2349460000     0.8682030000     1.5107320000
   28      C       0.6416300000     2.3901250000     0.7276290000
   29      C       0.2350360000     0.8772840000    -1.0646650000
   30      C       0.5930190000     2.2191430000    -0.6782870000
   31      C       0.2194520000     0.8127320000    -2.4861500000
   32      C       0.5466890000     2.0345010000    -3.1069160000
   33      S       0.8663450000     3.2403570000    -1.9657350000
   34      C       0.6170670000     2.2790950000    -4.5599720000
   35      O       0.3783420000     1.3766310000    -5.3502770000
   36      O       0.9523080000     3.5177250000    -5.0043750000
   37      F      -0.0651230000    -0.2644430000    -3.2462900000
   38      C       1.0549500000     3.8615770000    -6.3349760000
   39      H       1.3415160000     4.9287320000    -6.3702680000
   40      H       0.0935730000     3.7160850000    -6.8756090000
   41      H       1.8223030000     3.2522320000    -6.8618780000
   42      H       0.8798120000     3.2787800000     1.3215100000
 ----------------------------------------------------------------

   10   -2754.2951442525      7.93e-07  Convergence criterion met
 Total energy in the final basis set =    -2754.2951442525
        RIMP2         total energy =     -2759.3503378734 a.u.

                    Orbital Energies (a.u.)
 --------------------------------------------------------------

 Alpha MOs
 -- Occupied --
-92.0161 -91.9954 -91.9906 -91.9869 -26.3354 -20.6119 -20.5930 -20.5916
-20.5497 -11.4101 -11.3779 -11.3200 -11.3191 -11.3115 -11.2975 -11.2970
-11.2963 -11.2942 -11.2884 -11.2878 -11.2876 -11.2857 -11.2846 -11.2817
-11.2805 -11.2622 -11.2601 -11.2587 -11.2504  -9.0146  -8.9993  -8.9912
 -8.9868  -6.6953  -6.6947  -6.6942  -6.6806  -6.6799  -6.6786  -6.6722
 -6.6715  -6.6705  -6.6677  -6.6671  -6.6663  -1.6488  -1.4716  -1.4171
 -1.4143  -1.3669  -1.2340  -1.1971  -1.1695  -1.1426  -1.0848  -1.0529
 -1.0481  -1.0281  -1.0033  -0.9939  -0.9721  -0.9614  -0.9508  -0.9386
 -0.8969  -0.8696  -0.8511  -0.8045  -0.7950  -0.7884  -0.7726  -0.7700
 -0.7580  -0.7332  -0.7198  -0.7168  -0.7019  -0.6891  -0.6836  -0.6784
 -0.6720  -0.6619  -0.6596  -0.6527  -0.6294  -0.6203  -0.6165  -0.6063
 -0.6019  -0.5944  -0.5863  -0.5760  -0.5705  -0.5627  -0.5532  -0.5499
 -0.5362  -0.5264  -0.5259  -0.5170  -0.5165  -0.5088  -0.5049  -0.4971
 -0.4880  -0.4843  -0.4778  -0.4686  -0.4618  -0.4612  -0.4595  -0.4209
 -0.3980  -0.3863  -0.3591  -0.3507  -0.3244  -0.2852  -0.2500

          Ground-State Mulliken Net Atomic Charges

     Atom                 Charge (a.u.)
  ----------------------------------------
      1 C                    -0.187107
      2 C                    -0.254340
      3 S                    -0.019970
      4 C                    -0.014714
      5 H                     0.196450
      6 C                    -0.029626
      7 C                     0.246284
      8 C                     0.242508
      9 C                    -0.041042
     10 C                    -0.033022
     11 O                    -0.333324
     12 O                    -0.338432
     13 C                    -0.086055
     14 H                     0.123502
     15 H                     0.091405
     16 H                     0.093838
     17 C                    -0.087565
     18 H                     0.125797
     19 H                     0.095421
     20 H                     0.089242
     21 C                    -0.194526
     22 S                    -0.028516
     23 C                    -0.005970
     24 H                     0.195533
     25 H                     0.206768
     26 C                    -0.027250
     27 S                     0.110021
     28 C                    -0.246573
     29 C                    -0.103248
     30 C                    -0.008782
     31 C                     0.379690
     32 C                    -0.144099
     33 S                     0.040812
     34 C                     0.462118
     35 O                    -0.450829
     36 O                    -0.298123
     37 F                    -0.213018
     38 C                    -0.054930
     39 H                     0.116607
     40 H                     0.084658
     41 H                     0.084333
     42 H                     0.216073
  ----------------------------------------
  Sum of atomic charges =     0.000000

                    Cartesian Multipole Moments
 -----------------------------------------------------------------
    Charge (ESU x 10^10)
                 0.0000
    Dipole Moment (Debye)
         X       1.1544      Y       1.2929      Z       3.3596
       Tot       3.7803
    Quadrupole Moments (Debye-Ang)
        XX    -188.8065     XY       2.4509     YY    -158.1063
        XZ     -15.6211     YZ     -10.3972     ZZ    -193.2397

 Total job time:  297.90s(wall), 9624.81s(cpu)
        *  Thank you very much for using Q-Chem.  Have a nice day.  *
