 Q-Chem 5.4, Q-Chem, Inc., Pleasanton, CA (2021)
 Q-Chem 5.4.0 for Intel X86 EM64T Linux

User input:
--------------------------------------------------------------
$molecule
0 1
C	-0.175432	-8.519741	0.208002
C	0.352097	-7.635967	-0.722164
S	-0.936458	-7.651740	1.563424
C	0.160388	-6.261894	-0.386833
H	0.870905	-7.954738	-1.635031
C	-0.553685	-6.079985	0.849637
C	-0.816372	-4.798382	1.357938
C	0.627524	-5.153542	-1.149702
C	0.368399	-3.869626	-0.638941
C	-0.348912	-3.688927	0.597409
O	1.262667	-5.481075	-2.309260
O	-1.453338	-4.479871	2.523296
C	-2.449320	-5.356026	3.036927
H	-2.982577	-4.790496	3.824632
H	-2.011155	-6.268513	3.497250
H	-3.173591	-5.658187	2.249807
C	2.130793	-4.546999	-2.939226
H	2.663289	-5.107564	-3.730721
H	2.873906	-4.131473	-2.225196
H	1.572045	-3.712085	-3.415077
C	-0.536849	-2.314326	0.930765
S	0.763041	-2.295487	-1.347913
C	-0.000000	-1.435180	-0.000000
H	-1.057554	-1.993211	1.841645
H	-0.170535	-9.615985	0.204438
C	0.000000	0.000000	0.000000
S	0.382139	0.814215	1.510732
C	1.046923	2.242395	0.727629
C	0.383804	0.823142	-1.064665
C	0.969360	2.082453	-0.678287
C	0.357247	0.762277	-2.486150
C	0.891671	1.908660	-3.106916
S	1.415865	3.040689	-1.965735
C	1.003453	2.137318	-4.559972
O	0.611644	1.290019	-5.350277
O	1.548687	3.298916	-5.004375
F	-0.110054	-0.249117	-3.246290
C	1.709479	3.619721	-6.334976
H	2.177001	4.620902	-6.370268
H	0.737443	3.643380	-6.875609
H	2.359363	2.886384	-6.861878
H	1.435800	3.076190	1.321510
$end

$rem
JOBTYPE		SP
EXCHANGE	HF
CORRELATION	pRIMP2
BASIS		cc-pvtz
METHOD		rimp2
AUX_BASIS	rimp2-cc-pvtz
SOLVENT_METHOD	PCM
PURECART	11111
SYMMETRY	false
MEM_TOTAL	110000
SCF_CONVERGENCE = 6
THRESH=10
GUI = 2
$end

$solvent
dielectric 4.90
$end
--------------------------------------------------------------

             Standard Nuclear Orientation (Angstroms)
    I     Atom           X                Y                Z
 ----------------------------------------------------------------
    1      C      -0.1754320000    -8.5197410000     0.2080020000
    2      C       0.3520970000    -7.6359670000    -0.7221640000
    3      S      -0.9364580000    -7.6517400000     1.5634240000
    4      C       0.1603880000    -6.2618940000    -0.3868330000
    5      H       0.8709050000    -7.9547380000    -1.6350310000
    6      C      -0.5536850000    -6.0799850000     0.8496370000
    7      C      -0.8163720000    -4.7983820000     1.3579380000
    8      C       0.6275240000    -5.1535420000    -1.1497020000
    9      C       0.3683990000    -3.8696260000    -0.6389410000
   10      C      -0.3489120000    -3.6889270000     0.5974090000
   11      O       1.2626670000    -5.4810750000    -2.3092600000
   12      O      -1.4533380000    -4.4798710000     2.5232960000
   13      C      -2.4493200000    -5.3560260000     3.0369270000
   14      H      -2.9825770000    -4.7904960000     3.8246320000
   15      H      -2.0111550000    -6.2685130000     3.4972500000
   16      H      -3.1735910000    -5.6581870000     2.2498070000
   17      C       2.1307930000    -4.5469990000    -2.9392260000
   18      H       2.6632890000    -5.1075640000    -3.7307210000
   19      H       2.8739060000    -4.1314730000    -2.2251960000
   20      H       1.5720450000    -3.7120850000    -3.4150770000
   21      C      -0.5368490000    -2.3143260000     0.9307650000
   22      S       0.7630410000    -2.2954870000    -1.3479130000
   23      C       0.0000000000    -1.4351800000     0.0000000000
   24      H      -1.0575540000    -1.9932110000     1.8416450000
   25      H      -0.1705350000    -9.6159850000     0.2044380000
   26      C       0.0000000000     0.0000000000     0.0000000000
   27      S       0.3821390000     0.8142150000     1.5107320000
   28      C       1.0469230000     2.2423950000     0.7276290000
   29      C       0.3838040000     0.8231420000    -1.0646650000
   30      C       0.9693600000     2.0824530000    -0.6782870000
   31      C       0.3572470000     0.7622770000    -2.4861500000
   32      C       0.8916710000     1.9086600000    -3.1069160000
   33      S       1.4158650000     3.0406890000    -1.9657350000
   34      C       1.0034530000     2.1373180000    -4.5599720000
   35      O       0.6116440000     1.2900190000    -5.3502770000
   36      O       1.5486870000     3.2989160000    -5.0043750000
   37      F      -0.1100540000    -0.2491170000    -3.2462900000
   38      C       1.7094790000     3.6197210000    -6.3349760000
   39      H       2.1770010000     4.6209020000    -6.3702680000
   40      H       0.7374430000     3.6433800000    -6.8756090000
   41      H       2.3593630000     2.8863840000    -6.8618780000
   42      H       1.4358000000     3.0761900000     1.3215100000
 ----------------------------------------------------------------

   10   -2754.2845655268      8.44e-07  Convergence criterion met
 Total energy in the final basis set =    -2754.2845655268
        RIMP2         total energy =     -2759.3440092007 a.u.

                    Orbital Energies (a.u.)
 --------------------------------------------------------------

 Alpha MOs
 -- Occupied --
-92.0157 -91.9970 -91.9874 -91.9857 -26.3343 -20.6128 -20.5915 -20.5911
-20.5511 -11.4113 -11.3781 -11.3185 -11.3167 -11.3077 -11.2997 -11.2988
-11.2976 -11.2959 -11.2889 -11.2860 -11.2859 -11.2849 -11.2841 -11.2833
-11.2789 -11.2608 -11.2579 -11.2544 -11.2495  -9.0142  -9.0009  -8.9881
 -8.9856  -6.6949  -6.6943  -6.6938  -6.6821  -6.6815  -6.6801  -6.6690
 -6.6683  -6.6673  -6.6666  -6.6660  -6.6651  -1.6486  -1.4726  -1.4156
 -1.4137  -1.3680  -1.2358  -1.1954  -1.1686  -1.1427  -1.0844  -1.0517
 -1.0483  -1.0294  -1.0017  -0.9930  -0.9728  -0.9602  -0.9497  -0.9387
 -0.8953  -0.8707  -0.8499  -0.8085  -0.7934  -0.7868  -0.7752  -0.7642
 -0.7574  -0.7320  -0.7198  -0.7166  -0.6999  -0.6892  -0.6826  -0.6791
 -0.6731  -0.6618  -0.6583  -0.6521  -0.6280  -0.6193  -0.6162  -0.6073
 -0.6037  -0.5965  -0.5851  -0.5735  -0.5683  -0.5636  -0.5580  -0.5521
 -0.5316  -0.5269  -0.5244  -0.5163  -0.5148  -0.5080  -0.5022  -0.4959
 -0.4873  -0.4845  -0.4780  -0.4665  -0.4623  -0.4619  -0.4588  -0.4201
 -0.3948  -0.3865  -0.3600  -0.3496  -0.3229  -0.2854  -0.2479

          Ground-State Mulliken Net Atomic Charges

     Atom                 Charge (a.u.)
  ----------------------------------------
      1 C                    -0.189815
      2 C                    -0.254329
      3 S                    -0.024002
      4 C                    -0.016782
      5 H                     0.196368
      6 C                    -0.026974
      7 C                     0.236704
      8 C                     0.241399
      9 C                    -0.045334
     10 C                    -0.007200
     11 O                    -0.333258
     12 O                    -0.340334
     13 C                    -0.085520
     14 H                     0.122040
     15 H                     0.090922
     16 H                     0.094183
     17 C                    -0.089730
     18 H                     0.125661
     19 H                     0.094009
     20 H                     0.091642
     21 C                    -0.267229
     22 S                    -0.012517
     23 C                     0.008492
     24 H                     0.191791
     25 H                     0.206214
     26 C                     0.024080
     27 S                     0.121764
     28 C                    -0.230863
     29 C                    -0.128011
     30 C                    -0.011720
     31 C                     0.355645
     32 C                    -0.137789
     33 S                     0.047338
     34 C                     0.459284
     35 O                    -0.448428
     36 O                    -0.297863
     37 F                    -0.207060
     38 C                    -0.054757
     39 H                     0.116848
     40 H                     0.084833
     41 H                     0.084506
     42 H                     0.215791
  ----------------------------------------
  Sum of atomic charges =     0.000000

                    Cartesian Multipole Moments
 -----------------------------------------------------------------
    Charge (ESU x 10^10)
                 0.0000
    Dipole Moment (Debye)
         X       1.5329      Y       1.9273      Z       2.7720
       Tot       3.7079
    Quadrupole Moments (Debye-Ang)
        XX    -187.0775     XY       7.6576     YY    -163.2439
        XZ     -17.3460     YZ      -8.8982     ZZ    -192.3181

 Total job time:  304.89s(wall), 9486.62s(cpu)
        *  Thank you very much for using Q-Chem.  Have a nice day.  *
