 Q-Chem 5.4, Q-Chem, Inc., Pleasanton, CA (2021)
 Q-Chem 5.4.0 for Intel X86 EM64T Linux

User input:
--------------------------------------------------------------
$molecule
0 1
C	-0.136647	-8.519741	0.235306
C	0.221346	-7.635967	-0.772334
S	-0.650746	-7.651740	1.702286
C	0.090779	-6.261894	-0.408807
H	0.573754	-7.954738	-1.761423
C	-0.397735	-6.079985	0.932876
C	-0.568166	-4.798382	1.479069
C	0.418347	-5.153542	-1.241204
C	0.251852	-3.869626	-0.693206
C	-0.239872	-3.688927	0.648921
O	0.842486	-5.481075	-2.493437
O	-0.993092	-4.479871	2.737331
C	-1.884752	-5.356026	3.416110
H	-2.273124	-4.790496	4.284447
H	-1.373310	-6.268513	3.793352
H	-2.734702	-5.658187	2.766716
C	1.588030	-4.546999	-3.264581
H	1.974995	-5.107564	-4.136519
H	2.443843	-4.131473	-2.690439
H	0.955140	-3.712085	-3.636177
C	-0.367068	-2.314326	1.009848
S	0.517386	-2.295487	-1.459936
C	0.000000	-1.435180	0.000000
H	-0.721689	-1.993211	1.997308
H	-0.132444	-9.615985	0.230945
C	0.000000	0.000000	0.000000
S	0.309721	0.844422	1.510732
C	0.847502	2.325108	0.727629
C	0.310602	0.853460	-1.064665
C	0.784173	2.159014	-0.678287
C	0.289451	0.790512	-2.486150
C	0.721927	1.979112	-3.106916
S	1.145464	3.152519	-1.965735
C	0.813355	2.216642	-4.559972
O	0.496884	1.338418	-5.350277
O	1.255274	3.421340	-5.004375
F	-0.087923	-0.257761	-3.246290
C	1.387494	3.754937	-6.334976
H	1.765978	4.793056	-6.370268
H	0.417095	3.693789	-6.875609
H	2.098820	3.081033	-6.861878
H	1.162229	3.189623	1.321510
$end

$rem
JOBTYPE		SP
EXCHANGE	HF
CORRELATION	pRIMP2
BASIS		cc-pvtz
METHOD		rimp2
AUX_BASIS	rimp2-cc-pvtz
SOLVENT_METHOD	PCM
PURECART	11111
SYMMETRY	false
MEM_TOTAL	110000
SCF_CONVERGENCE = 6
THRESH=10
GUI = 2
$end

$solvent
dielectric 4.90
$end
--------------------------------------------------------------

             Standard Nuclear Orientation (Angstroms)
    I     Atom           X                Y                Z
 ----------------------------------------------------------------
    1      C      -0.1366470000    -8.5197410000     0.2353060000
    2      C       0.2213460000    -7.6359670000    -0.7723340000
    3      S      -0.6507460000    -7.6517400000     1.7022860000
    4      C       0.0907790000    -6.2618940000    -0.4088070000
    5      H       0.5737540000    -7.9547380000    -1.7614230000
    6      C      -0.3977350000    -6.0799850000     0.9328760000
    7      C      -0.5681660000    -4.7983820000     1.4790690000
    8      C       0.4183470000    -5.1535420000    -1.2412040000
    9      C       0.2518520000    -3.8696260000    -0.6932060000
   10      C      -0.2398720000    -3.6889270000     0.6489210000
   11      O       0.8424860000    -5.4810750000    -2.4934370000
   12      O      -0.9930920000    -4.4798710000     2.7373310000
   13      C      -1.8847520000    -5.3560260000     3.4161100000
   14      H      -2.2731240000    -4.7904960000     4.2844470000
   15      H      -1.3733100000    -6.2685130000     3.7933520000
   16      H      -2.7347020000    -5.6581870000     2.7667160000
   17      C       1.5880300000    -4.5469990000    -3.2645810000
   18      H       1.9749950000    -5.1075640000    -4.1365190000
   19      H       2.4438430000    -4.1314730000    -2.6904390000
   20      H       0.9551400000    -3.7120850000    -3.6361770000
   21      C      -0.3670680000    -2.3143260000     1.0098480000
   22      S       0.5173860000    -2.2954870000    -1.4599360000
   23      C       0.0000000000    -1.4351800000     0.0000000000
   24      H      -0.7216890000    -1.9932110000     1.9973080000
   25      H      -0.1324440000    -9.6159850000     0.2309450000
   26      C       0.0000000000     0.0000000000     0.0000000000
   27      S       0.3097210000     0.8444220000     1.5107320000
   28      C       0.8475020000     2.3251080000     0.7276290000
   29      C       0.3106020000     0.8534600000    -1.0646650000
   30      C       0.7841730000     2.1590140000    -0.6782870000
   31      C       0.2894510000     0.7905120000    -2.4861500000
   32      C       0.7219270000     1.9791120000    -3.1069160000
   33      S       1.1454640000     3.1525190000    -1.9657350000
   34      C       0.8133550000     2.2166420000    -4.5599720000
   35      O       0.4968840000     1.3384180000    -5.3502770000
   36      O       1.2552740000     3.4213400000    -5.0043750000
   37      F      -0.0879230000    -0.2577610000    -3.2462900000
   38      C       1.3874940000     3.7549370000    -6.3349760000
   39      H       1.7659780000     4.7930560000    -6.3702680000
   40      H       0.4170950000     3.6937890000    -6.8756090000
   41      H       2.0988200000     3.0810330000    -6.8618780000
   42      H       1.1622290000     3.1896230000     1.3215100000
 ----------------------------------------------------------------

   10   -2754.2870169974      8.46e-07  Convergence criterion met
 Total energy in the final basis set =    -2754.2870169974
        RIMP2         total energy =     -2759.3457338664 a.u.

                    Orbital Energies (a.u.)
 --------------------------------------------------------------

 Alpha MOs
 -- Occupied --
-92.0151 -91.9963 -91.9863 -91.9860 -26.3352 -20.6126 -20.5914 -20.5913
-20.5508 -11.4110 -11.3785 -11.3184 -11.3173 -11.3104 -11.2990 -11.2980
-11.2966 -11.2963 -11.2888 -11.2861 -11.2857 -11.2847 -11.2836 -11.2835
-11.2793 -11.2611 -11.2584 -11.2563 -11.2496  -9.0136  -9.0003  -8.9872
 -8.9859  -6.6943  -6.6937  -6.6933  -6.6815  -6.6808  -6.6795  -6.6681
 -6.6674  -6.6669  -6.6663  -6.6663  -6.6654  -1.6502  -1.4723  -1.4156
 -1.4140  -1.3677  -1.2353  -1.1957  -1.1688  -1.1425  -1.0845  -1.0519
 -1.0483  -1.0292  -1.0019  -0.9934  -0.9728  -0.9604  -0.9498  -0.9385
 -0.8956  -0.8704  -0.8509  -0.8093  -0.7947  -0.7869  -0.7752  -0.7637
 -0.7578  -0.7323  -0.7208  -0.7177  -0.7001  -0.6890  -0.6833  -0.6790
 -0.6736  -0.6620  -0.6583  -0.6522  -0.6282  -0.6194  -0.6161  -0.6071
 -0.6031  -0.5962  -0.5867  -0.5718  -0.5692  -0.5637  -0.5589  -0.5525
 -0.5311  -0.5264  -0.5248  -0.5172  -0.5148  -0.5082  -0.5021  -0.4956
 -0.4868  -0.4839  -0.4792  -0.4655  -0.4619  -0.4618  -0.4585  -0.4228
 -0.3943  -0.3868  -0.3606  -0.3497  -0.3240  -0.2846  -0.2468

          Ground-State Mulliken Net Atomic Charges

     Atom                 Charge (a.u.)
  ----------------------------------------
      1 C                    -0.189082
      2 C                    -0.254542
      3 S                    -0.023702
      4 C                    -0.016042
      5 H                     0.196476
      6 C                    -0.028706
      7 C                     0.240062
      8 C                     0.241959
      9 C                    -0.044686
     10 C                    -0.012427
     11 O                    -0.333383
     12 O                    -0.340341
     13 C                    -0.085612
     14 H                     0.122159
     15 H                     0.091012
     16 H                     0.094253
     17 C                    -0.090127
     18 H                     0.125723
     19 H                     0.094010
     20 H                     0.092129
     21 C                    -0.259544
     22 S                    -0.016967
     23 C                     0.008194
     24 H                     0.189488
     25 H                     0.206362
     26 C                     0.038634
     27 S                     0.112138
     28 C                    -0.234771
     29 C                    -0.123746
     30 C                    -0.016500
     31 C                     0.355384
     32 C                    -0.134440
     33 S                     0.044708
     34 C                     0.459137
     35 O                    -0.449468
     36 O                    -0.297873
     37 F                    -0.207073
     38 C                    -0.054788
     39 H                     0.116832
     40 H                     0.084763
     41 H                     0.084396
     42 H                     0.216001
  ----------------------------------------
  Sum of atomic charges =     0.000000

                    Cartesian Multipole Moments
 -----------------------------------------------------------------
    Charge (ESU x 10^10)
                 0.0000
    Dipole Moment (Debye)
         X       1.0939      Y       1.8297      Z       2.7957
       Tot       3.5158
    Quadrupole Moments (Debye-Ang)
        XX    -192.4110     XY       6.7202     YY    -161.9447
        XZ     -15.3917     YZ      -9.4846     ZZ    -188.1565

 Total job time:  311.75s(wall), 10404.00s(cpu)
        *  Thank you very much for using Q-Chem.  Have a nice day.  *
