 Q-Chem 5.4, Q-Chem, Inc., Pleasanton, CA (2021)
 Q-Chem 5.4.0 for Intel X86 EM64T Linux

User input:
--------------------------------------------------------------
$molecule
0 1
C	0.136647	-8.519741	-0.235306
C	-0.221346	-7.635967	0.772334
S	0.650746	-7.651740	-1.702286
C	-0.090779	-6.261894	0.408807
H	-0.573754	-7.954738	1.761423
C	0.397735	-6.079985	-0.932876
C	0.568166	-4.798382	-1.479069
C	-0.418347	-5.153542	1.241204
C	-0.251852	-3.869626	0.693206
C	0.239872	-3.688927	-0.648921
O	-0.842486	-5.481075	2.493437
O	0.993092	-4.479871	-2.737331
C	1.884752	-5.356026	-3.416110
H	2.273124	-4.790496	-4.284447
H	1.373310	-6.268513	-3.793352
H	2.734702	-5.658187	-2.766716
C	-1.588030	-4.546999	3.264581
H	-1.974995	-5.107564	4.136519
H	-2.443843	-4.131473	2.690439
H	-0.955140	-3.712085	3.636177
C	0.367068	-2.314326	-1.009848
S	-0.517386	-2.295487	1.459936
C	0.000000	-1.435180	0.000000
H	0.721689	-1.993211	-1.997308
H	0.132444	-9.615985	-0.230945
C	0.000000	0.000000	0.000000
S	0.002233	0.899428	1.510732
C	0.001157	2.474749	0.727629
C	-0.000030	0.908223	-1.064665
C	-0.001545	2.297013	-0.678287
C	0.001624	0.841837	-2.486150
C	0.001494	2.106670	-3.106916
S	-0.001841	3.354171	-1.965735
C	0.006168	2.361146	-4.559972
O	0.009152	1.427646	-5.350277
O	0.009405	3.644337	-5.004375
F	0.005539	-0.272288	-3.246290
C	0.019554	4.003038	-6.334976
H	0.020155	5.108000	-6.370268
H	-0.871409	3.613681	-6.875609
H	0.918470	3.613062	-6.861878
H	0.001222	3.394771	1.321510
$end

$rem
JOBTYPE		SP
EXCHANGE	HF
CORRELATION	pRIMP2
BASIS		cc-pvtz
METHOD		rimp2
AUX_BASIS	rimp2-cc-pvtz
SOLVENT_METHOD	PCM
PURECART	11111
SYMMETRY	false
MEM_TOTAL	110000
SCF_CONVERGENCE = 6
THRESH=10
GUI = 2
$end

$solvent
dielectric 4.90
$end
--------------------------------------------------------------

             Standard Nuclear Orientation (Angstroms)
    I     Atom           X                Y                Z
 ----------------------------------------------------------------
    1      C       0.1366470000    -8.5197410000    -0.2353060000
    2      C      -0.2213460000    -7.6359670000     0.7723340000
    3      S       0.6507460000    -7.6517400000    -1.7022860000
    4      C      -0.0907790000    -6.2618940000     0.4088070000
    5      H      -0.5737540000    -7.9547380000     1.7614230000
    6      C       0.3977350000    -6.0799850000    -0.9328760000
    7      C       0.5681660000    -4.7983820000    -1.4790690000
    8      C      -0.4183470000    -5.1535420000     1.2412040000
    9      C      -0.2518520000    -3.8696260000     0.6932060000
   10      C       0.2398720000    -3.6889270000    -0.6489210000
   11      O      -0.8424860000    -5.4810750000     2.4934370000
   12      O       0.9930920000    -4.4798710000    -2.7373310000
   13      C       1.8847520000    -5.3560260000    -3.4161100000
   14      H       2.2731240000    -4.7904960000    -4.2844470000
   15      H       1.3733100000    -6.2685130000    -3.7933520000
   16      H       2.7347020000    -5.6581870000    -2.7667160000
   17      C      -1.5880300000    -4.5469990000     3.2645810000
   18      H      -1.9749950000    -5.1075640000     4.1365190000
   19      H      -2.4438430000    -4.1314730000     2.6904390000
   20      H      -0.9551400000    -3.7120850000     3.6361770000
   21      C       0.3670680000    -2.3143260000    -1.0098480000
   22      S      -0.5173860000    -2.2954870000     1.4599360000
   23      C       0.0000000000    -1.4351800000     0.0000000000
   24      H       0.7216890000    -1.9932110000    -1.9973080000
   25      H       0.1324440000    -9.6159850000    -0.2309450000
   26      C       0.0000000000     0.0000000000     0.0000000000
   27      S       0.0022330000     0.8994280000     1.5107320000
   28      C       0.0011570000     2.4747490000     0.7276290000
   29      C      -0.0000300000     0.9082230000    -1.0646650000
   30      C      -0.0015450000     2.2970130000    -0.6782870000
   31      C       0.0016240000     0.8418370000    -2.4861500000
   32      C       0.0014940000     2.1066700000    -3.1069160000
   33      S      -0.0018410000     3.3541710000    -1.9657350000
   34      C       0.0061680000     2.3611460000    -4.5599720000
   35      O       0.0091520000     1.4276460000    -5.3502770000
   36      O       0.0094050000     3.6443370000    -5.0043750000
   37      F       0.0055390000    -0.2722880000    -3.2462900000
   38      C       0.0195540000     4.0030380000    -6.3349760000
   39      H       0.0201550000     5.1080000000    -6.3702680000
   40      H      -0.8714090000     3.6136810000    -6.8756090000
   41      H       0.9184700000     3.6130620000    -6.8618780000
   42      H       0.0012220000     3.3947710000     1.3215100000
 ----------------------------------------------------------------

   10   -2754.2981426567      8.11e-07  Convergence criterion met
 Total energy in the final basis set =    -2754.2981426567
        RIMP2         total energy =     -2759.3525581660 a.u.

                    Orbital Energies (a.u.)
 --------------------------------------------------------------

 Alpha MOs
 -- Occupied --
-92.0161 -91.9947 -91.9915 -91.9873 -26.3370 -20.6116 -20.5932 -20.5919
-20.5492 -11.4097 -11.3784 -11.3204 -11.3198 -11.3145 -11.2973 -11.2965
-11.2959 -11.2915 -11.2886 -11.2882 -11.2879 -11.2858 -11.2850 -11.2810
-11.2807 -11.2625 -11.2608 -11.2590 -11.2507  -9.0145  -8.9987  -8.9921
 -8.9871  -6.6953  -6.6947  -6.6942  -6.6800  -6.6793  -6.6780  -6.6731
 -6.6724  -6.6715  -6.6681  -6.6675  -6.6666  -1.6509  -1.4713  -1.4174
 -1.4146  -1.3666  -1.2335  -1.1976  -1.1699  -1.1424  -1.0851  -1.0534
 -1.0480  -1.0279  -1.0041  -0.9942  -0.9722  -0.9615  -0.9511  -0.9385
 -0.8974  -0.8694  -0.8522  -0.8062  -0.7958  -0.7889  -0.7726  -0.7696
 -0.7583  -0.7335  -0.7207  -0.7183  -0.7021  -0.6893  -0.6846  -0.6782
 -0.6721  -0.6623  -0.6598  -0.6529  -0.6298  -0.6205  -0.6164  -0.6060
 -0.6002  -0.5937  -0.5885  -0.5761  -0.5700  -0.5620  -0.5528  -0.5493
 -0.5372  -0.5270  -0.5260  -0.5177  -0.5175  -0.5095  -0.5055  -0.4969
 -0.4879  -0.4840  -0.4791  -0.4683  -0.4618  -0.4611  -0.4589  -0.4237
 -0.3985  -0.3864  -0.3598  -0.3507  -0.3255  -0.2848  -0.2485

          Ground-State Mulliken Net Atomic Charges

     Atom                 Charge (a.u.)
  ----------------------------------------
      1 C                    -0.185980
      2 C                    -0.254814
      3 S                    -0.019336
      4 C                    -0.013085
      5 H                     0.196543
      6 C                    -0.030419
      7 C                     0.252326
      8 C                     0.240730
      9 C                    -0.037953
     10 C                    -0.041558
     11 O                    -0.333217
     12 O                    -0.338069
     13 C                    -0.086352
     14 H                     0.124006
     15 H                     0.091475
     16 H                     0.094007
     17 C                    -0.088332
     18 H                     0.126068
     19 H                     0.095373
     20 H                     0.089556
     21 C                    -0.190484
     22 S                    -0.035676
     23 C                    -0.024407
     24 H                     0.200810
     25 H                     0.206971
     26 C                    -0.031892
     27 S                     0.088816
     28 C                    -0.246336
     29 C                    -0.061402
     30 C                    -0.017506
     31 C                     0.393391
     32 C                    -0.141968
     33 S                     0.035534
     34 C                     0.461881
     35 O                    -0.452329
     36 O                    -0.298115
     37 F                    -0.215478
     38 C                    -0.055069
     39 H                     0.116593
     40 H                     0.084534
     41 H                     0.084219
     42 H                     0.216946
  ----------------------------------------
  Sum of atomic charges =     0.000000

                    Cartesian Multipole Moments
 -----------------------------------------------------------------
    Charge (ESU x 10^10)
                 0.0000
    Dipole Moment (Debye)
         X       0.2519      Y       1.0635      Z       3.3096
       Tot       3.4854
    Quadrupole Moments (Debye-Ang)
        XX    -194.2409     XY      -1.5765     YY    -156.3028
        XZ     -11.8130     YZ     -10.2130     ZZ    -189.0870

 Total job time:  299.64s(wall), 9436.67s(cpu)
        *  Thank you very much for using Q-Chem.  Have a nice day.  *
