 Q-Chem 5.4, Q-Chem, Inc., Pleasanton, CA (2021)
 Q-Chem 5.4.0 for Intel X86 EM64T Linux

User input:
--------------------------------------------------------------
$molecule
0 1
C	-0.255929	-8.519741	0.092419
C	0.666007	-7.635967	-0.449364
S	-1.592708	-7.651740	0.885736
C	0.332317	-6.261894	-0.254813
H	1.571741	-7.954738	-0.980526
C	-0.904324	-6.079985	0.458965
C	-1.385968	-4.798382	0.767823
C	1.118303	-5.153542	-0.681909
C	0.638514	-3.869626	-0.369139
C	-0.600871	-3.688927	0.342916
O	2.248132	-5.481075	-1.368544
O	-2.520275	-4.479871	1.458570
C	-3.639637	-5.356026	1.405396
H	-4.495304	-4.790496	1.820940
H	-3.490336	-6.268513	2.023129
H	-3.873314	-5.658187	0.361595
C	3.314934	-4.546999	-1.480048
H	4.171837	-5.107564	-1.899255
H	3.601473	-4.131473	-0.490123
H	3.068969	-3.712085	-2.171521
C	-0.930308	-2.314326	0.537642
S	1.334769	-2.295487	-0.785807
C	0.000000	-1.435180	0.000000
H	-1.836691	-1.993211	1.066134
H	-0.249906	-9.615985	0.091781
C	0.000000	0.000000	0.000000
S	0.080615	0.895811	1.510732
C	0.216842	2.465231	0.727629
C	0.079127	0.904769	-1.064665
C	0.198659	2.288406	-0.678287
C	0.074988	0.838492	-2.486150
C	0.185097	2.098524	-3.106916
S	0.290501	3.341568	-1.965735
C	0.211932	2.351623	-4.559972
O	0.133545	1.421416	-5.350277
O	0.326994	3.629649	-5.004375
F	-0.018214	-0.271734	-3.246290
C	0.368367	3.986101	-6.334976
H	0.465270	5.086806	-6.370268
H	-0.553140	3.675878	-6.875609
H	1.229874	3.519263	-6.861878
H	0.297091	3.381746	1.321510
$end

$rem
JOBTYPE		SP
EXCHANGE	HF
CORRELATION	pRIMP2
BASIS		cc-pvtz
METHOD		rimp2
AUX_BASIS	rimp2-cc-pvtz
SOLVENT_METHOD	PCM
PURECART	11111
SYMMETRY	false
MEM_TOTAL	110000
SCF_CONVERGENCE = 6
THRESH=10
GUI = 2
$end

$solvent
dielectric 4.90
$end
--------------------------------------------------------------

             Standard Nuclear Orientation (Angstroms)
    I     Atom           X                Y                Z
 ----------------------------------------------------------------
    1      C      -0.2559290000    -8.5197410000     0.0924190000
    2      C       0.6660070000    -7.6359670000    -0.4493640000
    3      S      -1.5927080000    -7.6517400000     0.8857360000
    4      C       0.3323170000    -6.2618940000    -0.2548130000
    5      H       1.5717410000    -7.9547380000    -0.9805260000
    6      C      -0.9043240000    -6.0799850000     0.4589650000
    7      C      -1.3859680000    -4.7983820000     0.7678230000
    8      C       1.1183030000    -5.1535420000    -0.6819090000
    9      C       0.6385140000    -3.8696260000    -0.3691390000
   10      C      -0.6008710000    -3.6889270000     0.3429160000
   11      O       2.2481320000    -5.4810750000    -1.3685440000
   12      O      -2.5202750000    -4.4798710000     1.4585700000
   13      C      -3.6396370000    -5.3560260000     1.4053960000
   14      H      -4.4953040000    -4.7904960000     1.8209400000
   15      H      -3.4903360000    -6.2685130000     2.0231290000
   16      H      -3.8733140000    -5.6581870000     0.3615950000
   17      C       3.3149340000    -4.5469990000    -1.4800480000
   18      H       4.1718370000    -5.1075640000    -1.8992550000
   19      H       3.6014730000    -4.1314730000    -0.4901230000
   20      H       3.0689690000    -3.7120850000    -2.1715210000
   21      C      -0.9303080000    -2.3143260000     0.5376420000
   22      S       1.3347690000    -2.2954870000    -0.7858070000
   23      C       0.0000000000    -1.4351800000     0.0000000000
   24      H      -1.8366910000    -1.9932110000     1.0661340000
   25      H      -0.2499060000    -9.6159850000     0.0917810000
   26      C       0.0000000000     0.0000000000     0.0000000000
   27      S       0.0806150000     0.8958110000     1.5107320000
   28      C       0.2168420000     2.4652310000     0.7276290000
   29      C       0.0791270000     0.9047690000    -1.0646650000
   30      C       0.1986590000     2.2884060000    -0.6782870000
   31      C       0.0749880000     0.8384920000    -2.4861500000
   32      C       0.1850970000     2.0985240000    -3.1069160000
   33      S       0.2905010000     3.3415680000    -1.9657350000
   34      C       0.2119320000     2.3516230000    -4.5599720000
   35      O       0.1335450000     1.4214160000    -5.3502770000
   36      O       0.3269940000     3.6296490000    -5.0043750000
   37      F      -0.0182140000    -0.2717340000    -3.2462900000
   38      C       0.3683670000     3.9861010000    -6.3349760000
   39      H       0.4652700000     5.0868060000    -6.3702680000
   40      H      -0.5531400000     3.6758780000    -6.8756090000
   41      H       1.2298740000     3.5192630000    -6.8618780000
   42      H       0.2970910000     3.3817460000     1.3215100000
 ----------------------------------------------------------------

   10   -2754.2965758469      8.56e-07  Convergence criterion met
 Total energy in the final basis set =    -2754.2965758469
        RIMP2         total energy =     -2759.3493538061 a.u.

                    Orbital Energies (a.u.)
 --------------------------------------------------------------

 Alpha MOs
 -- Occupied --
-92.0166 -91.9944 -91.9900 -91.9868 -26.3337 -20.6118 -20.5923 -20.5922
-20.5496 -11.4099 -11.3773 -11.3194 -11.3191 -11.3111 -11.2966 -11.2964
-11.2947 -11.2927 -11.2883 -11.2870 -11.2868 -11.2865 -11.2844 -11.2820
-11.2804 -11.2615 -11.2599 -11.2597 -11.2502  -9.0147  -8.9984  -8.9903
 -8.9867  -6.6954  -6.6948  -6.6943  -6.6797  -6.6790  -6.6777  -6.6713
 -6.6706  -6.6696  -6.6677  -6.6670  -6.6662  -1.6468  -1.4715  -1.4165
 -1.4149  -1.3667  -1.2331  -1.1965  -1.1686  -1.1417  -1.0845  -1.0526
 -1.0472  -1.0276  -1.0028  -0.9935  -0.9712  -0.9615  -0.9506  -0.9385
 -0.8961  -0.8689  -0.8512  -0.8067  -0.7904  -0.7882  -0.7747  -0.7664
 -0.7586  -0.7330  -0.7180  -0.7150  -0.7012  -0.6883  -0.6836  -0.6782
 -0.6709  -0.6609  -0.6593  -0.6529  -0.6305  -0.6204  -0.6171  -0.6061
 -0.6019  -0.5941  -0.5844  -0.5770  -0.5687  -0.5660  -0.5570  -0.5521
 -0.5332  -0.5263  -0.5251  -0.5163  -0.5142  -0.5082  -0.5013  -0.4961
 -0.4898  -0.4839  -0.4767  -0.4682  -0.4616  -0.4611  -0.4598  -0.4120
 -0.3991  -0.3871  -0.3579  -0.3497  -0.3188  -0.2868  -0.2565

          Ground-State Mulliken Net Atomic Charges

     Atom                 Charge (a.u.)
  ----------------------------------------
      1 C                    -0.186770
      2 C                    -0.254178
      3 S                    -0.021835
      4 C                    -0.012856
      5 H                     0.196691
      6 C                    -0.027496
      7 C                     0.246993
      8 C                     0.239191
      9 C                    -0.042443
     10 C                    -0.026942
     11 O                    -0.333127
     12 O                    -0.339937
     13 C                    -0.085623
     14 H                     0.122664
     15 H                     0.091029
     16 H                     0.094653
     17 C                    -0.086736
     18 H                     0.125054
     19 H                     0.094334
     20 H                     0.090731
     21 C                    -0.235905
     22 S                    -0.001955
     23 C                    -0.030765
     24 H                     0.197904
     25 H                     0.206734
     26 C                    -0.002915
     27 S                     0.117774
     28 C                    -0.242885
     29 C                    -0.112681
     30 C                    -0.005347
     31 C                     0.397020
     32 C                    -0.154377
     33 S                     0.037065
     34 C                     0.461056
     35 O                    -0.450775
     36 O                    -0.297948
     37 F                    -0.210605
     38 C                    -0.055073
     39 H                     0.116502
     40 H                     0.084606
     41 H                     0.084377
     42 H                     0.214795
  ----------------------------------------
  Sum of atomic charges =     0.000000

                    Cartesian Multipole Moments
 -----------------------------------------------------------------
    Charge (ESU x 10^10)
                -0.0000
    Dipole Moment (Debye)
         X       0.2623      Y       1.3853      Z       3.0286
       Tot       3.3407
    Quadrupole Moments (Debye-Ang)
        XX    -178.3693     XY       2.5300     YY    -158.1177
        XZ      -8.0726     YZ      -9.3940     ZZ    -204.6567

 Total job time:  289.21s(wall), 9607.13s(cpu)
        *  Thank you very much for using Q-Chem.  Have a nice day.  *
