 Q-Chem 5.4, Q-Chem, Inc., Pleasanton, CA (2021)
 Q-Chem 5.4.0 for Intel X86 EM64T Linux

User input:
--------------------------------------------------------------
$molecule
0 1
C	-0.235993	-8.519741	0.135457
C	0.577858	-7.635967	-0.558188
S	-1.414705	-7.651740	1.148850
C	0.283020	-6.261894	-0.308648
H	1.377597	-7.954738	-1.238560
C	-0.810887	-6.079985	0.609026
C	-1.231581	-4.798382	0.996828
C	0.982901	-5.153542	-0.865740
C	0.564713	-3.869626	-0.474408
C	-0.532196	-3.688927	0.442046
O	1.976332	-5.481075	-1.738137
O	-2.228709	-4.479871	1.874052
C	-3.340298	-5.356026	2.016062
H	-4.110807	-4.790496	2.573877
H	-3.085998	-6.268513	2.598484
H	-3.751679	-5.658187	1.028695
C	3.007565	-4.546999	-2.033195
H	3.778655	-5.107564	-2.594833
H	3.461650	-4.131473	-1.108067
H	2.645264	-3.712085	-2.671451
C	-0.822814	-2.314326	0.691020
S	1.178037	-2.295487	-1.005649
C	-0.000000	-1.435180	-0.000000
H	-1.623656	-1.993211	1.368875
H	-0.230172	-9.615985	0.133782
C	0.000000	0.000000	0.000000
S	0.579852	0.687566	1.510732
C	1.591625	1.895024	0.727629
C	0.583771	0.695758	-1.064665
C	1.475308	1.760606	-0.678287
C	0.542366	0.643841	-2.486150
C	1.355286	1.612843	-3.106916
S	2.154609	2.570627	-1.965735
C	1.522440	1.804778	-4.559972
O	0.924684	1.087757	-5.350277
O	2.349739	2.785679	-5.004375
F	-0.170780	-0.212144	-3.246290
C	2.588082	3.053936	-6.334976
H	3.298799	3.899999	-6.370268
H	1.655291	3.328371	-6.875609
H	3.026021	2.177385	-6.861878
H	2.183053	2.599759	1.321510
$end

$rem
JOBTYPE		SP
EXCHANGE	HF
CORRELATION	pRIMP2
BASIS		cc-pvtz
METHOD		rimp2
AUX_BASIS	rimp2-cc-pvtz
SOLVENT_METHOD	PCM
PURECART	11111
SYMMETRY	false
MEM_TOTAL	110000
SCF_CONVERGENCE = 6
THRESH=10
GUI = 2
$end

$solvent
dielectric 4.90
$end
--------------------------------------------------------------

             Standard Nuclear Orientation (Angstroms)
    I     Atom           X                Y                Z
 ----------------------------------------------------------------
    1      C      -0.2359930000    -8.5197410000     0.1354570000
    2      C       0.5778580000    -7.6359670000    -0.5581880000
    3      S      -1.4147050000    -7.6517400000     1.1488500000
    4      C       0.2830200000    -6.2618940000    -0.3086480000
    5      H       1.3775970000    -7.9547380000    -1.2385600000
    6      C      -0.8108870000    -6.0799850000     0.6090260000
    7      C      -1.2315810000    -4.7983820000     0.9968280000
    8      C       0.9829010000    -5.1535420000    -0.8657400000
    9      C       0.5647130000    -3.8696260000    -0.4744080000
   10      C      -0.5321960000    -3.6889270000     0.4420460000
   11      O       1.9763320000    -5.4810750000    -1.7381370000
   12      O      -2.2287090000    -4.4798710000     1.8740520000
   13      C      -3.3402980000    -5.3560260000     2.0160620000
   14      H      -4.1108070000    -4.7904960000     2.5738770000
   15      H      -3.0859980000    -6.2685130000     2.5984840000
   16      H      -3.7516790000    -5.6581870000     1.0286950000
   17      C       3.0075650000    -4.5469990000    -2.0331950000
   18      H       3.7786550000    -5.1075640000    -2.5948330000
   19      H       3.4616500000    -4.1314730000    -1.1080670000
   20      H       2.6452640000    -3.7120850000    -2.6714510000
   21      C      -0.8228140000    -2.3143260000     0.6910200000
   22      S       1.1780370000    -2.2954870000    -1.0056490000
   23      C       0.0000000000    -1.4351800000     0.0000000000
   24      H      -1.6236560000    -1.9932110000     1.3688750000
   25      H      -0.2301720000    -9.6159850000     0.1337820000
   26      C       0.0000000000     0.0000000000     0.0000000000
   27      S       0.5798520000     0.6875660000     1.5107320000
   28      C       1.5916250000     1.8950240000     0.7276290000
   29      C       0.5837710000     0.6957580000    -1.0646650000
   30      C       1.4753080000     1.7606060000    -0.6782870000
   31      C       0.5423660000     0.6438410000    -2.4861500000
   32      C       1.3552860000     1.6128430000    -3.1069160000
   33      S       2.1546090000     2.5706270000    -1.9657350000
   34      C       1.5224400000     1.8047780000    -4.5599720000
   35      O       0.9246840000     1.0877570000    -5.3502770000
   36      O       2.3497390000     2.7856790000    -5.0043750000
   37      F      -0.1707800000    -0.2121440000    -3.2462900000
   38      C       2.5880820000     3.0539360000    -6.3349760000
   39      H       3.2987990000     3.8999990000    -6.3702680000
   40      H       1.6552910000     3.3283710000    -6.8756090000
   41      H       3.0260210000     2.1773850000    -6.8618780000
   42      H       2.1830530000     2.5997590000     1.3215100000
 ----------------------------------------------------------------

   10   -2754.2688841907      9.59e-07  Convergence criterion met
 Total energy in the final basis set =    -2754.2688841907
        RIMP2         total energy =     -2759.3327111573 a.u.

                    Orbital Energies (a.u.)
 --------------------------------------------------------------

 Alpha MOs
 -- Occupied --
-92.0170 -92.0001 -91.9879 -91.9849 -26.3341 -20.6139 -20.5914 -20.5897
-20.5532 -11.4131 -11.3777 -11.3181 -11.3147 -11.3078 -11.3038 -11.2992
-11.2958 -11.2931 -11.2895 -11.2874 -11.2864 -11.2851 -11.2832 -11.2826
-11.2777 -11.2591 -11.2563 -11.2488 -11.2486  -9.0154  -9.0039  -8.9884
 -8.9848  -6.6960  -6.6953  -6.6950  -6.6851  -6.6845  -6.6832  -6.6693
 -6.6686  -6.6677  -6.6658  -6.6652  -6.6643  -1.6473  -1.4739  -1.4154
 -1.4125  -1.3695  -1.2385  -1.1940  -1.1685  -1.1436  -1.0839  -1.0511
 -1.0486  -1.0306  -1.0006  -0.9921  -0.9736  -0.9595  -0.9494  -0.9389
 -0.8943  -0.8724  -0.8471  -0.8070  -0.7924  -0.7868  -0.7759  -0.7651
 -0.7558  -0.7312  -0.7186  -0.7158  -0.6994  -0.6903  -0.6810  -0.6800
 -0.6741  -0.6619  -0.6580  -0.6514  -0.6279  -0.6186  -0.6161  -0.6088
 -0.6053  -0.5984  -0.5811  -0.5765  -0.5660  -0.5635  -0.5557  -0.5497
 -0.5323  -0.5287  -0.5231  -0.5152  -0.5144  -0.5080  -0.5021  -0.4958
 -0.4886  -0.4856  -0.4735  -0.4672  -0.4637  -0.4627  -0.4588  -0.4114
 -0.3984  -0.3848  -0.3583  -0.3491  -0.3196  -0.2881  -0.2510

          Ground-State Mulliken Net Atomic Charges

     Atom                 Charge (a.u.)
  ----------------------------------------
      1 C                    -0.192350
      2 C                    -0.253931
      3 S                    -0.024991
      4 C                    -0.018837
      5 H                     0.195987
      6 C                    -0.023877
      7 C                     0.231638
      8 C                     0.242370
      9 C                    -0.045256
     10 C                    -0.003442
     11 O                    -0.333017
     12 O                    -0.340502
     13 C                    -0.085571
     14 H                     0.121786
     15 H                     0.090640
     16 H                     0.093817
     17 C                    -0.088409
     18 H                     0.125445
     19 H                     0.093903
     20 H                     0.090512
     21 C                    -0.275290
     22 S                    -0.017877
     23 C                     0.003479
     24 H                     0.193878
     25 H                     0.205726
     26 C                    -0.041952
     27 S                     0.136925
     28 C                    -0.202101
     29 C                    -0.123200
     30 C                    -0.008511
     31 C                     0.377363
     32 C                    -0.138977
     33 S                     0.056689
     34 C                     0.459230
     35 O                    -0.444594
     36 O                    -0.297528
     37 F                    -0.208798
     38 C                    -0.054640
     39 H                     0.117006
     40 H                     0.085256
     41 H                     0.084900
     42 H                     0.217102
  ----------------------------------------
  Sum of atomic charges =     0.000000

                    Cartesian Multipole Moments
 -----------------------------------------------------------------
    Charge (ESU x 10^10)
                -0.0000
    Dipole Moment (Debye)
         X       3.0219      Y       2.2994      Z       2.6705
       Tot       4.6423
    Quadrupole Moments (Debye-Ang)
        XX    -174.4682     XY       9.5434     YY    -168.6478
        XZ     -17.5164     YZ      -7.3385     ZZ    -199.5952

 Total job time:  287.93s(wall), 9422.27s(cpu)
        *  Thank you very much for using Q-Chem.  Have a nice day.  *
