 Q-Chem 5.4, Q-Chem, Inc., Pleasanton, CA (2021)
 Q-Chem 5.4.0 for Intel X86 EM64T Linux

User input:
--------------------------------------------------------------
$molecule
0 1
C	-0.255459	-8.519741	-0.093711
C	0.799036	-7.635967	0.083869
S	-1.789425	-7.651740	-0.345260
C	0.418360	-6.261894	0.018411
H	1.834294	-7.954738	0.259169
C	-0.987769	-6.079985	-0.229701
C	-1.555260	-4.798382	-0.302697
C	1.294992	-5.153542	0.196459
C	0.726408	-3.869626	0.127651
C	-0.680716	-3.688927	-0.123544
O	2.601852	-5.481075	0.396706
O	-2.868193	-4.479871	-0.502673
C	-3.691495	-5.356026	-1.262918
H	-4.614080	-4.790496	-1.494604
H	-3.974195	-6.268513	-0.693738
H	-3.199559	-5.658187	-2.212720
C	3.490743	-4.546999	0.997016
H	4.416630	-5.107564	1.226691
H	3.073934	-4.131473	1.939526
H	3.746794	-3.712085	0.309214
C	-1.058247	-2.314326	-0.186133
S	1.527599	-2.295487	0.256010
C	0.000000	-1.435180	0.000000
H	-2.092285	-1.993211	-0.363896
H	-0.250435	-9.615985	-0.090328
C	0.000000	0.000000	0.000000
S	0.080615	0.895811	1.510732
C	0.216842	2.465231	0.727629
C	0.079127	0.904769	-1.064665
C	0.198659	2.288406	-0.678287
C	0.074988	0.838492	-2.486150
C	0.185097	2.098524	-3.106916
S	0.290501	3.341568	-1.965735
C	0.211932	2.351623	-4.559972
O	0.133545	1.421416	-5.350277
O	0.326994	3.629649	-5.004375
F	-0.018214	-0.271734	-3.246290
C	0.368367	3.986101	-6.334976
H	0.465270	5.086806	-6.370268
H	-0.553140	3.675878	-6.875609
H	1.229874	3.519263	-6.861878
H	0.297091	3.381746	1.321510
$end

$rem
JOBTYPE		SP
EXCHANGE	HF
CORRELATION	pRIMP2
BASIS		cc-pvtz
METHOD		rimp2
AUX_BASIS	rimp2-cc-pvtz
SOLVENT_METHOD	PCM
PURECART	11111
SYMMETRY	false
MEM_TOTAL	110000
SCF_CONVERGENCE = 6
THRESH=10
GUI = 2
$end

$solvent
dielectric 4.90
$end
--------------------------------------------------------------

             Standard Nuclear Orientation (Angstroms)
    I     Atom           X                Y                Z
 ----------------------------------------------------------------
    1      C      -0.2554590000    -8.5197410000    -0.0937110000
    2      C       0.7990360000    -7.6359670000     0.0838690000
    3      S      -1.7894250000    -7.6517400000    -0.3452600000
    4      C       0.4183600000    -6.2618940000     0.0184110000
    5      H       1.8342940000    -7.9547380000     0.2591690000
    6      C      -0.9877690000    -6.0799850000    -0.2297010000
    7      C      -1.5552600000    -4.7983820000    -0.3026970000
    8      C       1.2949920000    -5.1535420000     0.1964590000
    9      C       0.7264080000    -3.8696260000     0.1276510000
   10      C      -0.6807160000    -3.6889270000    -0.1235440000
   11      O       2.6018520000    -5.4810750000     0.3967060000
   12      O      -2.8681930000    -4.4798710000    -0.5026730000
   13      C      -3.6914950000    -5.3560260000    -1.2629180000
   14      H      -4.6140800000    -4.7904960000    -1.4946040000
   15      H      -3.9741950000    -6.2685130000    -0.6937380000
   16      H      -3.1995590000    -5.6581870000    -2.2127200000
   17      C       3.4907430000    -4.5469990000     0.9970160000
   18      H       4.4166300000    -5.1075640000     1.2266910000
   19      H       3.0739340000    -4.1314730000     1.9395260000
   20      H       3.7467940000    -3.7120850000     0.3092140000
   21      C      -1.0582470000    -2.3143260000    -0.1861330000
   22      S       1.5275990000    -2.2954870000     0.2560100000
   23      C       0.0000000000    -1.4351800000     0.0000000000
   24      H      -2.0922850000    -1.9932110000    -0.3638960000
   25      H      -0.2504350000    -9.6159850000    -0.0903280000
   26      C       0.0000000000     0.0000000000     0.0000000000
   27      S       0.0806150000     0.8958110000     1.5107320000
   28      C       0.2168420000     2.4652310000     0.7276290000
   29      C       0.0791270000     0.9047690000    -1.0646650000
   30      C       0.1986590000     2.2884060000    -0.6782870000
   31      C       0.0749880000     0.8384920000    -2.4861500000
   32      C       0.1850970000     2.0985240000    -3.1069160000
   33      S       0.2905010000     3.3415680000    -1.9657350000
   34      C       0.2119320000     2.3516230000    -4.5599720000
   35      O       0.1335450000     1.4214160000    -5.3502770000
   36      O       0.3269940000     3.6296490000    -5.0043750000
   37      F      -0.0182140000    -0.2717340000    -3.2462900000
   38      C       0.3683670000     3.9861010000    -6.3349760000
   39      H       0.4652700000     5.0868060000    -6.3702680000
   40      H      -0.5531400000     3.6758780000    -6.8756090000
   41      H       1.2298740000     3.5192630000    -6.8618780000
   42      H       0.2970910000     3.3817460000     1.3215100000
 ----------------------------------------------------------------

   10   -2754.2947763096      8.68e-07  Convergence criterion met
 Total energy in the final basis set =    -2754.2947763096
        RIMP2         total energy =     -2759.3469209648 a.u.

                    Orbital Energies (a.u.)
 --------------------------------------------------------------

 Alpha MOs
 -- Occupied --
-92.0159 -91.9942 -91.9902 -91.9867 -26.3337 -20.6119 -20.5926 -20.5919
-20.5499 -11.4102 -11.3770 -11.3194 -11.3190 -11.3094 -11.2971 -11.2958
-11.2934 -11.2930 -11.2883 -11.2873 -11.2869 -11.2861 -11.2842 -11.2827
-11.2804 -11.2610 -11.2599 -11.2596 -11.2502  -9.0140  -8.9982  -8.9905
 -8.9866  -6.6947  -6.6942  -6.6937  -6.6795  -6.6788  -6.6775  -6.6715
 -6.6708  -6.6698  -6.6676  -6.6669  -6.6661  -1.6465  -1.4717  -1.4167
 -1.4146  -1.3670  -1.2328  -1.1962  -1.1683  -1.1416  -1.0840  -1.0524
 -1.0471  -1.0273  -1.0026  -0.9933  -0.9710  -0.9615  -0.9506  -0.9382
 -0.8961  -0.8689  -0.8509  -0.8044  -0.7909  -0.7883  -0.7734  -0.7691
 -0.7585  -0.7329  -0.7179  -0.7148  -0.7016  -0.6886  -0.6833  -0.6783
 -0.6708  -0.6603  -0.6593  -0.6528  -0.6310  -0.6203  -0.6172  -0.6062
 -0.6019  -0.5941  -0.5829  -0.5796  -0.5676  -0.5644  -0.5561  -0.5510
 -0.5360  -0.5259  -0.5241  -0.5162  -0.5147  -0.5079  -0.5014  -0.4934
 -0.4913  -0.4837  -0.4763  -0.4689  -0.4617  -0.4610  -0.4608  -0.4067
 -0.3999  -0.3877  -0.3579  -0.3485  -0.3148  -0.2893  -0.2594

          Ground-State Mulliken Net Atomic Charges

     Atom                 Charge (a.u.)
  ----------------------------------------
      1 C                    -0.186722
      2 C                    -0.254553
      3 S                    -0.021312
      4 C                    -0.012386
      5 H                     0.196554
      6 C                    -0.027746
      7 C                     0.247653
      8 C                     0.238979
      9 C                    -0.045739
     10 C                    -0.032586
     11 O                    -0.333062
     12 O                    -0.339836
     13 C                    -0.085652
     14 H                     0.122819
     15 H                     0.090844
     16 H                     0.094799
     17 C                    -0.086466
     18 H                     0.124867
     19 H                     0.094226
     20 H                     0.090191
     21 C                    -0.211697
     22 S                     0.001895
     23 C                    -0.057586
     24 H                     0.196607
     25 H                     0.206712
     26 C                    -0.014791
     27 S                     0.118907
     28 C                    -0.239547
     29 C                    -0.088703
     30 C                    -0.004897
     31 C                     0.392581
     32 C                    -0.158516
     33 S                     0.036975
     34 C                     0.460603
     35 O                    -0.450208
     36 O                    -0.297758
     37 F                    -0.210908
     38 C                    -0.055063
     39 H                     0.116536
     40 H                     0.084543
     41 H                     0.084534
     42 H                     0.214906
  ----------------------------------------
  Sum of atomic charges =     0.000000

                    Cartesian Multipole Moments
 -----------------------------------------------------------------
    Charge (ESU x 10^10)
                -0.0000
    Dipole Moment (Debye)
         X       0.3814      Y       1.4272      Z       3.0300
       Tot       3.3709
    Quadrupole Moments (Debye-Ang)
        XX    -180.2142     XY       1.7312     YY    -158.0728
        XZ       8.2567     YZ      -9.0386     ZZ    -202.7141

 Total job time:  284.99s(wall), 9322.89s(cpu)
        *  Thank you very much for using Q-Chem.  Have a nice day.  *
