 Q-Chem 5.4, Q-Chem, Inc., Pleasanton, CA (2021)
 Q-Chem 5.4.0 for Intel X86 EM64T Linux

User input:
--------------------------------------------------------------
$molecule
0 1
C	-0.235993	-8.519741	0.135457
C	0.577858	-7.635967	-0.558188
S	-1.414705	-7.651740	1.148850
C	0.283020	-6.261894	-0.308648
H	1.377597	-7.954738	-1.238560
C	-0.810887	-6.079985	0.609026
C	-1.231581	-4.798382	0.996828
C	0.982901	-5.153542	-0.865740
C	0.564713	-3.869626	-0.474408
C	-0.532196	-3.688927	0.442046
O	1.976332	-5.481075	-1.738137
O	-2.228709	-4.479871	1.874052
C	-3.340298	-5.356026	2.016062
H	-4.110807	-4.790496	2.573877
H	-3.085998	-6.268513	2.598484
H	-3.751679	-5.658187	1.028695
C	3.007565	-4.546999	-2.033195
H	3.778655	-5.107564	-2.594833
H	3.461650	-4.131473	-1.108067
H	2.645264	-3.712085	-2.671451
C	-0.822814	-2.314326	0.691020
S	1.178037	-2.295487	-1.005649
C	0.000000	-1.435180	0.000000
H	-1.623656	-1.993211	1.368875
H	-0.230172	-9.615985	0.133782
C	0.000000	0.000000	0.000000
S	0.002233	0.899428	1.510732
C	0.001157	2.474749	0.727629
C	-0.000030	0.908223	-1.064665
C	-0.001545	2.297013	-0.678287
C	0.001624	0.841837	-2.486150
C	0.001494	2.106670	-3.106916
S	-0.001841	3.354171	-1.965735
C	0.006168	2.361146	-4.559972
O	0.009152	1.427646	-5.350277
O	0.009405	3.644337	-5.004375
F	0.005539	-0.272288	-3.246290
C	0.019554	4.003038	-6.334976
H	0.020155	5.108000	-6.370268
H	-0.871409	3.613681	-6.875609
H	0.918470	3.613062	-6.861878
H	0.001222	3.394771	1.321510
$end

$rem
JOBTYPE		SP
EXCHANGE	HF
CORRELATION	pRIMP2
BASIS		cc-pvtz
METHOD		rimp2
AUX_BASIS	rimp2-cc-pvtz
SOLVENT_METHOD	PCM
PURECART	11111
SYMMETRY	false
MEM_TOTAL	110000
SCF_CONVERGENCE = 6
THRESH=10
GUI = 2
$end

$solvent
dielectric 4.90
$end
--------------------------------------------------------------

             Standard Nuclear Orientation (Angstroms)
    I     Atom           X                Y                Z
 ----------------------------------------------------------------
    1      C      -0.2359930000    -8.5197410000     0.1354570000
    2      C       0.5778580000    -7.6359670000    -0.5581880000
    3      S      -1.4147050000    -7.6517400000     1.1488500000
    4      C       0.2830200000    -6.2618940000    -0.3086480000
    5      H       1.3775970000    -7.9547380000    -1.2385600000
    6      C      -0.8108870000    -6.0799850000     0.6090260000
    7      C      -1.2315810000    -4.7983820000     0.9968280000
    8      C       0.9829010000    -5.1535420000    -0.8657400000
    9      C       0.5647130000    -3.8696260000    -0.4744080000
   10      C      -0.5321960000    -3.6889270000     0.4420460000
   11      O       1.9763320000    -5.4810750000    -1.7381370000
   12      O      -2.2287090000    -4.4798710000     1.8740520000
   13      C      -3.3402980000    -5.3560260000     2.0160620000
   14      H      -4.1108070000    -4.7904960000     2.5738770000
   15      H      -3.0859980000    -6.2685130000     2.5984840000
   16      H      -3.7516790000    -5.6581870000     1.0286950000
   17      C       3.0075650000    -4.5469990000    -2.0331950000
   18      H       3.7786550000    -5.1075640000    -2.5948330000
   19      H       3.4616500000    -4.1314730000    -1.1080670000
   20      H       2.6452640000    -3.7120850000    -2.6714510000
   21      C      -0.8228140000    -2.3143260000     0.6910200000
   22      S       1.1780370000    -2.2954870000    -1.0056490000
   23      C       0.0000000000    -1.4351800000     0.0000000000
   24      H      -1.6236560000    -1.9932110000     1.3688750000
   25      H      -0.2301720000    -9.6159850000     0.1337820000
   26      C       0.0000000000     0.0000000000     0.0000000000
   27      S       0.0022330000     0.8994280000     1.5107320000
   28      C       0.0011570000     2.4747490000     0.7276290000
   29      C      -0.0000300000     0.9082230000    -1.0646650000
   30      C      -0.0015450000     2.2970130000    -0.6782870000
   31      C       0.0016240000     0.8418370000    -2.4861500000
   32      C       0.0014940000     2.1066700000    -3.1069160000
   33      S      -0.0018410000     3.3541710000    -1.9657350000
   34      C       0.0061680000     2.3611460000    -4.5599720000
   35      O       0.0091520000     1.4276460000    -5.3502770000
   36      O       0.0094050000     3.6443370000    -5.0043750000
   37      F       0.0055390000    -0.2722880000    -3.2462900000
   38      C       0.0195540000     4.0030380000    -6.3349760000
   39      H       0.0201550000     5.1080000000    -6.3702680000
   40      H      -0.8714090000     3.6136810000    -6.8756090000
   41      H       0.9184700000     3.6130620000    -6.8618780000
   42      H       0.0012220000     3.3947710000     1.3215100000
 ----------------------------------------------------------------

   10   -2754.2973054667      8.27e-07  Convergence criterion met
 Total energy in the final basis set =    -2754.2973054667
        RIMP2         total energy =     -2759.3505636794 a.u.

                    Orbital Energies (a.u.)
 --------------------------------------------------------------

 Alpha MOs
 -- Occupied --
-92.0165 -91.9943 -91.9894 -91.9867 -26.3336 -20.6117 -20.5922 -20.5921
-20.5494 -11.4098 -11.3774 -11.3193 -11.3190 -11.3123 -11.2966 -11.2962
-11.2957 -11.2923 -11.2883 -11.2870 -11.2866 -11.2865 -11.2843 -11.2818
-11.2804 -11.2617 -11.2598 -11.2598 -11.2502  -9.0146  -8.9984  -8.9898
 -8.9866  -6.6953  -6.6947  -6.6943  -6.6796  -6.6790  -6.6776  -6.6707
 -6.6700  -6.6690  -6.6676  -6.6670  -6.6661  -1.6469  -1.4714  -1.4163
 -1.4149  -1.3666  -1.2332  -1.1965  -1.1687  -1.1418  -1.0846  -1.0525
 -1.0473  -1.0277  -1.0027  -0.9936  -0.9714  -0.9613  -0.9505  -0.9385
 -0.8961  -0.8689  -0.8514  -0.8074  -0.7911  -0.7877  -0.7748  -0.7656
 -0.7586  -0.7330  -0.7182  -0.7151  -0.7010  -0.6882  -0.6837  -0.6782
 -0.6710  -0.6611  -0.6592  -0.6528  -0.6302  -0.6203  -0.6170  -0.6061
 -0.6017  -0.5941  -0.5859  -0.5755  -0.5695  -0.5656  -0.5573  -0.5524
 -0.5320  -0.5263  -0.5252  -0.5163  -0.5144  -0.5082  -0.5014  -0.4964
 -0.4893  -0.4839  -0.4771  -0.4679  -0.4615  -0.4611  -0.4595  -0.4157
 -0.3976  -0.3869  -0.3583  -0.3499  -0.3206  -0.2858  -0.2542

          Ground-State Mulliken Net Atomic Charges

     Atom                 Charge (a.u.)
  ----------------------------------------
      1 C                    -0.186933
      2 C                    -0.254092
      3 S                    -0.021956
      4 C                    -0.013476
      5 H                     0.196759
      6 C                    -0.028306
      7 C                     0.246644
      8 C                     0.239912
      9 C                    -0.043538
     10 C                    -0.028484
     11 O                    -0.333226
     12 O                    -0.339894
     13 C                    -0.085765
     14 H                     0.122597
     15 H                     0.091221
     16 H                     0.094545
     17 C                    -0.086857
     18 H                     0.125114
     19 H                     0.094233
     20 H                     0.090921
     21 C                    -0.239887
     22 S                    -0.002740
     23 C                    -0.014654
     24 H                     0.198275
     25 H                     0.206699
     26 C                    -0.006087
     27 S                     0.112823
     28 C                    -0.242791
     29 C                    -0.105848
     30 C                    -0.008594
     31 C                     0.390725
     32 C                    -0.150274
     33 S                     0.036331
     34 C                     0.460452
     35 O                    -0.451188
     36 O                    -0.298023
     37 F                    -0.209947
     38 C                    -0.055017
     39 H                     0.116502
     40 H                     0.084559
     41 H                     0.084289
     42 H                     0.214976
  ----------------------------------------
  Sum of atomic charges =     0.000000

                    Cartesian Multipole Moments
 -----------------------------------------------------------------
    Charge (ESU x 10^10)
                -0.0000
    Dipole Moment (Debye)
         X      -0.0773      Y       1.3762      Z       3.0048
       Tot       3.3059
    Quadrupole Moments (Debye-Ang)
        XX    -181.6034     XY       1.3146     YY    -158.2105
        XZ     -10.3522     YZ      -9.5055     ZZ    -201.6281

 Total job time:  293.58s(wall), 9486.69s(cpu)
        *  Thank you very much for using Q-Chem.  Have a nice day.  *
