 Q-Chem 5.4, Q-Chem, Inc., Pleasanton, CA (2021)
 Q-Chem 5.4.0 for Intel X86 EM64T Linux

User input:
--------------------------------------------------------------
$molecule
0 1
C	-0.208002	-8.519741	-0.175432
C	0.722164	-7.635967	0.352097
S	-1.563424	-7.651740	-0.936458
C	0.386833	-6.261894	0.160388
H	1.635031	-7.954738	0.870905
C	-0.849637	-6.079985	-0.553685
C	-1.357938	-4.798382	-0.816372
C	1.149702	-5.153542	0.627524
C	0.638941	-3.869626	0.368399
C	-0.597409	-3.688927	-0.348912
O	2.309260	-5.481075	1.262667
O	-2.523296	-4.479871	-1.453338
C	-3.036927	-5.356026	-2.449320
H	-3.824632	-4.790496	-2.982577
H	-3.497250	-6.268513	-2.011155
H	-2.249807	-5.658187	-3.173591
C	2.939226	-4.546999	2.130793
H	3.730721	-5.107564	2.663289
H	2.225196	-4.131473	2.873906
H	3.415077	-3.712085	1.572045
C	-0.930765	-2.314326	-0.536849
S	1.347913	-2.295487	0.763041
C	0.000000	-1.435180	0.000000
H	-1.841645	-1.993211	-1.057554
H	-0.204438	-9.615985	-0.170535
C	0.000000	0.000000	0.000000
S	0.002233	0.899428	1.510732
C	0.001157	2.474749	0.727629
C	-0.000030	0.908223	-1.064665
C	-0.001545	2.297013	-0.678287
C	0.001624	0.841837	-2.486150
C	0.001494	2.106670	-3.106916
S	-0.001841	3.354171	-1.965735
C	0.006168	2.361146	-4.559972
O	0.009152	1.427646	-5.350277
O	0.009405	3.644337	-5.004375
F	0.005539	-0.272288	-3.246290
C	0.019554	4.003038	-6.334976
H	0.020155	5.108000	-6.370268
H	-0.871409	3.613681	-6.875609
H	0.918470	3.613062	-6.861878
H	0.001222	3.394771	1.321510
$end

$rem
JOBTYPE		SP
EXCHANGE	HF
CORRELATION	pRIMP2
BASIS		cc-pvtz
METHOD		rimp2
AUX_BASIS	rimp2-cc-pvtz
SOLVENT_METHOD	PCM
PURECART	11111
SYMMETRY	false
MEM_TOTAL	110000
SCF_CONVERGENCE = 6
THRESH=10
GUI = 2
$end

$solvent
dielectric 4.90
$end
--------------------------------------------------------------

             Standard Nuclear Orientation (Angstroms)
    I     Atom           X                Y                Z
 ----------------------------------------------------------------
    1      C      -0.2080020000    -8.5197410000    -0.1754320000
    2      C       0.7221640000    -7.6359670000     0.3520970000
    3      S      -1.5634240000    -7.6517400000    -0.9364580000
    4      C       0.3868330000    -6.2618940000     0.1603880000
    5      H       1.6350310000    -7.9547380000     0.8709050000
    6      C      -0.8496370000    -6.0799850000    -0.5536850000
    7      C      -1.3579380000    -4.7983820000    -0.8163720000
    8      C       1.1497020000    -5.1535420000     0.6275240000
    9      C       0.6389410000    -3.8696260000     0.3683990000
   10      C      -0.5974090000    -3.6889270000    -0.3489120000
   11      O       2.3092600000    -5.4810750000     1.2626670000
   12      O      -2.5232960000    -4.4798710000    -1.4533380000
   13      C      -3.0369270000    -5.3560260000    -2.4493200000
   14      H      -3.8246320000    -4.7904960000    -2.9825770000
   15      H      -3.4972500000    -6.2685130000    -2.0111550000
   16      H      -2.2498070000    -5.6581870000    -3.1735910000
   17      C       2.9392260000    -4.5469990000     2.1307930000
   18      H       3.7307210000    -5.1075640000     2.6632890000
   19      H       2.2251960000    -4.1314730000     2.8739060000
   20      H       3.4150770000    -3.7120850000     1.5720450000
   21      C      -0.9307650000    -2.3143260000    -0.5368490000
   22      S       1.3479130000    -2.2954870000     0.7630410000
   23      C       0.0000000000    -1.4351800000     0.0000000000
   24      H      -1.8416450000    -1.9932110000    -1.0575540000
   25      H      -0.2044380000    -9.6159850000    -0.1705350000
   26      C       0.0000000000     0.0000000000     0.0000000000
   27      S       0.0022330000     0.8994280000     1.5107320000
   28      C       0.0011570000     2.4747490000     0.7276290000
   29      C      -0.0000300000     0.9082230000    -1.0646650000
   30      C      -0.0015450000     2.2970130000    -0.6782870000
   31      C       0.0016240000     0.8418370000    -2.4861500000
   32      C       0.0014940000     2.1066700000    -3.1069160000
   33      S      -0.0018410000     3.3541710000    -1.9657350000
   34      C       0.0061680000     2.3611460000    -4.5599720000
   35      O       0.0091520000     1.4276460000    -5.3502770000
   36      O       0.0094050000     3.6443370000    -5.0043750000
   37      F       0.0055390000    -0.2722880000    -3.2462900000
   38      C       0.0195540000     4.0030380000    -6.3349760000
   39      H       0.0201550000     5.1080000000    -6.3702680000
   40      H      -0.8714090000     3.6136810000    -6.8756090000
   41      H       0.9184700000     3.6130620000    -6.8618780000
   42      H       0.0012220000     3.3947710000     1.3215100000
 ----------------------------------------------------------------

   10   -2754.2969043818      8.24e-07  Convergence criterion met
 Total energy in the final basis set =    -2754.2969043818
        RIMP2         total energy =     -2759.3491953556 a.u.

                    Orbital Energies (a.u.)
 --------------------------------------------------------------

 Alpha MOs
 -- Occupied --
-92.0159 -91.9941 -91.9911 -91.9867 -26.3338 -20.6118 -20.5928 -20.5917
-20.5497 -11.4100 -11.3773 -11.3197 -11.3190 -11.3112 -11.2965 -11.2961
-11.2943 -11.2929 -11.2883 -11.2875 -11.2873 -11.2858 -11.2844 -11.2823
-11.2805 -11.2616 -11.2600 -11.2596 -11.2503  -9.0141  -8.9982  -8.9914
 -8.9867  -6.6948  -6.6943  -6.6938  -6.6794  -6.6788  -6.6774  -6.6723
 -6.6717  -6.6707  -6.6676  -6.6670  -6.6661  -1.6467  -1.4716  -1.4169
 -1.4145  -1.3668  -1.2329  -1.1966  -1.1687  -1.1418  -1.0843  -1.0526
 -1.0473  -1.0274  -1.0029  -0.9935  -0.9713  -0.9616  -0.9507  -0.9384
 -0.8964  -0.8689  -0.8511  -0.8039  -0.7922  -0.7882  -0.7729  -0.7698
 -0.7584  -0.7330  -0.7182  -0.7149  -0.7018  -0.6887  -0.6834  -0.6783
 -0.6708  -0.6607  -0.6595  -0.6528  -0.6306  -0.6203  -0.6172  -0.6061
 -0.6019  -0.5940  -0.5844  -0.5788  -0.5681  -0.5626  -0.5558  -0.5511
 -0.5367  -0.5260  -0.5236  -0.5165  -0.5159  -0.5081  -0.5023  -0.4941
 -0.4898  -0.4837  -0.4775  -0.4696  -0.4618  -0.4610  -0.4607  -0.4116
 -0.3982  -0.3876  -0.3585  -0.3490  -0.3188  -0.2875  -0.2561

          Ground-State Mulliken Net Atomic Charges

     Atom                 Charge (a.u.)
  ----------------------------------------
      1 C                    -0.186704
      2 C                    -0.254556
      3 S                    -0.020700
      4 C                    -0.013171
      5 H                     0.196498
      6 C                    -0.027080
      7 C                     0.245621
      8 C                     0.240104
      9 C                    -0.047610
     10 C                    -0.029910
     11 O                    -0.333050
     12 O                    -0.339788
     13 C                    -0.085635
     14 H                     0.123029
     15 H                     0.090770
     16 H                     0.094837
     17 C                    -0.086968
     18 H                     0.125063
     19 H                     0.094418
     20 H                     0.090064
     21 C                    -0.215428
     22 S                    -0.003064
     23 C                    -0.036957
     24 H                     0.197408
     25 H                     0.206720
     26 C                    -0.026336
     27 S                     0.112986
     28 C                    -0.240446
     29 C                    -0.085451
     30 C                    -0.007737
     31 C                     0.395763
     32 C                    -0.154583
     33 S                     0.035790
     34 C                     0.460625
     35 O                    -0.450998
     36 O                    -0.297886
     37 F                    -0.211383
     38 C                    -0.055022
     39 H                     0.116545
     40 H                     0.084424
     41 H                     0.084492
     42 H                     0.215305
  ----------------------------------------
  Sum of atomic charges =     0.000000

                    Cartesian Multipole Moments
 -----------------------------------------------------------------
    Charge (ESU x 10^10)
                -0.0000
    Dipole Moment (Debye)
         X       0.1356      Y       1.3358      Z       3.0749
       Tot       3.3553
    Quadrupole Moments (Debye-Ang)
        XX    -188.3295     XY      -0.1955     YY    -157.6818
        XZ      12.7142     YZ      -8.9640     ZZ    -194.9012

 Total job time:  302.55s(wall), 9972.82s(cpu)
        *  Thank you very much for using Q-Chem.  Have a nice day.  *
