 Q-Chem 5.4, Q-Chem, Inc., Pleasanton, CA (2021)
 Q-Chem 5.4.0 for Intel X86 EM64T Linux

User input:
--------------------------------------------------------------
$molecule
0 1
C	0.174379	-8.519741	0.208886
C	-0.650052	-7.635967	-0.472151
S	1.377058	-7.651740	1.193717
C	-0.353105	-6.261894	-0.225125
H	-1.458961	-7.954738	-1.141594
C	0.740583	-6.079985	0.692811
C	1.195546	-4.798382	1.039773
C	-1.023267	-5.153542	-0.817634
C	-0.565262	-3.869626	-0.473754
C	0.527745	-3.688927	0.447350
O	-2.054917	-5.481075	-1.644483
O	2.232592	-4.479871	1.869424
C	2.565470	-5.356026	2.939466
H	3.248608	-4.790496	3.601405
H	3.094885	-6.268513	2.587892
H	1.664539	-5.658187	3.516052
C	-2.524564	-4.546999	-2.608813
H	-3.211568	-5.107564	-3.270661
H	-1.692342	-4.131473	-3.216646
H	-3.090211	-3.712085	-2.141184
C	0.823402	-2.314326	0.690319
S	-1.194935	-2.295487	-0.985511
C	0.000000	-1.435180	0.000000
H	1.630024	-1.993211	1.361286
H	0.171719	-9.615985	0.203444
C	0.000000	0.000000	0.000000
S	0.080615	0.895811	1.510732
C	0.216842	2.465231	0.727629
C	0.079127	0.904769	-1.064665
C	0.198659	2.288406	-0.678287
C	0.074988	0.838492	-2.486150
C	0.185097	2.098524	-3.106916
S	0.290501	3.341568	-1.965735
C	0.211932	2.351623	-4.559972
O	0.133545	1.421416	-5.350277
O	0.326994	3.629649	-5.004375
F	-0.018214	-0.271734	-3.246290
C	0.368367	3.986101	-6.334976
H	0.465270	5.086806	-6.370268
H	-0.553140	3.675878	-6.875609
H	1.229874	3.519263	-6.861878
H	0.297091	3.381746	1.321510
$end

$rem
JOBTYPE		SP
EXCHANGE	HF
CORRELATION	pRIMP2
BASIS		cc-pvtz
METHOD		rimp2
AUX_BASIS	rimp2-cc-pvtz
SOLVENT_METHOD	PCM
PURECART	11111
SYMMETRY	false
MEM_TOTAL	110000
SCF_CONVERGENCE = 6
THRESH=10
GUI = 2
$end

$solvent
dielectric 4.90
$end
--------------------------------------------------------------

             Standard Nuclear Orientation (Angstroms)
    I     Atom           X                Y                Z
 ----------------------------------------------------------------
    1      C       0.1743790000    -8.5197410000     0.2088860000
    2      C      -0.6500520000    -7.6359670000    -0.4721510000
    3      S       1.3770580000    -7.6517400000     1.1937170000
    4      C      -0.3531050000    -6.2618940000    -0.2251250000
    5      H      -1.4589610000    -7.9547380000    -1.1415940000
    6      C       0.7405830000    -6.0799850000     0.6928110000
    7      C       1.1955460000    -4.7983820000     1.0397730000
    8      C      -1.0232670000    -5.1535420000    -0.8176340000
    9      C      -0.5652620000    -3.8696260000    -0.4737540000
   10      C       0.5277450000    -3.6889270000     0.4473500000
   11      O      -2.0549170000    -5.4810750000    -1.6444830000
   12      O       2.2325920000    -4.4798710000     1.8694240000
   13      C       2.5654700000    -5.3560260000     2.9394660000
   14      H       3.2486080000    -4.7904960000     3.6014050000
   15      H       3.0948850000    -6.2685130000     2.5878920000
   16      H       1.6645390000    -5.6581870000     3.5160520000
   17      C      -2.5245640000    -4.5469990000    -2.6088130000
   18      H      -3.2115680000    -5.1075640000    -3.2706610000
   19      H      -1.6923420000    -4.1314730000    -3.2166460000
   20      H      -3.0902110000    -3.7120850000    -2.1411840000
   21      C       0.8234020000    -2.3143260000     0.6903190000
   22      S      -1.1949350000    -2.2954870000    -0.9855110000
   23      C       0.0000000000    -1.4351800000     0.0000000000
   24      H       1.6300240000    -1.9932110000     1.3612860000
   25      H       0.1717190000    -9.6159850000     0.2034440000
   26      C       0.0000000000     0.0000000000     0.0000000000
   27      S       0.0806150000     0.8958110000     1.5107320000
   28      C       0.2168420000     2.4652310000     0.7276290000
   29      C       0.0791270000     0.9047690000    -1.0646650000
   30      C       0.1986590000     2.2884060000    -0.6782870000
   31      C       0.0749880000     0.8384920000    -2.4861500000
   32      C       0.1850970000     2.0985240000    -3.1069160000
   33      S       0.2905010000     3.3415680000    -1.9657350000
   34      C       0.2119320000     2.3516230000    -4.5599720000
   35      O       0.1335450000     1.4214160000    -5.3502770000
   36      O       0.3269940000     3.6296490000    -5.0043750000
   37      F      -0.0182140000    -0.2717340000    -3.2462900000
   38      C       0.3683670000     3.9861010000    -6.3349760000
   39      H       0.4652700000     5.0868060000    -6.3702680000
   40      H      -0.5531400000     3.6758780000    -6.8756090000
   41      H       1.2298740000     3.5192630000    -6.8618780000
   42      H       0.2970910000     3.3817460000     1.3215100000
 ----------------------------------------------------------------

   10   -2754.2968955161      8.27e-07  Convergence criterion met
 Total energy in the final basis set =    -2754.2968955161
        RIMP2         total energy =     -2759.3503329353 a.u.

                    Orbital Energies (a.u.)
 --------------------------------------------------------------

 Alpha MOs
 -- Occupied --
-92.0166 -91.9944 -91.9891 -91.9867 -26.3337 -20.6118 -20.5922 -20.5920
-20.5495 -11.4099 -11.3774 -11.3192 -11.3190 -11.3120 -11.2966 -11.2964
-11.2958 -11.2925 -11.2883 -11.2869 -11.2866 -11.2863 -11.2843 -11.2820
-11.2803 -11.2616 -11.2597 -11.2597 -11.2502  -9.0147  -8.9984  -8.9895
 -8.9866  -6.6954  -6.6948  -6.6944  -6.6797  -6.6790  -6.6777  -6.6705
 -6.6698  -6.6688  -6.6676  -6.6670  -6.6661  -1.6471  -1.4715  -1.4163
 -1.4148  -1.3667  -1.2333  -1.1965  -1.1687  -1.1418  -1.0845  -1.0525
 -1.0474  -1.0278  -1.0026  -0.9936  -0.9714  -0.9613  -0.9504  -0.9385
 -0.8960  -0.8690  -0.8513  -0.8074  -0.7910  -0.7878  -0.7749  -0.7658
 -0.7585  -0.7329  -0.7182  -0.7152  -0.7010  -0.6883  -0.6836  -0.6782
 -0.6711  -0.6612  -0.6588  -0.6528  -0.6303  -0.6203  -0.6169  -0.6061
 -0.6015  -0.5943  -0.5859  -0.5749  -0.5702  -0.5676  -0.5564  -0.5520
 -0.5316  -0.5268  -0.5231  -0.5173  -0.5150  -0.5082  -0.5017  -0.4941
 -0.4891  -0.4836  -0.4791  -0.4676  -0.4617  -0.4607  -0.4604  -0.4147
 -0.3978  -0.3870  -0.3582  -0.3499  -0.3205  -0.2863  -0.2540

          Ground-State Mulliken Net Atomic Charges

     Atom                 Charge (a.u.)
  ----------------------------------------
      1 C                    -0.187085
      2 C                    -0.254002
      3 S                    -0.022103
      4 C                    -0.013249
      5 H                     0.196740
      6 C                    -0.029088
      7 C                     0.245049
      8 C                     0.240917
      9 C                    -0.045903
     10 C                    -0.031339
     11 O                    -0.333574
     12 O                    -0.340019
     13 C                    -0.085754
     14 H                     0.122653
     15 H                     0.091328
     16 H                     0.094115
     17 C                    -0.087440
     18 H                     0.124711
     19 H                     0.096517
     20 H                     0.089464
     21 C                    -0.232772
     22 S                     0.000376
     23 C                    -0.015741
     24 H                     0.199081
     25 H                     0.206686
     26 C                    -0.013833
     27 S                     0.110976
     28 C                    -0.240419
     29 C                    -0.097024
     30 C                    -0.009879
     31 C                     0.388042
     32 C                    -0.150449
     33 S                     0.036937
     34 C                     0.460000
     35 O                    -0.451253
     36 O                    -0.297944
     37 F                    -0.210098
     38 C                    -0.055080
     39 H                     0.116529
     40 H                     0.084387
     41 H                     0.084471
     42 H                     0.215071
  ----------------------------------------
  Sum of atomic charges =     0.000000

                    Cartesian Multipole Moments
 -----------------------------------------------------------------
    Charge (ESU x 10^10)
                -0.0000
    Dipole Moment (Debye)
         X       0.0672      Y       1.4126      Z       3.3686
       Tot       3.6534
    Quadrupole Moments (Debye-Ang)
        XX    -192.7158     XY       2.1055     YY    -158.4976
        XZ      11.3021     YZ     -11.7233     ZZ    -190.3966

 Total job time:  280.55s(wall), 9454.72s(cpu)
        *  Thank you very much for using Q-Chem.  Have a nice day.  *
