 Q-Chem 5.4, Q-Chem, Inc., Pleasanton, CA (2021)
 Q-Chem 5.4.0 for Intel X86 EM64T Linux

User input:
--------------------------------------------------------------
$molecule
0 1
C	0.093711	-8.519741	-0.255459
C	-0.083869	-7.635967	0.799036
S	0.345260	-7.651740	-1.789425
C	-0.018411	-6.261894	0.418360
H	-0.259169	-7.954738	1.834294
C	0.229701	-6.079985	-0.987769
C	0.302697	-4.798382	-1.555260
C	-0.196459	-5.153542	1.294992
C	-0.127651	-3.869626	0.726408
C	0.123544	-3.688927	-0.680716
O	-0.396706	-5.481075	2.601852
O	0.502673	-4.479871	-2.868193
C	1.262918	-5.356026	-3.691495
H	1.494604	-4.790496	-4.614080
H	0.693738	-6.268513	-3.974195
H	2.212720	-5.658187	-3.199559
C	-0.997016	-4.546999	3.490743
H	-1.226691	-5.107564	4.416630
H	-1.939526	-4.131473	3.073934
H	-0.309214	-3.712085	3.746794
C	0.186133	-2.314326	-1.058247
S	-0.256010	-2.295487	1.527599
C	-0.000000	-1.435180	-0.000000
H	0.363896	-1.993211	-2.092285
H	0.090328	-9.615985	-0.250435
C	0.000000	0.000000	0.000000
S	0.451648	0.777811	1.510732
C	1.238377	2.142617	0.727629
C	0.454085	0.786559	-1.064665
C	1.147169	1.990043	-0.678287
C	0.422325	0.728240	-2.486150
C	1.054629	1.823683	-3.106916
S	1.675491	2.905718	-1.965735
C	1.185914	2.041729	-4.559972
O	0.721749	1.231802	-5.350277
O	1.830313	3.151386	-5.004375
F	-0.131347	-0.238577	-3.246290
C	2.018453	3.456956	-6.334976
H	2.571455	4.413580	-6.370268
H	1.052178	3.565244	-6.875609
H	2.601950	2.669768	-6.861878
H	1.698444	2.939346	1.321510
$end

$rem
JOBTYPE		SP
EXCHANGE	HF
CORRELATION	pRIMP2
BASIS		cc-pvtz
METHOD		rimp2
AUX_BASIS	rimp2-cc-pvtz
SOLVENT_METHOD	PCM
PURECART	11111
SYMMETRY	false
MEM_TOTAL	110000
SCF_CONVERGENCE = 6
THRESH=10
GUI = 2
$end

$solvent
dielectric 4.90
$end
--------------------------------------------------------------

             Standard Nuclear Orientation (Angstroms)
    I     Atom           X                Y                Z
 ----------------------------------------------------------------
    1      C       0.0937110000    -8.5197410000    -0.2554590000
    2      C      -0.0838690000    -7.6359670000     0.7990360000
    3      S       0.3452600000    -7.6517400000    -1.7894250000
    4      C      -0.0184110000    -6.2618940000     0.4183600000
    5      H      -0.2591690000    -7.9547380000     1.8342940000
    6      C       0.2297010000    -6.0799850000    -0.9877690000
    7      C       0.3026970000    -4.7983820000    -1.5552600000
    8      C      -0.1964590000    -5.1535420000     1.2949920000
    9      C      -0.1276510000    -3.8696260000     0.7264080000
   10      C       0.1235440000    -3.6889270000    -0.6807160000
   11      O      -0.3967060000    -5.4810750000     2.6018520000
   12      O       0.5026730000    -4.4798710000    -2.8681930000
   13      C       1.2629180000    -5.3560260000    -3.6914950000
   14      H       1.4946040000    -4.7904960000    -4.6140800000
   15      H       0.6937380000    -6.2685130000    -3.9741950000
   16      H       2.2127200000    -5.6581870000    -3.1995590000
   17      C      -0.9970160000    -4.5469990000     3.4907430000
   18      H      -1.2266910000    -5.1075640000     4.4166300000
   19      H      -1.9395260000    -4.1314730000     3.0739340000
   20      H      -0.3092140000    -3.7120850000     3.7467940000
   21      C       0.1861330000    -2.3143260000    -1.0582470000
   22      S      -0.2560100000    -2.2954870000     1.5275990000
   23      C       0.0000000000    -1.4351800000     0.0000000000
   24      H       0.3638960000    -1.9932110000    -2.0922850000
   25      H       0.0903280000    -9.6159850000    -0.2504350000
   26      C       0.0000000000     0.0000000000     0.0000000000
   27      S       0.4516480000     0.7778110000     1.5107320000
   28      C       1.2383770000     2.1426170000     0.7276290000
   29      C       0.4540850000     0.7865590000    -1.0646650000
   30      C       1.1471690000     1.9900430000    -0.6782870000
   31      C       0.4223250000     0.7282400000    -2.4861500000
   32      C       1.0546290000     1.8236830000    -3.1069160000
   33      S       1.6754910000     2.9057180000    -1.9657350000
   34      C       1.1859140000     2.0417290000    -4.5599720000
   35      O       0.7217490000     1.2318020000    -5.3502770000
   36      O       1.8303130000     3.1513860000    -5.0043750000
   37      F      -0.1313470000    -0.2385770000    -3.2462900000
   38      C       2.0184530000     3.4569560000    -6.3349760000
   39      H       2.5714550000     4.4135800000    -6.3702680000
   40      H       1.0521780000     3.5652440000    -6.8756090000
   41      H       2.6019500000     2.6697680000    -6.8618780000
   42      H       1.6984440000     2.9393460000     1.3215100000
 ----------------------------------------------------------------

   10   -2754.2805177539      8.55e-07  Convergence criterion met
 Total energy in the final basis set =    -2754.2805177539
        RIMP2         total energy =     -2759.3418399812 a.u.

                    Orbital Energies (a.u.)
 --------------------------------------------------------------

 Alpha MOs
 -- Occupied --
-92.0166 -91.9986 -91.9883 -91.9859 -26.3378 -20.6131 -20.5923 -20.5901
-20.5518 -11.4119 -11.3783 -11.3191 -11.3167 -11.3060 -11.3012 -11.3011
-11.2989 -11.2963 -11.2891 -11.2873 -11.2857 -11.2848 -11.2846 -11.2836
-11.2790 -11.2607 -11.2581 -11.2521 -11.2496  -9.0153  -9.0024  -8.9892
 -8.9858  -6.6960  -6.6954  -6.6950  -6.6836  -6.6830  -6.6817  -6.6702
 -6.6695  -6.6685  -6.6668  -6.6661  -6.6653  -1.6521  -1.4730  -1.4164
 -1.4129  -1.3685  -1.2365  -1.1958  -1.1695  -1.1435  -1.0844  -1.0518
 -1.0494  -1.0298  -1.0022  -0.9934  -0.9737  -0.9603  -0.9501  -0.9386
 -0.8961  -0.8715  -0.8498  -0.8055  -0.7972  -0.7882  -0.7721  -0.7706
 -0.7569  -0.7329  -0.7227  -0.7190  -0.7009  -0.6905  -0.6830  -0.6793
 -0.6738  -0.6621  -0.6588  -0.6518  -0.6278  -0.6193  -0.6152  -0.6078
 -0.6026  -0.5972  -0.5865  -0.5751  -0.5688  -0.5605  -0.5550  -0.5467
 -0.5355  -0.5275  -0.5244  -0.5184  -0.5168  -0.5091  -0.5061  -0.4967
 -0.4861  -0.4852  -0.4775  -0.4670  -0.4624  -0.4619  -0.4584  -0.4243
 -0.3977  -0.3845  -0.3586  -0.3510  -0.3252  -0.2850  -0.2463

          Ground-State Mulliken Net Atomic Charges

     Atom                 Charge (a.u.)
  ----------------------------------------
      1 C                    -0.190022
      2 C                    -0.254635
      3 S                    -0.022118
      4 C                    -0.016597
      5 H                     0.196075
      6 C                    -0.027757
      7 C                     0.245347
      8 C                     0.244059
      9 C                    -0.040285
     10 C                    -0.024922
     11 O                    -0.333347
     12 O                    -0.339853
     13 C                    -0.086307
     14 H                     0.123748
     15 H                     0.091239
     16 H                     0.093362
     17 C                    -0.088126
     18 H                     0.125964
     19 H                     0.095079
     20 H                     0.089268
     21 C                    -0.229507
     22 S                    -0.043198
     23 C                    -0.025686
     24 H                     0.206740
     25 H                     0.206252
     26 C                     0.010491
     27 S                     0.108385
     28 C                    -0.225657
     29 C                    -0.087365
     30 C                    -0.021593
     31 C                     0.346595
     32 C                    -0.129710
     33 S                     0.053737
     34 C                     0.458801
     35 O                    -0.447980
     36 O                    -0.297793
     37 F                    -0.213103
     38 C                    -0.054759
     39 H                     0.116956
     40 H                     0.084881
     41 H                     0.084689
     42 H                     0.218650
  ----------------------------------------
  Sum of atomic charges =     0.000000

                    Cartesian Multipole Moments
 -----------------------------------------------------------------
    Charge (ESU x 10^10)
                -0.0000
    Dipole Moment (Debye)
         X       2.3034      Y       1.9388      Z       3.1813
       Tot       4.3801
    Quadrupole Moments (Debye-Ang)
        XX    -193.5500     XY       6.0223     YY    -163.4154
        XZ     -14.9008     YZ      -9.5466     ZZ    -184.3617

 Total job time:  332.83s(wall), 11504.75s(cpu)
        *  Thank you very much for using Q-Chem.  Have a nice day.  *
