 Q-Chem 5.4, Q-Chem, Inc., Pleasanton, CA (2021)
 Q-Chem 5.4.0 for Intel X86 EM64T Linux

User input:
--------------------------------------------------------------
$molecule
0 1
C	-0.268090	-8.519741	0.046574
C	0.733920	-7.635967	-0.326886
S	-1.722318	-7.651740	0.595708
C	0.371516	-6.261894	-0.193236
H	1.718130	-7.954738	-0.692700
C	-0.970283	-6.079985	0.294958
C	-1.498243	-4.798382	0.515487
C	1.219725	-5.153542	-0.477358
C	0.692914	-3.869626	-0.252655
C	-0.651289	-3.688927	0.233366
O	2.451623	-5.481075	-0.957369
O	-2.735264	-4.479871	0.998769
C	-3.828387	-5.356026	0.752029
H	-4.743213	-4.790496	1.012675
H	-3.788623	-6.268513	1.386303
H	-3.877260	-5.658187	-0.316492
C	3.521580	-4.546999	-0.881930
H	4.438260	-5.107564	-1.145969
H	3.631868	-4.131473	0.142712
H	3.399425	-3.712085	-1.605610
C	-1.009535	-2.314326	0.367928
S	1.450945	-2.295487	-0.542088
C	0.000000	-1.435180	0.000000
H	-1.993920	-1.993211	0.730999
H	-0.262047	-9.615985	0.046991
C	0.000000	0.000000	0.000000
S	0.002233	0.899428	1.510732
C	0.001157	2.474749	0.727629
C	-0.000030	0.908223	-1.064665
C	-0.001545	2.297013	-0.678287
C	0.001624	0.841837	-2.486150
C	0.001494	2.106670	-3.106916
S	-0.001841	3.354171	-1.965735
C	0.006168	2.361146	-4.559972
O	0.009152	1.427646	-5.350277
O	0.009405	3.644337	-5.004375
F	0.005539	-0.272288	-3.246290
C	0.019554	4.003038	-6.334976
H	0.020155	5.108000	-6.370268
H	-0.871409	3.613681	-6.875609
H	0.918470	3.613062	-6.861878
H	0.001222	3.394771	1.321510
$end

$rem
JOBTYPE		SP
EXCHANGE	HF
CORRELATION	pRIMP2
BASIS		cc-pvtz
METHOD		rimp2
AUX_BASIS	rimp2-cc-pvtz
SOLVENT_METHOD	PCM
PURECART	11111
SYMMETRY	false
MEM_TOTAL	110000
SCF_CONVERGENCE = 6
THRESH=10
GUI = 2
$end

$solvent
dielectric 4.90
$end
--------------------------------------------------------------

             Standard Nuclear Orientation (Angstroms)
    I     Atom           X                Y                Z
 ----------------------------------------------------------------
    1      C      -0.2680900000    -8.5197410000     0.0465740000
    2      C       0.7339200000    -7.6359670000    -0.3268860000
    3      S      -1.7223180000    -7.6517400000     0.5957080000
    4      C       0.3715160000    -6.2618940000    -0.1932360000
    5      H       1.7181300000    -7.9547380000    -0.6927000000
    6      C      -0.9702830000    -6.0799850000     0.2949580000
    7      C      -1.4982430000    -4.7983820000     0.5154870000
    8      C       1.2197250000    -5.1535420000    -0.4773580000
    9      C       0.6929140000    -3.8696260000    -0.2526550000
   10      C      -0.6512890000    -3.6889270000     0.2333660000
   11      O       2.4516230000    -5.4810750000    -0.9573690000
   12      O      -2.7352640000    -4.4798710000     0.9987690000
   13      C      -3.8283870000    -5.3560260000     0.7520290000
   14      H      -4.7432130000    -4.7904960000     1.0126750000
   15      H      -3.7886230000    -6.2685130000     1.3863030000
   16      H      -3.8772600000    -5.6581870000    -0.3164920000
   17      C       3.5215800000    -4.5469990000    -0.8819300000
   18      H       4.4382600000    -5.1075640000    -1.1459690000
   19      H       3.6318680000    -4.1314730000     0.1427120000
   20      H       3.3994250000    -3.7120850000    -1.6056100000
   21      C      -1.0095350000    -2.3143260000     0.3679280000
   22      S       1.4509450000    -2.2954870000    -0.5420880000
   23      C       0.0000000000    -1.4351800000     0.0000000000
   24      H      -1.9939200000    -1.9932110000     0.7309990000
   25      H      -0.2620470000    -9.6159850000     0.0469910000
   26      C       0.0000000000     0.0000000000     0.0000000000
   27      S       0.0022330000     0.8994280000     1.5107320000
   28      C       0.0011570000     2.4747490000     0.7276290000
   29      C      -0.0000300000     0.9082230000    -1.0646650000
   30      C      -0.0015450000     2.2970130000    -0.6782870000
   31      C       0.0016240000     0.8418370000    -2.4861500000
   32      C       0.0014940000     2.1066700000    -3.1069160000
   33      S      -0.0018410000     3.3541710000    -1.9657350000
   34      C       0.0061680000     2.3611460000    -4.5599720000
   35      O       0.0091520000     1.4276460000    -5.3502770000
   36      O       0.0094050000     3.6443370000    -5.0043750000
   37      F       0.0055390000    -0.2722880000    -3.2462900000
   38      C       0.0195540000     4.0030380000    -6.3349760000
   39      H       0.0201550000     5.1080000000    -6.3702680000
   40      H      -0.8714090000     3.6136810000    -6.8756090000
   41      H       0.9184700000     3.6130620000    -6.8618780000
   42      H       0.0012220000     3.3947710000     1.3215100000
 ----------------------------------------------------------------

   10   -2754.2960778297      8.76e-07  Convergence criterion met
 Total energy in the final basis set =    -2754.2960778297
        RIMP2         total energy =     -2759.3484000599 a.u.

                    Orbital Energies (a.u.)
 --------------------------------------------------------------

 Alpha MOs
 -- Occupied --
-92.0166 -91.9942 -91.9899 -91.9868 -26.3338 -20.6118 -20.5924 -20.5922
-20.5497 -11.4100 -11.3771 -11.3194 -11.3192 -11.3104 -11.2967 -11.2961
-11.2941 -11.2927 -11.2883 -11.2870 -11.2869 -11.2864 -11.2844 -11.2822
-11.2805 -11.2614 -11.2600 -11.2599 -11.2502  -9.0146  -8.9983  -8.9903
 -8.9867  -6.6953  -6.6947  -6.6943  -6.6795  -6.6789  -6.6775  -6.6712
 -6.6705  -6.6695  -6.6677  -6.6670  -6.6662  -1.6467  -1.4715  -1.4166
 -1.4149  -1.3668  -1.2329  -1.1964  -1.1684  -1.1416  -1.0843  -1.0525
 -1.0471  -1.0274  -1.0027  -0.9934  -0.9711  -0.9615  -0.9506  -0.9385
 -0.8960  -0.8688  -0.8511  -0.8061  -0.7900  -0.7885  -0.7745  -0.7672
 -0.7587  -0.7330  -0.7179  -0.7149  -0.7013  -0.6884  -0.6835  -0.6783
 -0.6708  -0.6606  -0.6593  -0.6529  -0.6309  -0.6204  -0.6172  -0.6061
 -0.6018  -0.5940  -0.5839  -0.5778  -0.5683  -0.5661  -0.5566  -0.5521
 -0.5336  -0.5262  -0.5249  -0.5163  -0.5141  -0.5081  -0.5012  -0.4955
 -0.4904  -0.4839  -0.4765  -0.4680  -0.4616  -0.4611  -0.4600  -0.4090
 -0.4001  -0.3872  -0.3578  -0.3490  -0.3168  -0.2879  -0.2584

          Ground-State Mulliken Net Atomic Charges

     Atom                 Charge (a.u.)
  ----------------------------------------
      1 C                    -0.186745
      2 C                    -0.254266
      3 S                    -0.021543
      4 C                    -0.012823
      5 H                     0.196655
      6 C                    -0.027766
      7 C                     0.247284
      8 C                     0.239436
      9 C                    -0.045514
     10 C                    -0.032128
     11 O                    -0.333126
     12 O                    -0.339901
     13 C                    -0.085738
     14 H                     0.122681
     15 H                     0.091057
     16 H                     0.094680
     17 C                    -0.086288
     18 H                     0.124902
     19 H                     0.094235
     20 H                     0.090560
     21 C                    -0.221128
     22 S                     0.000876
     23 C                    -0.041168
     24 H                     0.197897
     25 H                     0.206722
     26 C                    -0.015530
     27 S                     0.118872
     28 C                    -0.242006
     29 C                    -0.097868
     30 C                    -0.006064
     31 C                     0.397296
     32 C                    -0.157026
     33 S                     0.036841
     34 C                     0.460668
     35 O                    -0.450538
     36 O                    -0.297874
     37 F                    -0.210898
     38 C                    -0.055004
     39 H                     0.116497
     40 H                     0.084570
     41 H                     0.084414
     42 H                     0.214799
  ----------------------------------------
  Sum of atomic charges =     0.000000

                    Cartesian Multipole Moments
 -----------------------------------------------------------------
    Charge (ESU x 10^10)
                 0.0000
    Dipole Moment (Debye)
         X      -0.0216      Y       1.4099      Z       3.0391
       Tot       3.3503
    Quadrupole Moments (Debye-Ang)
        XX    -176.7203     XY       1.0451     YY    -157.9845
        XZ      -3.0356     YZ      -9.3582     ZZ    -206.4129

 Total job time:  306.90s(wall), 9482.84s(cpu)
        *  Thank you very much for using Q-Chem.  Have a nice day.  *
