 Q-Chem 5.4, Q-Chem, Inc., Pleasanton, CA (2021)
 Q-Chem 5.4.0 for Intel X86 EM64T Linux

User input:
--------------------------------------------------------------
$molecule
0 1
C	-0.000687	-8.519741	0.272104
C	-0.194476	-7.635967	-0.779533
S	0.287581	-7.651740	1.799596
C	-0.125787	-6.261894	-0.399427
H	-0.383826	-7.954738	-1.812314
C	0.121989	-6.079985	1.006762
C	0.247488	-4.798382	1.564994
C	-0.258303	-5.153542	-1.284087
C	-0.128493	-3.869626	-0.726260
C	0.116725	-3.688927	0.681918
O	-0.517104	-5.481075	-2.580622
O	0.508622	-4.479871	2.867144
C	0.075811	-5.356026	3.900814
H	0.173640	-4.790496	4.847002
H	0.707354	-6.268513	3.971794
H	-0.984963	-5.658187	3.763397
C	-0.257016	-4.546999	-3.621225
H	-0.357864	-5.107564	-4.569828
H	0.771211	-4.131473	-3.551910
H	-0.990913	-3.712085	-3.626592
C	0.187034	-2.314326	1.058088
S	-0.281899	-2.295487	-1.523035
C	-0.000000	-1.435180	-0.000000
H	0.373653	-1.993211	2.090565
H	0.000773	-9.615985	0.266226
C	0.000000	0.000000	0.000000
S	0.158383	0.885376	1.510732
C	0.430876	2.436951	0.727629
C	0.157682	0.894430	-1.064665
C	0.397351	2.262384	-0.678287
C	0.147783	0.828765	-2.486150
C	0.367291	2.074406	-3.106916
S	0.580633	3.303533	-1.965735
C	0.416083	2.324204	-4.559972
O	0.256921	1.404367	-5.350277
O	0.642094	3.587338	-5.004375
F	-0.041828	-0.269113	-3.246290
C	0.714377	3.938827	-6.334976
H	0.906844	5.026898	-6.370268
H	-0.230661	3.710099	-6.875609
H	1.531918	3.398681	-6.861878
H	0.590699	3.342984	1.321510
$end

$rem
JOBTYPE		SP
EXCHANGE	HF
CORRELATION	pRIMP2
BASIS		cc-pvtz
METHOD		rimp2
AUX_BASIS	rimp2-cc-pvtz
SOLVENT_METHOD	PCM
PURECART	11111
SYMMETRY	false
MEM_TOTAL	110000
SCF_CONVERGENCE = 6
THRESH=10
GUI = 2
$end

$solvent
dielectric 4.90
$end
--------------------------------------------------------------

             Standard Nuclear Orientation (Angstroms)
    I     Atom           X                Y                Z
 ----------------------------------------------------------------
    1      C      -0.0006870000    -8.5197410000     0.2721040000
    2      C      -0.1944760000    -7.6359670000    -0.7795330000
    3      S       0.2875810000    -7.6517400000     1.7995960000
    4      C      -0.1257870000    -6.2618940000    -0.3994270000
    5      H      -0.3838260000    -7.9547380000    -1.8123140000
    6      C       0.1219890000    -6.0799850000     1.0067620000
    7      C       0.2474880000    -4.7983820000     1.5649940000
    8      C      -0.2583030000    -5.1535420000    -1.2840870000
    9      C      -0.1284930000    -3.8696260000    -0.7262600000
   10      C       0.1167250000    -3.6889270000     0.6819180000
   11      O      -0.5171040000    -5.4810750000    -2.5806220000
   12      O       0.5086220000    -4.4798710000     2.8671440000
   13      C       0.0758110000    -5.3560260000     3.9008140000
   14      H       0.1736400000    -4.7904960000     4.8470020000
   15      H       0.7073540000    -6.2685130000     3.9717940000
   16      H      -0.9849630000    -5.6581870000     3.7633970000
   17      C      -0.2570160000    -4.5469990000    -3.6212250000
   18      H      -0.3578640000    -5.1075640000    -4.5698280000
   19      H       0.7712110000    -4.1314730000    -3.5519100000
   20      H      -0.9909130000    -3.7120850000    -3.6265920000
   21      C       0.1870340000    -2.3143260000     1.0580880000
   22      S      -0.2818990000    -2.2954870000    -1.5230350000
   23      C       0.0000000000    -1.4351800000     0.0000000000
   24      H       0.3736530000    -1.9932110000     2.0905650000
   25      H       0.0007730000    -9.6159850000     0.2662260000
   26      C       0.0000000000     0.0000000000     0.0000000000
   27      S       0.1583830000     0.8853760000     1.5107320000
   28      C       0.4308760000     2.4369510000     0.7276290000
   29      C       0.1576820000     0.8944300000    -1.0646650000
   30      C       0.3973510000     2.2623840000    -0.6782870000
   31      C       0.1477830000     0.8287650000    -2.4861500000
   32      C       0.3672910000     2.0744060000    -3.1069160000
   33      S       0.5806330000     3.3035330000    -1.9657350000
   34      C       0.4160830000     2.3242040000    -4.5599720000
   35      O       0.2569210000     1.4043670000    -5.3502770000
   36      O       0.6420940000     3.5873380000    -5.0043750000
   37      F      -0.0418280000    -0.2691130000    -3.2462900000
   38      C       0.7143770000     3.9388270000    -6.3349760000
   39      H       0.9068440000     5.0268980000    -6.3702680000
   40      H      -0.2306610000     3.7100990000    -6.8756090000
   41      H       1.5319180000     3.3986810000    -6.8618780000
   42      H       0.5906990000     3.3429840000     1.3215100000
 ----------------------------------------------------------------

   10   -2754.2911415044      8.37e-07  Convergence criterion met
 Total energy in the final basis set =    -2754.2911415044
        RIMP2         total energy =     -2759.3480307105 a.u.

                    Orbital Energies (a.u.)
 --------------------------------------------------------------

 Alpha MOs
 -- Occupied --
-92.0147 -91.9951 -91.9863 -91.9853 -26.3362 -20.6121 -20.5919 -20.5912
-20.5500 -11.4104 -11.3790 -11.3184 -11.3182 -11.3138 -11.2975 -11.2974
-11.2973 -11.2935 -11.2886 -11.2864 -11.2854 -11.2843 -11.2838 -11.2828
-11.2799 -11.2615 -11.2591 -11.2590 -11.2498  -9.0132  -8.9991  -8.9863
 -8.9863  -6.6939  -6.6934  -6.6928  -6.6804  -6.6797  -6.6784  -6.6672
 -6.6670  -6.6666  -6.6664  -6.6658  -6.6653  -1.6520  -1.4719  -1.4156
 -1.4144  -1.3672  -1.2345  -1.1962  -1.1691  -1.1421  -1.0847  -1.0521
 -1.0483  -1.0288  -1.0022  -0.9939  -0.9726  -0.9606  -0.9498  -0.9381
 -0.8958  -0.8698  -0.8523  -0.8101  -0.7960  -0.7871  -0.7751  -0.7632
 -0.7582  -0.7325  -0.7209  -0.7191  -0.7006  -0.6888  -0.6843  -0.6787
 -0.6740  -0.6621  -0.6584  -0.6523  -0.6287  -0.6195  -0.6162  -0.6067
 -0.6016  -0.5957  -0.5889  -0.5713  -0.5683  -0.5661  -0.5588  -0.5526
 -0.5301  -0.5270  -0.5224  -0.5198  -0.5146  -0.5091  -0.5017  -0.4950
 -0.4859  -0.4826  -0.4805  -0.4645  -0.4616  -0.4608  -0.4579  -0.4245
 -0.3956  -0.3865  -0.3602  -0.3501  -0.3251  -0.2836  -0.2469

          Ground-State Mulliken Net Atomic Charges

     Atom                 Charge (a.u.)
  ----------------------------------------
      1 C                    -0.187862
      2 C                    -0.254275
      3 S                    -0.023084
      4 C                    -0.013287
      5 H                     0.196676
      6 C                    -0.029341
      7 C                     0.242608
      8 C                     0.241929
      9 C                    -0.040933
     10 C                    -0.026058
     11 O                    -0.333839
     12 O                    -0.340542
     13 C                    -0.085665
     14 H                     0.122328
     15 H                     0.091311
     16 H                     0.094228
     17 C                    -0.088228
     18 H                     0.125313
     19 H                     0.095001
     20 H                     0.090789
     21 C                    -0.245031
     22 S                    -0.021287
     23 C                     0.005189
     24 H                     0.187466
     25 H                     0.206561
     26 C                     0.018339
     27 S                     0.089245
     28 C                    -0.231163
     29 C                    -0.083607
     30 C                    -0.028414
     31 C                     0.374681
     32 C                    -0.134695
     33 S                     0.037791
     34 C                     0.459307
     35 O                    -0.451265
     36 O                    -0.297791
     37 F                    -0.209955
     38 C                    -0.054982
     39 H                     0.116735
     40 H                     0.084450
     41 H                     0.084414
     42 H                     0.216941
  ----------------------------------------
  Sum of atomic charges =     0.000000

                    Cartesian Multipole Moments
 -----------------------------------------------------------------
    Charge (ESU x 10^10)
                -0.0000
    Dipole Moment (Debye)
         X       0.3570      Y       1.6051      Z       2.9684
       Tot       3.3934
    Quadrupole Moments (Debye-Ang)
        XX    -201.4171     XY       4.1792     YY    -159.9748
        XZ      -3.3657     YZ     -10.7515     ZZ    -180.8960

 Total job time:  308.36s(wall), 9632.08s(cpu)
        *  Thank you very much for using Q-Chem.  Have a nice day.  *
