 Q-Chem 5.4, Q-Chem, Inc., Pleasanton, CA (2021)
 Q-Chem 5.4.0 for Intel X86 EM64T Linux

User input:
--------------------------------------------------------------
$molecule
0 1
C	0.175432	-8.519741	-0.208002
C	-0.352097	-7.635967	0.722164
S	0.936458	-7.651740	-1.563424
C	-0.160388	-6.261894	0.386833
H	-0.870905	-7.954738	1.635031
C	0.553685	-6.079985	-0.849637
C	0.816372	-4.798382	-1.357938
C	-0.627524	-5.153542	1.149702
C	-0.368399	-3.869626	0.638941
C	0.348912	-3.688927	-0.597409
O	-1.262667	-5.481075	2.309260
O	1.453338	-4.479871	-2.523296
C	2.449320	-5.356026	-3.036927
H	2.982577	-4.790496	-3.824632
H	2.011155	-6.268513	-3.497250
H	3.173591	-5.658187	-2.249807
C	-2.130793	-4.546999	2.939226
H	-2.663289	-5.107564	3.730721
H	-2.873906	-4.131473	2.225196
H	-1.572045	-3.712085	3.415077
C	0.536849	-2.314326	-0.930765
S	-0.763041	-2.295487	1.347913
C	0.000000	-1.435180	0.000000
H	1.057554	-1.993211	-1.841645
H	0.170535	-9.615985	-0.204438
C	0.000000	0.000000	0.000000
S	0.002233	0.899428	1.510732
C	0.001157	2.474749	0.727629
C	-0.000030	0.908223	-1.064665
C	-0.001545	2.297013	-0.678287
C	0.001624	0.841837	-2.486150
C	0.001494	2.106670	-3.106916
S	-0.001841	3.354171	-1.965735
C	0.006168	2.361146	-4.559972
O	0.009152	1.427646	-5.350277
O	0.009405	3.644337	-5.004375
F	0.005539	-0.272288	-3.246290
C	0.019554	4.003038	-6.334976
H	0.020155	5.108000	-6.370268
H	-0.871409	3.613681	-6.875609
H	0.918470	3.613062	-6.861878
H	0.001222	3.394771	1.321510
$end

$rem
JOBTYPE		SP
EXCHANGE	HF
CORRELATION	pRIMP2
BASIS		cc-pvtz
METHOD		rimp2
AUX_BASIS	rimp2-cc-pvtz
SOLVENT_METHOD	PCM
PURECART	11111
SYMMETRY	false
MEM_TOTAL	110000
SCF_CONVERGENCE = 6
THRESH=10
GUI = 2
$end

$solvent
dielectric 4.90
$end
--------------------------------------------------------------

             Standard Nuclear Orientation (Angstroms)
    I     Atom           X                Y                Z
 ----------------------------------------------------------------
    1      C       0.1754320000    -8.5197410000    -0.2080020000
    2      C      -0.3520970000    -7.6359670000     0.7221640000
    3      S       0.9364580000    -7.6517400000    -1.5634240000
    4      C      -0.1603880000    -6.2618940000     0.3868330000
    5      H      -0.8709050000    -7.9547380000     1.6350310000
    6      C       0.5536850000    -6.0799850000    -0.8496370000
    7      C       0.8163720000    -4.7983820000    -1.3579380000
    8      C      -0.6275240000    -5.1535420000     1.1497020000
    9      C      -0.3683990000    -3.8696260000     0.6389410000
   10      C       0.3489120000    -3.6889270000    -0.5974090000
   11      O      -1.2626670000    -5.4810750000     2.3092600000
   12      O       1.4533380000    -4.4798710000    -2.5232960000
   13      C       2.4493200000    -5.3560260000    -3.0369270000
   14      H       2.9825770000    -4.7904960000    -3.8246320000
   15      H       2.0111550000    -6.2685130000    -3.4972500000
   16      H       3.1735910000    -5.6581870000    -2.2498070000
   17      C      -2.1307930000    -4.5469990000     2.9392260000
   18      H      -2.6632890000    -5.1075640000     3.7307210000
   19      H      -2.8739060000    -4.1314730000     2.2251960000
   20      H      -1.5720450000    -3.7120850000     3.4150770000
   21      C       0.5368490000    -2.3143260000    -0.9307650000
   22      S      -0.7630410000    -2.2954870000     1.3479130000
   23      C       0.0000000000    -1.4351800000     0.0000000000
   24      H       1.0575540000    -1.9932110000    -1.8416450000
   25      H       0.1705350000    -9.6159850000    -0.2044380000
   26      C       0.0000000000     0.0000000000     0.0000000000
   27      S       0.0022330000     0.8994280000     1.5107320000
   28      C       0.0011570000     2.4747490000     0.7276290000
   29      C      -0.0000300000     0.9082230000    -1.0646650000
   30      C      -0.0015450000     2.2970130000    -0.6782870000
   31      C       0.0016240000     0.8418370000    -2.4861500000
   32      C       0.0014940000     2.1066700000    -3.1069160000
   33      S      -0.0018410000     3.3541710000    -1.9657350000
   34      C       0.0061680000     2.3611460000    -4.5599720000
   35      O       0.0091520000     1.4276460000    -5.3502770000
   36      O       0.0094050000     3.6443370000    -5.0043750000
   37      F       0.0055390000    -0.2722880000    -3.2462900000
   38      C       0.0195540000     4.0030380000    -6.3349760000
   39      H       0.0201550000     5.1080000000    -6.3702680000
   40      H      -0.8714090000     3.6136810000    -6.8756090000
   41      H       0.9184700000     3.6130620000    -6.8618780000
   42      H       0.0012220000     3.3947710000     1.3215100000
 ----------------------------------------------------------------

   10   -2754.2987602487      7.88e-07  Convergence criterion met
 Total energy in the final basis set =    -2754.2987602487
        RIMP2         total energy =     -2759.3525459311 a.u.

                    Orbital Energies (a.u.)
 --------------------------------------------------------------

 Alpha MOs
 -- Occupied --
-92.0161 -91.9945 -91.9918 -91.9871 -26.3356 -20.6116 -20.5932 -20.5919
-20.5492 -11.4096 -11.3779 -11.3203 -11.3196 -11.3140 -11.2971 -11.2963
-11.2958 -11.2918 -11.2882 -11.2882 -11.2878 -11.2858 -11.2849 -11.2810
-11.2808 -11.2625 -11.2606 -11.2594 -11.2506  -9.0145  -8.9985  -8.9923
 -8.9870  -6.6952  -6.6947  -6.6942  -6.6798  -6.6791  -6.6778  -6.6732
 -6.6726  -6.6716  -6.6680  -6.6673  -6.6665  -1.6490  -1.4713  -1.4173
 -1.4146  -1.3665  -1.2333  -1.1975  -1.1697  -1.1423  -1.0850  -1.0532
 -1.0478  -1.0277  -1.0038  -0.9941  -0.9719  -0.9616  -0.9510  -0.9385
 -0.8972  -0.8692  -0.8519  -0.8050  -0.7949  -0.7886  -0.7726  -0.7696
 -0.7583  -0.7333  -0.7196  -0.7168  -0.7021  -0.6889  -0.6841  -0.6781
 -0.6716  -0.6620  -0.6598  -0.6529  -0.6299  -0.6205  -0.6167  -0.6060
 -0.6008  -0.5936  -0.5878  -0.5761  -0.5703  -0.5628  -0.5528  -0.5495
 -0.5373  -0.5266  -0.5260  -0.5174  -0.5165  -0.5089  -0.5049  -0.4969
 -0.4885  -0.4838  -0.4783  -0.4688  -0.4618  -0.4610  -0.4593  -0.4217
 -0.3982  -0.3866  -0.3593  -0.3506  -0.3245  -0.2851  -0.2501

          Ground-State Mulliken Net Atomic Charges

     Atom                 Charge (a.u.)
  ----------------------------------------
      1 C                    -0.186264
      2 C                    -0.254521
      3 S                    -0.019527
      4 C                    -0.012966
      5 H                     0.196540
      6 C                    -0.029934
      7 C                     0.250061
      8 C                     0.239291
      9 C                    -0.040555
     10 C                    -0.037804
     11 O                    -0.333182
     12 O                    -0.338124
     13 C                    -0.086096
     14 H                     0.123647
     15 H                     0.091412
     16 H                     0.093926
     17 C                    -0.087850
     18 H                     0.125781
     19 H                     0.095438
     20 H                     0.089478
     21 C                    -0.197264
     22 S                    -0.027469
     23 C                    -0.020848
     24 H                     0.195674
     25 H                     0.206891
     26 C                    -0.024693
     27 S                     0.095374
     28 C                    -0.245814
     29 C                    -0.071460
     30 C                    -0.013967
     31 C                     0.388998
     32 C                    -0.143785
     33 S                     0.035781
     34 C                     0.461129
     35 O                    -0.451976
     36 O                    -0.298132
     37 F                    -0.213773
     38 C                    -0.055044
     39 H                     0.116536
     40 H                     0.084548
     41 H                     0.084226
     42 H                     0.216319
  ----------------------------------------
  Sum of atomic charges =     0.000000

                    Cartesian Multipole Moments
 -----------------------------------------------------------------
    Charge (ESU x 10^10)
                 0.0000
    Dipole Moment (Debye)
         X       0.2343      Y       1.1113      Z       3.3815
       Tot       3.5672
    Quadrupole Moments (Debye-Ang)
        XX    -189.8981     XY      -1.5491     YY    -156.6183
        XZ     -12.8566     YZ     -10.5697     ZZ    -193.4574

 Total job time:  283.80s(wall), 9251.37s(cpu)
        *  Thank you very much for using Q-Chem.  Have a nice day.  *
