 Q-Chem 5.4, Q-Chem, Inc., Pleasanton, CA (2021)
 Q-Chem 5.4.0 for Intel X86 EM64T Linux

User input:
--------------------------------------------------------------
$molecule
0 1
C	-0.093711	-8.519741	0.255459
C	0.083869	-7.635967	-0.799036
S	-0.345260	-7.651740	1.789425
C	0.018411	-6.261894	-0.418360
H	0.259169	-7.954738	-1.834294
C	-0.229701	-6.079985	0.987769
C	-0.302697	-4.798382	1.555260
C	0.196459	-5.153542	-1.294992
C	0.127651	-3.869626	-0.726408
C	-0.123544	-3.688927	0.680716
O	0.396706	-5.481075	-2.601852
O	-0.502673	-4.479871	2.868193
C	-1.262918	-5.356026	3.691495
H	-1.494604	-4.790496	4.614080
H	-0.693738	-6.268513	3.974195
H	-2.212720	-5.658187	3.199559
C	0.997016	-4.546999	-3.490743
H	1.226691	-5.107564	-4.416630
H	1.939526	-4.131473	-3.073934
H	0.309214	-3.712085	-3.746794
C	-0.186133	-2.314326	1.058247
S	0.256010	-2.295487	-1.527599
C	0.000000	-1.435180	0.000000
H	-0.363896	-1.993211	2.092285
H	-0.090328	-9.615985	0.250435
C	0.000000	0.000000	0.000000
S	0.002233	0.899428	1.510732
C	0.001157	2.474749	0.727629
C	-0.000030	0.908223	-1.064665
C	-0.001545	2.297013	-0.678287
C	0.001624	0.841837	-2.486150
C	0.001494	2.106670	-3.106916
S	-0.001841	3.354171	-1.965735
C	0.006168	2.361146	-4.559972
O	0.009152	1.427646	-5.350277
O	0.009405	3.644337	-5.004375
F	0.005539	-0.272288	-3.246290
C	0.019554	4.003038	-6.334976
H	0.020155	5.108000	-6.370268
H	-0.871409	3.613681	-6.875609
H	0.918470	3.613062	-6.861878
H	0.001222	3.394771	1.321510
$end

$rem
JOBTYPE		SP
EXCHANGE	HF
CORRELATION	pRIMP2
BASIS		cc-pvtz
METHOD		rimp2
AUX_BASIS	rimp2-cc-pvtz
SOLVENT_METHOD	PCM
PURECART	11111
SYMMETRY	false
MEM_TOTAL	110000
SCF_CONVERGENCE = 6
THRESH=10
GUI = 2
$end

$solvent
dielectric 4.90
$end
--------------------------------------------------------------

             Standard Nuclear Orientation (Angstroms)
    I     Atom           X                Y                Z
 ----------------------------------------------------------------
    1      C      -0.0937110000    -8.5197410000     0.2554590000
    2      C       0.0838690000    -7.6359670000    -0.7990360000
    3      S      -0.3452600000    -7.6517400000     1.7894250000
    4      C       0.0184110000    -6.2618940000    -0.4183600000
    5      H       0.2591690000    -7.9547380000    -1.8342940000
    6      C      -0.2297010000    -6.0799850000     0.9877690000
    7      C      -0.3026970000    -4.7983820000     1.5552600000
    8      C       0.1964590000    -5.1535420000    -1.2949920000
    9      C       0.1276510000    -3.8696260000    -0.7264080000
   10      C      -0.1235440000    -3.6889270000     0.6807160000
   11      O       0.3967060000    -5.4810750000    -2.6018520000
   12      O      -0.5026730000    -4.4798710000     2.8681930000
   13      C      -1.2629180000    -5.3560260000     3.6914950000
   14      H      -1.4946040000    -4.7904960000     4.6140800000
   15      H      -0.6937380000    -6.2685130000     3.9741950000
   16      H      -2.2127200000    -5.6581870000     3.1995590000
   17      C       0.9970160000    -4.5469990000    -3.4907430000
   18      H       1.2266910000    -5.1075640000    -4.4166300000
   19      H       1.9395260000    -4.1314730000    -3.0739340000
   20      H       0.3092140000    -3.7120850000    -3.7467940000
   21      C      -0.1861330000    -2.3143260000     1.0582470000
   22      S       0.2560100000    -2.2954870000    -1.5275990000
   23      C       0.0000000000    -1.4351800000     0.0000000000
   24      H      -0.3638960000    -1.9932110000     2.0922850000
   25      H      -0.0903280000    -9.6159850000     0.2504350000
   26      C       0.0000000000     0.0000000000     0.0000000000
   27      S       0.0022330000     0.8994280000     1.5107320000
   28      C       0.0011570000     2.4747490000     0.7276290000
   29      C      -0.0000300000     0.9082230000    -1.0646650000
   30      C      -0.0015450000     2.2970130000    -0.6782870000
   31      C       0.0016240000     0.8418370000    -2.4861500000
   32      C       0.0014940000     2.1066700000    -3.1069160000
   33      S      -0.0018410000     3.3541710000    -1.9657350000
   34      C       0.0061680000     2.3611460000    -4.5599720000
   35      O       0.0091520000     1.4276460000    -5.3502770000
   36      O       0.0094050000     3.6443370000    -5.0043750000
   37      F       0.0055390000    -0.2722880000    -3.2462900000
   38      C       0.0195540000     4.0030380000    -6.3349760000
   39      H       0.0201550000     5.1080000000    -6.3702680000
   40      H      -0.8714090000     3.6136810000    -6.8756090000
   41      H       0.9184700000     3.6130620000    -6.8618780000
   42      H       0.0012220000     3.3947710000     1.3215100000
 ----------------------------------------------------------------

   10   -2754.2929313669      8.50e-07  Convergence criterion met
 Total energy in the final basis set =    -2754.2929313669
        RIMP2         total energy =     -2759.3491334642 a.u.

                    Orbital Energies (a.u.)
 --------------------------------------------------------------

 Alpha MOs
 -- Occupied --
-92.0146 -91.9948 -91.9865 -91.9856 -26.3362 -20.6120 -20.5922 -20.5914
-20.5498 -11.4102 -11.3790 -11.3186 -11.3186 -11.3147 -11.2973 -11.2973
-11.2968 -11.2925 -11.2885 -11.2866 -11.2856 -11.2847 -11.2840 -11.2822
-11.2801 -11.2618 -11.2598 -11.2594 -11.2500  -9.0131  -8.9988  -8.9866
 -8.9865  -6.6939  -6.6933  -6.6928  -6.6801  -6.6794  -6.6781  -6.6674
 -6.6674  -6.6668  -6.6668  -6.6660  -6.6656  -1.6520  -1.4717  -1.4158
 -1.4146  -1.3670  -1.2341  -1.1964  -1.1691  -1.1420  -1.0848  -1.0523
 -1.0482  -1.0287  -1.0024  -0.9940  -0.9725  -0.9608  -0.9500  -0.9381
 -0.8961  -0.8696  -0.8526  -0.8102  -0.7961  -0.7872  -0.7752  -0.7632
 -0.7584  -0.7327  -0.7209  -0.7191  -0.7007  -0.6887  -0.6844  -0.6786
 -0.6738  -0.6622  -0.6586  -0.6525  -0.6289  -0.6198  -0.6164  -0.6065
 -0.6015  -0.5953  -0.5888  -0.5711  -0.5700  -0.5644  -0.5597  -0.5527
 -0.5301  -0.5266  -0.5248  -0.5183  -0.5150  -0.5087  -0.5017  -0.4954
 -0.4865  -0.4828  -0.4797  -0.4646  -0.4615  -0.4607  -0.4585  -0.4247
 -0.3956  -0.3868  -0.3605  -0.3499  -0.3252  -0.2835  -0.2471

          Ground-State Mulliken Net Atomic Charges

     Atom                 Charge (a.u.)
  ----------------------------------------
      1 C                    -0.187165
      2 C                    -0.254505
      3 S                    -0.022850
      4 C                    -0.014555
      5 H                     0.196746
      6 C                    -0.030011
      7 C                     0.246570
      8 C                     0.243108
      9 C                    -0.039173
     10 C                    -0.024550
     11 O                    -0.333553
     12 O                    -0.340298
     13 C                    -0.085798
     14 H                     0.122406
     15 H                     0.091433
     16 H                     0.094374
     17 C                    -0.089693
     18 H                     0.125805
     19 H                     0.094279
     20 H                     0.092250
     21 C                    -0.249631
     22 S                    -0.025893
     23 C                     0.024973
     24 H                     0.186794
     25 H                     0.206671
     26 C                     0.007562
     27 S                     0.090732
     28 C                    -0.238839
     29 C                    -0.094347
     30 C                    -0.022157
     31 C                     0.381568
     32 C                    -0.135607
     33 S                     0.034612
     34 C                     0.461679
     35 O                    -0.451922
     36 O                    -0.297838
     37 F                    -0.210230
     38 C                    -0.055098
     39 H                     0.116748
     40 H                     0.084545
     41 H                     0.084306
     42 H                     0.216553
  ----------------------------------------
  Sum of atomic charges =     0.000000

                    Cartesian Multipole Moments
 -----------------------------------------------------------------
    Charge (ESU x 10^10)
                 0.0000
    Dipole Moment (Debye)
         X      -0.2356      Y       1.4966      Z       2.9301
       Tot       3.2986
    Quadrupole Moments (Debye-Ang)
        XX    -198.0424     XY       1.6044     YY    -159.0373
        XZ      -9.2576     YZ     -10.4229     ZZ    -184.8637

 Total job time:  296.64s(wall), 9433.06s(cpu)
        *  Thank you very much for using Q-Chem.  Have a nice day.  *
