 Q-Chem 5.4, Q-Chem, Inc., Pleasanton, CA (2021)
 Q-Chem 5.4.0 for Intel X86 EM64T Linux

User input:
--------------------------------------------------------------
$molecule
0 1
C	0.267851	-8.519741	0.047927
C	-0.801461	-7.635967	0.056157
S	1.822194	-7.651740	0.029285
C	-0.415201	-6.261894	0.054516
H	-1.851431	-7.954738	0.063290
C	1.012650	-6.079985	0.054687
C	1.584194	-4.798382	0.028030
C	-1.309433	-5.153542	0.031399
C	-0.737539	-3.869626	0.000427
C	0.691828	-3.688927	0.003462
O	-2.631211	-5.481075	0.061128
O	2.911907	-4.479871	-0.003021
C	3.854716	-5.356026	0.602710
H	4.803517	-4.790496	0.670671
H	4.034285	-6.268513	-0.006913
H	3.535185	-5.658187	1.623507
C	-3.610841	-4.546999	-0.375708
H	-4.562544	-5.107564	-0.441115
H	-3.364029	-4.131473	-1.376277
H	-3.743566	-3.712085	0.346107
C	1.074491	-2.314326	-0.000458
S	-1.548848	-2.295487	0.013144
C	0.000000	-1.435180	0.000000
H	2.123688	-1.993211	-0.004953
H	0.262315	-9.615985	0.045468
C	0.000000	0.000000	0.000000
S	0.780044	0.447780	1.510732
C	2.143774	1.236372	0.727629
C	0.786529	0.454137	-1.064665
C	1.988499	1.149844	-0.678287
C	0.729864	0.419512	-2.486150
C	1.825177	1.052041	-3.106916
S	2.903877	1.678680	-1.965735
C	2.047896	1.175232	-4.559972
O	1.240953	0.705897	-5.350277
O	3.160791	1.814024	-5.004375
F	-0.233039	-0.140940	-3.246290
C	3.476510	1.984585	-6.334976
H	4.433735	2.536545	-6.370268
H	2.693835	2.561503	-6.875609
H	3.588239	1.011113	-6.861878
H	2.940569	1.696327	1.321510
$end

$rem
JOBTYPE		SP
EXCHANGE	HF
CORRELATION	pRIMP2
BASIS		cc-pvtz
METHOD		rimp2
AUX_BASIS	rimp2-cc-pvtz
SOLVENT_METHOD	PCM
PURECART	11111
SYMMETRY	false
MEM_TOTAL	110000
SCF_CONVERGENCE = 6
THRESH=10
GUI = 2
$end

$solvent
dielectric 4.90
$end
--------------------------------------------------------------

             Standard Nuclear Orientation (Angstroms)
    I     Atom           X                Y                Z
 ----------------------------------------------------------------
    1      C       0.2678510000    -8.5197410000     0.0479270000
    2      C      -0.8014610000    -7.6359670000     0.0561570000
    3      S       1.8221940000    -7.6517400000     0.0292850000
    4      C      -0.4152010000    -6.2618940000     0.0545160000
    5      H      -1.8514310000    -7.9547380000     0.0632900000
    6      C       1.0126500000    -6.0799850000     0.0546870000
    7      C       1.5841940000    -4.7983820000     0.0280300000
    8      C      -1.3094330000    -5.1535420000     0.0313990000
    9      C      -0.7375390000    -3.8696260000     0.0004270000
   10      C       0.6918280000    -3.6889270000     0.0034620000
   11      O      -2.6312110000    -5.4810750000     0.0611280000
   12      O       2.9119070000    -4.4798710000    -0.0030210000
   13      C       3.8547160000    -5.3560260000     0.6027100000
   14      H       4.8035170000    -4.7904960000     0.6706710000
   15      H       4.0342850000    -6.2685130000    -0.0069130000
   16      H       3.5351850000    -5.6581870000     1.6235070000
   17      C      -3.6108410000    -4.5469990000    -0.3757080000
   18      H      -4.5625440000    -5.1075640000    -0.4411150000
   19      H      -3.3640290000    -4.1314730000    -1.3762770000
   20      H      -3.7435660000    -3.7120850000     0.3461070000
   21      C       1.0744910000    -2.3143260000    -0.0004580000
   22      S      -1.5488480000    -2.2954870000     0.0131440000
   23      C       0.0000000000    -1.4351800000     0.0000000000
   24      H       2.1236880000    -1.9932110000    -0.0049530000
   25      H       0.2623150000    -9.6159850000     0.0454680000
   26      C       0.0000000000     0.0000000000     0.0000000000
   27      S       0.7800440000     0.4477800000     1.5107320000
   28      C       2.1437740000     1.2363720000     0.7276290000
   29      C       0.7865290000     0.4541370000    -1.0646650000
   30      C       1.9884990000     1.1498440000    -0.6782870000
   31      C       0.7298640000     0.4195120000    -2.4861500000
   32      C       1.8251770000     1.0520410000    -3.1069160000
   33      S       2.9038770000     1.6786800000    -1.9657350000
   34      C       2.0478960000     1.1752320000    -4.5599720000
   35      O       1.2409530000     0.7058970000    -5.3502770000
   36      O       3.1607910000     1.8140240000    -5.0043750000
   37      F      -0.2330390000    -0.1409400000    -3.2462900000
   38      C       3.4765100000     1.9845850000    -6.3349760000
   39      H       4.4337350000     2.5365450000    -6.3702680000
   40      H       2.6938350000     2.5615030000    -6.8756090000
   41      H       3.5882390000     1.0111130000    -6.8618780000
   42      H       2.9405690000     1.6963270000     1.3215100000
 ----------------------------------------------------------------

   11   -2754.2302593571      6.89e-07  Convergence criterion met
 Total energy in the final basis set =    -2754.2302593571
        RIMP2         total energy =     -2759.3015125248 a.u.

                    Orbital Energies (a.u.)
 --------------------------------------------------------------

 Alpha MOs
 -- Occupied --
-92.0155 -92.0061 -91.9832 -91.9793 -26.3339 -20.6161 -20.5897 -20.5883
-20.5575 -11.4166 -11.3756 -11.3264 -11.3154 -11.3128 -11.3116 -11.2996
-11.2966 -11.2911 -11.2905 -11.2848 -11.2845 -11.2806 -11.2781 -11.2756
-11.2687 -11.2567 -11.2531 -11.2475 -11.2433  -9.0144  -9.0096  -8.9832
 -8.9800  -6.6950  -6.6940  -6.6940  -6.6907  -6.6901  -6.6889  -6.6642
 -6.6635  -6.6627  -6.6609  -6.6602  -6.6593  -1.6469  -1.4764  -1.4136
 -1.4111  -1.3726  -1.2434  -1.1916  -1.1696  -1.1437  -1.0830  -1.0511
 -1.0474  -1.0328  -0.9972  -0.9913  -0.9754  -0.9575  -0.9478  -0.9386
 -0.8916  -0.8757  -0.8414  -0.8051  -0.7940  -0.7844  -0.7782  -0.7672
 -0.7527  -0.7300  -0.7177  -0.7155  -0.6993  -0.6925  -0.6819  -0.6792
 -0.6771  -0.6609  -0.6563  -0.6503  -0.6279  -0.6175  -0.6142  -0.6119
 -0.6079  -0.6008  -0.5851  -0.5722  -0.5671  -0.5628  -0.5529  -0.5484
 -0.5321  -0.5234  -0.5217  -0.5146  -0.5118  -0.5080  -0.5001  -0.4920
 -0.4908  -0.4870  -0.4679  -0.4665  -0.4644  -0.4599  -0.4546  -0.4017
 -0.3953  -0.3839  -0.3627  -0.3386  -0.3064  -0.3030  -0.2514

          Ground-State Mulliken Net Atomic Charges

     Atom                 Charge (a.u.)
  ----------------------------------------
      1 C                    -0.195758
      2 C                    -0.254514
      3 S                    -0.029393
      4 C                    -0.020214
      5 H                     0.195547
      6 C                    -0.025757
      7 C                     0.228810
      8 C                     0.243504
      9 C                    -0.048083
     10 C                    -0.016620
     11 O                    -0.333805
     12 O                    -0.342532
     13 C                    -0.085697
     14 H                     0.120740
     15 H                     0.090753
     16 H                     0.092782
     17 C                    -0.086422
     18 H                     0.124007
     19 H                     0.094647
     20 H                     0.089510
     21 C                    -0.272155
     22 S                    -0.022420
     23 C                     0.008870
     24 H                     0.195263
     25 H                     0.204860
     26 C                    -0.173009
     27 S                     0.143706
     28 C                    -0.144749
     29 C                    -0.039327
     30 C                    -0.033105
     31 C                     0.371923
     32 C                    -0.127559
     33 S                     0.073526
     34 C                     0.458359
     35 O                    -0.437029
     36 O                    -0.296382
     37 F                    -0.208513
     38 C                    -0.054727
     39 H                     0.117476
     40 H                     0.085864
     41 H                     0.085958
     42 H                     0.221667
  ----------------------------------------
  Sum of atomic charges =     0.000000

                    Cartesian Multipole Moments
 -----------------------------------------------------------------
    Charge (ESU x 10^10)
                 0.0000
    Dipole Moment (Debye)
         X       4.9791      Y       2.5530      Z       2.8225
       Tot       6.2670
    Quadrupole Moments (Debye-Ang)
        XX    -163.4555     XY       9.7371     YY    -179.7210
        XZ      -5.4240     YZ      -7.6698     ZZ    -200.4615

 Total job time:  320.38s(wall), 10710.37s(cpu)
        *  Thank you very much for using Q-Chem.  Have a nice day.  *
