 Q-Chem 5.4, Q-Chem, Inc., Pleasanton, CA (2021)
 Q-Chem 5.4.0 for Intel X86 EM64T Linux

User input:
--------------------------------------------------------------
$molecule
0 1
C	0.046574	-8.519741	0.268090
C	-0.326886	-7.635967	-0.733920
S	0.595708	-7.651740	1.722318
C	-0.193236	-6.261894	-0.371516
H	-0.692700	-7.954738	-1.718130
C	0.294958	-6.079985	0.970283
C	0.515487	-4.798382	1.498243
C	-0.477358	-5.153542	-1.219725
C	-0.252655	-3.869626	-0.692914
C	0.233366	-3.688927	0.651289
O	-0.957369	-5.481075	-2.451623
O	0.998769	-4.479871	2.735264
C	0.752029	-5.356026	3.828387
H	1.012675	-4.790496	4.743213
H	1.386303	-6.268513	3.788623
H	-0.316492	-5.658187	3.877260
C	-0.881930	-4.546999	-3.521580
H	-1.145969	-5.107564	-4.438260
H	0.142712	-4.131473	-3.631868
H	-1.605610	-3.712085	-3.399425
C	0.367928	-2.314326	1.009535
S	-0.542088	-2.295487	-1.450945
C	0.000000	-1.435180	0.000000
H	0.730999	-1.993211	1.993920
H	0.046991	-9.615985	0.262047
C	0.000000	0.000000	0.000000
S	0.234946	0.868203	1.510732
C	0.641630	2.390125	0.727629
C	0.235036	0.877284	-1.064665
C	0.593019	2.219143	-0.678287
C	0.219452	0.812732	-2.486150
C	0.546689	2.034501	-3.106916
S	0.866345	3.240357	-1.965735
C	0.617067	2.279095	-4.559972
O	0.378342	1.376631	-5.350277
O	0.952308	3.517725	-5.004375
F	-0.065123	-0.264443	-3.246290
C	1.054950	3.861577	-6.334976
H	1.341516	4.928732	-6.370268
H	0.093573	3.716085	-6.875609
H	1.822303	3.252232	-6.861878
H	0.879812	3.278780	1.321510
$end

$rem
JOBTYPE		SP
EXCHANGE	HF
CORRELATION	pRIMP2
BASIS		cc-pvtz
METHOD		rimp2
AUX_BASIS	rimp2-cc-pvtz
SOLVENT_METHOD	PCM
PURECART	11111
SYMMETRY	false
MEM_TOTAL	110000
SCF_CONVERGENCE = 6
THRESH=10
GUI = 2
$end

$solvent
dielectric 4.90
$end
--------------------------------------------------------------

             Standard Nuclear Orientation (Angstroms)
    I     Atom           X                Y                Z
 ----------------------------------------------------------------
    1      C       0.0465740000    -8.5197410000     0.2680900000
    2      C      -0.3268860000    -7.6359670000    -0.7339200000
    3      S       0.5957080000    -7.6517400000     1.7223180000
    4      C      -0.1932360000    -6.2618940000    -0.3715160000
    5      H      -0.6927000000    -7.9547380000    -1.7181300000
    6      C       0.2949580000    -6.0799850000     0.9702830000
    7      C       0.5154870000    -4.7983820000     1.4982430000
    8      C      -0.4773580000    -5.1535420000    -1.2197250000
    9      C      -0.2526550000    -3.8696260000    -0.6929140000
   10      C       0.2333660000    -3.6889270000     0.6512890000
   11      O      -0.9573690000    -5.4810750000    -2.4516230000
   12      O       0.9987690000    -4.4798710000     2.7352640000
   13      C       0.7520290000    -5.3560260000     3.8283870000
   14      H       1.0126750000    -4.7904960000     4.7432130000
   15      H       1.3863030000    -6.2685130000     3.7886230000
   16      H      -0.3164920000    -5.6581870000     3.8772600000
   17      C      -0.8819300000    -4.5469990000    -3.5215800000
   18      H      -1.1459690000    -5.1075640000    -4.4382600000
   19      H       0.1427120000    -4.1314730000    -3.6318680000
   20      H      -1.6056100000    -3.7120850000    -3.3994250000
   21      C       0.3679280000    -2.3143260000     1.0095350000
   22      S      -0.5420880000    -2.2954870000    -1.4509450000
   23      C       0.0000000000    -1.4351800000     0.0000000000
   24      H       0.7309990000    -1.9932110000     1.9939200000
   25      H       0.0469910000    -9.6159850000     0.2620470000
   26      C       0.0000000000     0.0000000000     0.0000000000
   27      S       0.2349460000     0.8682030000     1.5107320000
   28      C       0.6416300000     2.3901250000     0.7276290000
   29      C       0.2350360000     0.8772840000    -1.0646650000
   30      C       0.5930190000     2.2191430000    -0.6782870000
   31      C       0.2194520000     0.8127320000    -2.4861500000
   32      C       0.5466890000     2.0345010000    -3.1069160000
   33      S       0.8663450000     3.2403570000    -1.9657350000
   34      C       0.6170670000     2.2790950000    -4.5599720000
   35      O       0.3783420000     1.3766310000    -5.3502770000
   36      O       0.9523080000     3.5177250000    -5.0043750000
   37      F      -0.0651230000    -0.2644430000    -3.2462900000
   38      C       1.0549500000     3.8615770000    -6.3349760000
   39      H       1.3415160000     4.9287320000    -6.3702680000
   40      H       0.0935730000     3.7160850000    -6.8756090000
   41      H       1.8223030000     3.2522320000    -6.8618780000
   42      H       0.8798120000     3.2787800000     1.3215100000
 ----------------------------------------------------------------

   10   -2754.2902490795      8.09e-07  Convergence criterion met
 Total energy in the final basis set =    -2754.2902490795
        RIMP2         total energy =     -2759.3474927068 a.u.

                    Orbital Energies (a.u.)
 --------------------------------------------------------------

 Alpha MOs
 -- Occupied --
-92.0152 -91.9954 -91.9862 -91.9856 -26.3354 -20.6122 -20.5917 -20.5912
-20.5502 -11.4105 -11.3786 -11.3184 -11.3179 -11.3124 -11.2977 -11.2977
-11.2974 -11.2946 -11.2886 -11.2864 -11.2855 -11.2847 -11.2837 -11.2834
-11.2797 -11.2612 -11.2588 -11.2580 -11.2498  -9.0136  -8.9994  -8.9866
 -8.9861  -6.6943  -6.6938  -6.6933  -6.6807  -6.6800  -6.6787  -6.6674
 -6.6671  -6.6667  -6.6665  -6.6657  -6.6656  -1.6506  -1.4720  -1.4156
 -1.4143  -1.3673  -1.2346  -1.1960  -1.1689  -1.1422  -1.0845  -1.0519
 -1.0483  -1.0289  -1.0020  -0.9937  -0.9726  -0.9605  -0.9498  -0.9383
 -0.8956  -0.8700  -0.8516  -0.8096  -0.7948  -0.7871  -0.7751  -0.7637
 -0.7579  -0.7323  -0.7202  -0.7180  -0.7005  -0.6888  -0.6838  -0.6787
 -0.6736  -0.6619  -0.6584  -0.6523  -0.6288  -0.6195  -0.6161  -0.6068
 -0.6017  -0.5960  -0.5888  -0.5716  -0.5683  -0.5671  -0.5577  -0.5526
 -0.5300  -0.5271  -0.5216  -0.5194  -0.5145  -0.5091  -0.5018  -0.4948
 -0.4862  -0.4833  -0.4798  -0.4650  -0.4617  -0.4611  -0.4584  -0.4233
 -0.3955  -0.3862  -0.3593  -0.3504  -0.3243  -0.2839  -0.2479

          Ground-State Mulliken Net Atomic Charges

     Atom                 Charge (a.u.)
  ----------------------------------------
      1 C                    -0.188368
      2 C                    -0.254121
      3 S                    -0.023281
      4 C                    -0.013771
      5 H                     0.196573
      6 C                    -0.029721
      7 C                     0.241947
      8 C                     0.241912
      9 C                    -0.044211
     10 C                    -0.027641
     11 O                    -0.333888
     12 O                    -0.340526
     13 C                    -0.085627
     14 H                     0.122299
     15 H                     0.091258
     16 H                     0.094070
     17 C                    -0.087657
     18 H                     0.125011
     19 H                     0.095401
     20 H                     0.090060
     21 C                    -0.242141
     22 S                    -0.012374
     23 C                    -0.008168
     24 H                     0.190416
     25 H                     0.206453
     26 C                     0.008556
     27 S                     0.091708
     28 C                    -0.224350
     29 C                    -0.076235
     30 C                    -0.028039
     31 C                     0.373161
     32 C                    -0.136776
     33 S                     0.040106
     34 C                     0.457855
     35 O                    -0.450630
     36 O                    -0.297839
     37 F                    -0.208914
     38 C                    -0.054915
     39 H                     0.116705
     40 H                     0.084476
     41 H                     0.084443
     42 H                     0.216783
  ----------------------------------------
  Sum of atomic charges =     0.000000

                    Cartesian Multipole Moments
 -----------------------------------------------------------------
    Charge (ESU x 10^10)
                -0.0000
    Dipole Moment (Debye)
         X       0.6652      Y       1.7008      Z       2.9886
       Tot       3.5024
    Quadrupole Moments (Debye-Ang)
        XX    -200.5485     XY       5.3608     YY    -160.9282
        XZ       0.0919     YZ     -10.7182     ZZ    -181.1333

 Total job time:  310.48s(wall), 9559.09s(cpu)
        *  Thank you very much for using Q-Chem.  Have a nice day.  *
