 Q-Chem 5.4, Q-Chem, Inc., Pleasanton, CA (2021)
 Q-Chem 5.4.0 for Intel X86 EM64T Linux

User input:
--------------------------------------------------------------
$molecule
0 1
C	-0.135457	-8.519741	-0.235993
C	0.558188	-7.635967	0.577858
S	-1.148850	-7.651740	-1.414705
C	0.308648	-6.261894	0.283020
H	1.238560	-7.954738	1.377597
C	-0.609026	-6.079985	-0.810887
C	-0.996828	-4.798382	-1.231581
C	0.865740	-5.153542	0.982901
C	0.474408	-3.869626	0.564713
C	-0.442046	-3.688927	-0.532196
O	1.738137	-5.481075	1.976332
O	-1.874052	-4.479871	-2.228709
C	-2.016062	-5.356026	-3.340298
H	-2.573877	-4.790496	-4.110807
H	-2.598484	-6.268513	-3.085998
H	-1.028695	-5.658187	-3.751679
C	2.033195	-4.546999	3.007565
H	2.594833	-5.107564	3.778655
H	1.108067	-4.131473	3.461650
H	2.671451	-3.712085	2.645264
C	-0.691020	-2.314326	-0.822814
S	1.005649	-2.295487	1.178037
C	0.000000	-1.435180	0.000000
H	-1.368875	-1.993211	-1.623656
H	-0.133782	-9.615985	-0.230172
C	0.000000	0.000000	0.000000
S	0.080615	0.895811	1.510732
C	0.216842	2.465231	0.727629
C	0.079127	0.904769	-1.064665
C	0.198659	2.288406	-0.678287
C	0.074988	0.838492	-2.486150
C	0.185097	2.098524	-3.106916
S	0.290501	3.341568	-1.965735
C	0.211932	2.351623	-4.559972
O	0.133545	1.421416	-5.350277
O	0.326994	3.629649	-5.004375
F	-0.018214	-0.271734	-3.246290
C	0.368367	3.986101	-6.334976
H	0.465270	5.086806	-6.370268
H	-0.553140	3.675878	-6.875609
H	1.229874	3.519263	-6.861878
H	0.297091	3.381746	1.321510
$end

$rem
JOBTYPE		SP
EXCHANGE	HF
CORRELATION	pRIMP2
BASIS		cc-pvtz
METHOD		rimp2
AUX_BASIS	rimp2-cc-pvtz
SOLVENT_METHOD	PCM
PURECART	11111
SYMMETRY	false
MEM_TOTAL	110000
SCF_CONVERGENCE = 6
THRESH=10
GUI = 2
$end

$solvent
dielectric 4.90
$end
--------------------------------------------------------------

             Standard Nuclear Orientation (Angstroms)
    I     Atom           X                Y                Z
 ----------------------------------------------------------------
    1      C      -0.1354570000    -8.5197410000    -0.2359930000
    2      C       0.5581880000    -7.6359670000     0.5778580000
    3      S      -1.1488500000    -7.6517400000    -1.4147050000
    4      C       0.3086480000    -6.2618940000     0.2830200000
    5      H       1.2385600000    -7.9547380000     1.3775970000
    6      C      -0.6090260000    -6.0799850000    -0.8108870000
    7      C      -0.9968280000    -4.7983820000    -1.2315810000
    8      C       0.8657400000    -5.1535420000     0.9829010000
    9      C       0.4744080000    -3.8696260000     0.5647130000
   10      C      -0.4420460000    -3.6889270000    -0.5321960000
   11      O       1.7381370000    -5.4810750000     1.9763320000
   12      O      -1.8740520000    -4.4798710000    -2.2287090000
   13      C      -2.0160620000    -5.3560260000    -3.3402980000
   14      H      -2.5738770000    -4.7904960000    -4.1108070000
   15      H      -2.5984840000    -6.2685130000    -3.0859980000
   16      H      -1.0286950000    -5.6581870000    -3.7516790000
   17      C       2.0331950000    -4.5469990000     3.0075650000
   18      H       2.5948330000    -5.1075640000     3.7786550000
   19      H       1.1080670000    -4.1314730000     3.4616500000
   20      H       2.6714510000    -3.7120850000     2.6452640000
   21      C      -0.6910200000    -2.3143260000    -0.8228140000
   22      S       1.0056490000    -2.2954870000     1.1780370000
   23      C       0.0000000000    -1.4351800000     0.0000000000
   24      H      -1.3688750000    -1.9932110000    -1.6236560000
   25      H      -0.1337820000    -9.6159850000    -0.2301720000
   26      C       0.0000000000     0.0000000000     0.0000000000
   27      S       0.0806150000     0.8958110000     1.5107320000
   28      C       0.2168420000     2.4652310000     0.7276290000
   29      C       0.0791270000     0.9047690000    -1.0646650000
   30      C       0.1986590000     2.2884060000    -0.6782870000
   31      C       0.0749880000     0.8384920000    -2.4861500000
   32      C       0.1850970000     2.0985240000    -3.1069160000
   33      S       0.2905010000     3.3415680000    -1.9657350000
   34      C       0.2119320000     2.3516230000    -4.5599720000
   35      O       0.1335450000     1.4214160000    -5.3502770000
   36      O       0.3269940000     3.6296490000    -5.0043750000
   37      F      -0.0182140000    -0.2717340000    -3.2462900000
   38      C       0.3683670000     3.9861010000    -6.3349760000
   39      H       0.4652700000     5.0868060000    -6.3702680000
   40      H      -0.5531400000     3.6758780000    -6.8756090000
   41      H       1.2298740000     3.5192630000    -6.8618780000
   42      H       0.2970910000     3.3817460000     1.3215100000
 ----------------------------------------------------------------

   10   -2754.2981368256      7.79e-07  Convergence criterion met
 Total energy in the final basis set =    -2754.2981368256
        RIMP2         total energy =     -2759.3515214095 a.u.

                    Orbital Energies (a.u.)
 --------------------------------------------------------------

 Alpha MOs
 -- Occupied --
-92.0161 -91.9944 -91.9919 -91.9869 -26.3348 -20.6117 -20.5931 -20.5916
-20.5494 -11.4098 -11.3777 -11.3201 -11.3191 -11.3130 -11.2968 -11.2961
-11.2956 -11.2923 -11.2883 -11.2878 -11.2877 -11.2856 -11.2847 -11.2816
-11.2806 -11.2621 -11.2602 -11.2591 -11.2504  -9.0144  -8.9984  -8.9923
 -8.9868  -6.6952  -6.6946  -6.6941  -6.6797  -6.6790  -6.6777  -6.6733
 -6.6726  -6.6716  -6.6678  -6.6671  -6.6663  -1.6478  -1.4714  -1.4172
 -1.4144  -1.3667  -1.2333  -1.1971  -1.1693  -1.1422  -1.0847  -1.0529
 -1.0476  -1.0276  -1.0035  -0.9938  -0.9717  -0.9615  -0.9508  -0.9384
 -0.8969  -0.8691  -0.8515  -0.8042  -0.7939  -0.7883  -0.7725  -0.7698
 -0.7583  -0.7331  -0.7189  -0.7159  -0.7019  -0.6888  -0.6837  -0.6782
 -0.6713  -0.6614  -0.6596  -0.6527  -0.6302  -0.6203  -0.6169  -0.6061
 -0.6013  -0.5939  -0.5869  -0.5777  -0.5688  -0.5609  -0.5554  -0.5500
 -0.5375  -0.5263  -0.5230  -0.5179  -0.5170  -0.5088  -0.5038  -0.4953
 -0.4877  -0.4840  -0.4787  -0.4700  -0.4621  -0.4611  -0.4602  -0.4179
 -0.3979  -0.3869  -0.3588  -0.3502  -0.3229  -0.2860  -0.2517

          Ground-State Mulliken Net Atomic Charges

     Atom                 Charge (a.u.)
  ----------------------------------------
      1 C                    -0.186580
      2 C                    -0.254830
      3 S                    -0.020227
      4 C                    -0.012541
      5 H                     0.196525
      6 C                    -0.027927
      7 C                     0.246791
      8 C                     0.239637
      9 C                    -0.044169
     10 C                    -0.031266
     11 O                    -0.332940
     12 O                    -0.339209
     13 C                    -0.085776
     14 H                     0.123599
     15 H                     0.090909
     16 H                     0.094529
     17 C                    -0.087501
     18 H                     0.125418
     19 H                     0.094640
     20 H                     0.089906
     21 C                    -0.215658
     22 S                    -0.016432
     23 C                    -0.030857
     24 H                     0.195376
     25 H                     0.206784
     26 C                    -0.011241
     27 S                     0.099081
     28 C                    -0.240334
     29 C                    -0.071371
     30 C                    -0.011600
     31 C                     0.384313
     32 C                    -0.147012
     33 S                     0.036264
     34 C                     0.459933
     35 O                    -0.451712
     36 O                    -0.298001
     37 F                    -0.212649
     38 C                    -0.055081
     39 H                     0.116556
     40 H                     0.084372
     41 H                     0.084430
     42 H                     0.215851
  ----------------------------------------
  Sum of atomic charges =     0.000000

                    Cartesian Multipole Moments
 -----------------------------------------------------------------
    Charge (ESU x 10^10)
                 0.0000
    Dipole Moment (Debye)
         X       0.4936      Y       1.2151      Z       3.1252
       Tot       3.3892
    Quadrupole Moments (Debye-Ang)
        XX    -196.5961     XY       0.6198     YY    -157.3417
        XZ       9.3415     YZ      -9.0116     ZZ    -186.6037

 Total job time:  282.71s(wall), 9310.46s(cpu)
        *  Thank you very much for using Q-Chem.  Have a nice day.  *
