 Q-Chem 5.4, Q-Chem, Inc., Pleasanton, CA (2021)
 Q-Chem 5.4.0 for Intel X86 EM64T Linux

User input:
--------------------------------------------------------------
$molecule
0 1
C	0.208886	-8.519741	-0.174379
C	-0.472151	-7.635967	0.650052
S	1.193717	-7.651740	-1.377058
C	-0.225125	-6.261894	0.353105
H	-1.141594	-7.954738	1.458961
C	0.692811	-6.079985	-0.740583
C	1.039773	-4.798382	-1.195546
C	-0.817634	-5.153542	1.023267
C	-0.473754	-3.869626	0.565262
C	0.447350	-3.688927	-0.527745
O	-1.644483	-5.481075	2.054917
O	1.869424	-4.479871	-2.232592
C	2.939466	-5.356026	-2.565470
H	3.601405	-4.790496	-3.248608
H	2.587892	-6.268513	-3.094885
H	3.516052	-5.658187	-1.664539
C	-2.608813	-4.546999	2.524564
H	-3.270661	-5.107564	3.211568
H	-3.216646	-4.131473	1.692342
H	-2.141184	-3.712085	3.090211
C	0.690319	-2.314326	-0.823402
S	-0.985511	-2.295487	1.194935
C	-0.000000	-1.435180	-0.000000
H	1.361286	-1.993211	-1.630024
H	0.203444	-9.615985	-0.171719
C	0.000000	0.000000	0.000000
S	0.451648	0.777811	1.510732
C	1.238377	2.142617	0.727629
C	0.454085	0.786559	-1.064665
C	1.147169	1.990043	-0.678287
C	0.422325	0.728240	-2.486150
C	1.054629	1.823683	-3.106916
S	1.675491	2.905718	-1.965735
C	1.185914	2.041729	-4.559972
O	0.721749	1.231802	-5.350277
O	1.830313	3.151386	-5.004375
F	-0.131347	-0.238577	-3.246290
C	2.018453	3.456956	-6.334976
H	2.571455	4.413580	-6.370268
H	1.052178	3.565244	-6.875609
H	2.601950	2.669768	-6.861878
H	1.698444	2.939346	1.321510
$end

$rem
JOBTYPE		SP
EXCHANGE	HF
CORRELATION	pRIMP2
BASIS		cc-pvtz
METHOD		rimp2
AUX_BASIS	rimp2-cc-pvtz
SOLVENT_METHOD	PCM
PURECART	11111
SYMMETRY	false
MEM_TOTAL	110000
SCF_CONVERGENCE = 6
THRESH=10
GUI = 2
$end

$solvent
dielectric 4.90
$end
--------------------------------------------------------------

             Standard Nuclear Orientation (Angstroms)
    I     Atom           X                Y                Z
 ----------------------------------------------------------------
    1      C       0.2088860000    -8.5197410000    -0.1743790000
    2      C      -0.4721510000    -7.6359670000     0.6500520000
    3      S       1.1937170000    -7.6517400000    -1.3770580000
    4      C      -0.2251250000    -6.2618940000     0.3531050000
    5      H      -1.1415940000    -7.9547380000     1.4589610000
    6      C       0.6928110000    -6.0799850000    -0.7405830000
    7      C       1.0397730000    -4.7983820000    -1.1955460000
    8      C      -0.8176340000    -5.1535420000     1.0232670000
    9      C      -0.4737540000    -3.8696260000     0.5652620000
   10      C       0.4473500000    -3.6889270000    -0.5277450000
   11      O      -1.6444830000    -5.4810750000     2.0549170000
   12      O       1.8694240000    -4.4798710000    -2.2325920000
   13      C       2.9394660000    -5.3560260000    -2.5654700000
   14      H       3.6014050000    -4.7904960000    -3.2486080000
   15      H       2.5878920000    -6.2685130000    -3.0948850000
   16      H       3.5160520000    -5.6581870000    -1.6645390000
   17      C      -2.6088130000    -4.5469990000     2.5245640000
   18      H      -3.2706610000    -5.1075640000     3.2115680000
   19      H      -3.2166460000    -4.1314730000     1.6923420000
   20      H      -2.1411840000    -3.7120850000     3.0902110000
   21      C       0.6903190000    -2.3143260000    -0.8234020000
   22      S      -0.9855110000    -2.2954870000     1.1949350000
   23      C       0.0000000000    -1.4351800000     0.0000000000
   24      H       1.3612860000    -1.9932110000    -1.6300240000
   25      H       0.2034440000    -9.6159850000    -0.1717190000
   26      C       0.0000000000     0.0000000000     0.0000000000
   27      S       0.4516480000     0.7778110000     1.5107320000
   28      C       1.2383770000     2.1426170000     0.7276290000
   29      C       0.4540850000     0.7865590000    -1.0646650000
   30      C       1.1471690000     1.9900430000    -0.6782870000
   31      C       0.4223250000     0.7282400000    -2.4861500000
   32      C       1.0546290000     1.8236830000    -3.1069160000
   33      S       1.6754910000     2.9057180000    -1.9657350000
   34      C       1.1859140000     2.0417290000    -4.5599720000
   35      O       0.7217490000     1.2318020000    -5.3502770000
   36      O       1.8303130000     3.1513860000    -5.0043750000
   37      F      -0.1313470000    -0.2385770000    -3.2462900000
   38      C       2.0184530000     3.4569560000    -6.3349760000
   39      H       2.5714550000     4.4135800000    -6.3702680000
   40      H       1.0521780000     3.5652440000    -6.8756090000
   41      H       2.6019500000     2.6697680000    -6.8618780000
   42      H       1.6984440000     2.9393460000     1.3215100000
 ----------------------------------------------------------------

   10   -2754.2836167390      8.77e-07  Convergence criterion met
 Total energy in the final basis set =    -2754.2836167390
        RIMP2         total energy =     -2759.3423489570 a.u.

                    Orbital Energies (a.u.)
 --------------------------------------------------------------

 Alpha MOs
 -- Occupied --
-92.0163 -91.9975 -91.9882 -91.9860 -26.3344 -20.6128 -20.5923 -20.5907
-20.5513 -11.4115 -11.3776 -11.3190 -11.3172 -11.3038 -11.3016 -11.3003
-11.2981 -11.2956 -11.2889 -11.2870 -11.2857 -11.2854 -11.2848 -11.2837
-11.2792 -11.2610 -11.2584 -11.2553 -11.2497  -9.0148  -9.0014  -8.9888
 -8.9859  -6.6955  -6.6949  -6.6945  -6.6827  -6.6820  -6.6807  -6.6698
 -6.6691  -6.6682  -6.6669  -6.6663  -6.6654  -1.6475  -1.4727  -1.4163
 -1.4135  -1.3681  -1.2359  -1.1957  -1.1690  -1.1432  -1.0843  -1.0518
 -1.0489  -1.0291  -1.0018  -0.9932  -0.9728  -0.9606  -0.9502  -0.9389
 -0.8958  -0.8708  -0.8489  -0.8033  -0.7946  -0.7878  -0.7722  -0.7714
 -0.7569  -0.7322  -0.7193  -0.7159  -0.7012  -0.6899  -0.6823  -0.6791
 -0.6728  -0.6613  -0.6588  -0.6521  -0.6285  -0.6196  -0.6162  -0.6074
 -0.6039  -0.5967  -0.5831  -0.5758  -0.5703  -0.5629  -0.5543  -0.5495
 -0.5342  -0.5264  -0.5253  -0.5160  -0.5153  -0.5082  -0.5044  -0.4968
 -0.4878  -0.4856  -0.4751  -0.4678  -0.4623  -0.4619  -0.4597  -0.4168
 -0.3970  -0.3859  -0.3584  -0.3504  -0.3226  -0.2863  -0.2511

          Ground-State Mulliken Net Atomic Charges

     Atom                 Charge (a.u.)
  ----------------------------------------
      1 C                    -0.189518
      2 C                    -0.254078
      3 S                    -0.022120
      4 C                    -0.016632
      5 H                     0.196215
      6 C                    -0.028786
      7 C                     0.243128
      8 C                     0.244524
      9 C                    -0.041679
     10 C                    -0.027222
     11 O                    -0.333467
     12 O                    -0.339371
     13 C                    -0.085822
     14 H                     0.122852
     15 H                     0.091179
     16 H                     0.093478
     17 C                    -0.087287
     18 H                     0.125559
     19 H                     0.095289
     20 H                     0.089054
     21 C                    -0.214724
     22 S                    -0.028580
     23 C                    -0.000285
     24 H                     0.196220
     25 H                     0.206300
     26 C                    -0.039167
     27 S                     0.124243
     28 C                    -0.224641
     29 C                    -0.110192
     30 C                    -0.009502
     31 C                     0.368141
     32 C                    -0.144337
     33 S                     0.048910
     34 C                     0.460430
     35 O                    -0.447683
     36 O                    -0.297884
     37 F                    -0.210881
     38 C                    -0.054866
     39 H                     0.116801
     40 H                     0.084907
     41 H                     0.084725
     42 H                     0.216768
  ----------------------------------------
  Sum of atomic charges =     0.000000

                    Cartesian Multipole Moments
 -----------------------------------------------------------------
    Charge (ESU x 10^10)
                 0.0000
    Dipole Moment (Debye)
         X       2.1999      Y       1.8233      Z       3.3479
       Tot       4.4014
    Quadrupole Moments (Debye-Ang)
        XX    -181.3108     XY       6.0938     YY    -163.1486
        XZ     -17.7306     YZ     -10.1891     ZZ    -196.9318

 Total job time:  322.35s(wall), 10752.75s(cpu)
        *  Thank you very much for using Q-Chem.  Have a nice day.  *
