 Q-Chem 5.4, Q-Chem, Inc., Pleasanton, CA (2021)
 Q-Chem 5.4.0 for Intel X86 EM64T Linux

User input:
--------------------------------------------------------------
$molecule
0 1
C	0.272104	-8.519741	0.000687
C	-0.779533	-7.635967	0.194476
S	1.799596	-7.651740	-0.287581
C	-0.399427	-6.261894	0.125787
H	-1.812314	-7.954738	0.383826
C	1.006762	-6.079985	-0.121989
C	1.564994	-4.798382	-0.247488
C	-1.284087	-5.153542	0.258303
C	-0.726260	-3.869626	0.128493
C	0.681918	-3.688927	-0.116725
O	-2.580622	-5.481075	0.517104
O	2.867144	-4.479871	-0.508622
C	3.900814	-5.356026	-0.075811
H	4.847002	-4.790496	-0.173640
H	3.971794	-6.268513	-0.707354
H	3.763397	-5.658187	0.984963
C	-3.621225	-4.546999	0.257016
H	-4.569828	-5.107564	0.357864
H	-3.551910	-4.131473	-0.771211
H	-3.626592	-3.712085	0.990913
C	1.058088	-2.314326	-0.187034
S	-1.523035	-2.295487	0.281899
C	-0.000000	-1.435180	-0.000000
H	2.090565	-1.993211	-0.373653
H	0.266226	-9.615985	-0.000773
C	0.000000	0.000000	0.000000
S	0.579852	0.687566	1.510732
C	1.591625	1.895024	0.727629
C	0.583771	0.695758	-1.064665
C	1.475308	1.760606	-0.678287
C	0.542366	0.643841	-2.486150
C	1.355286	1.612843	-3.106916
S	2.154609	2.570627	-1.965735
C	1.522440	1.804778	-4.559972
O	0.924684	1.087757	-5.350277
O	2.349739	2.785679	-5.004375
F	-0.170780	-0.212144	-3.246290
C	2.588082	3.053936	-6.334976
H	3.298799	3.899999	-6.370268
H	1.655291	3.328371	-6.875609
H	3.026021	2.177385	-6.861878
H	2.183053	2.599759	1.321510
$end

$rem
JOBTYPE		SP
EXCHANGE	HF
CORRELATION	pRIMP2
BASIS		cc-pvtz
METHOD		rimp2
AUX_BASIS	rimp2-cc-pvtz
SOLVENT_METHOD	PCM
PURECART	11111
SYMMETRY	false
MEM_TOTAL	110000
SCF_CONVERGENCE = 6
THRESH=10
GUI = 2
$end

$solvent
dielectric 4.90
$end
--------------------------------------------------------------

             Standard Nuclear Orientation (Angstroms)
    I     Atom           X                Y                Z
 ----------------------------------------------------------------
    1      C       0.2721040000    -8.5197410000     0.0006870000
    2      C      -0.7795330000    -7.6359670000     0.1944760000
    3      S       1.7995960000    -7.6517400000    -0.2875810000
    4      C      -0.3994270000    -6.2618940000     0.1257870000
    5      H      -1.8123140000    -7.9547380000     0.3838260000
    6      C       1.0067620000    -6.0799850000    -0.1219890000
    7      C       1.5649940000    -4.7983820000    -0.2474880000
    8      C      -1.2840870000    -5.1535420000     0.2583030000
    9      C      -0.7262600000    -3.8696260000     0.1284930000
   10      C       0.6819180000    -3.6889270000    -0.1167250000
   11      O      -2.5806220000    -5.4810750000     0.5171040000
   12      O       2.8671440000    -4.4798710000    -0.5086220000
   13      C       3.9008140000    -5.3560260000    -0.0758110000
   14      H       4.8470020000    -4.7904960000    -0.1736400000
   15      H       3.9717940000    -6.2685130000    -0.7073540000
   16      H       3.7633970000    -5.6581870000     0.9849630000
   17      C      -3.6212250000    -4.5469990000     0.2570160000
   18      H      -4.5698280000    -5.1075640000     0.3578640000
   19      H      -3.5519100000    -4.1314730000    -0.7712110000
   20      H      -3.6265920000    -3.7120850000     0.9909130000
   21      C       1.0580880000    -2.3143260000    -0.1870340000
   22      S      -1.5230350000    -2.2954870000     0.2818990000
   23      C       0.0000000000    -1.4351800000     0.0000000000
   24      H       2.0905650000    -1.9932110000    -0.3736530000
   25      H       0.2662260000    -9.6159850000    -0.0007730000
   26      C       0.0000000000     0.0000000000     0.0000000000
   27      S       0.5798520000     0.6875660000     1.5107320000
   28      C       1.5916250000     1.8950240000     0.7276290000
   29      C       0.5837710000     0.6957580000    -1.0646650000
   30      C       1.4753080000     1.7606060000    -0.6782870000
   31      C       0.5423660000     0.6438410000    -2.4861500000
   32      C       1.3552860000     1.6128430000    -3.1069160000
   33      S       2.1546090000     2.5706270000    -1.9657350000
   34      C       1.5224400000     1.8047780000    -4.5599720000
   35      O       0.9246840000     1.0877570000    -5.3502770000
   36      O       2.3497390000     2.7856790000    -5.0043750000
   37      F      -0.1707800000    -0.2121440000    -3.2462900000
   38      C       2.5880820000     3.0539360000    -6.3349760000
   39      H       3.2987990000     3.8999990000    -6.3702680000
   40      H       1.6552910000     3.3283710000    -6.8756090000
   41      H       3.0260210000     2.1773850000    -6.8618780000
   42      H       2.1830530000     2.5997590000     1.3215100000
 ----------------------------------------------------------------

   11   -2754.2671923493      5.08e-07  Convergence criterion met
 Total energy in the final basis set =    -2754.2671923493
        RIMP2         total energy =     -2759.3291278469 a.u.

                    Orbital Energies (a.u.)
 --------------------------------------------------------------

 Alpha MOs
 -- Occupied --
-92.0155 -91.9991 -91.9849 -91.9842 -26.3338 -20.6139 -20.5911 -20.5901
-20.5533 -11.4131 -11.3765 -11.3174 -11.3156 -11.3084 -11.3040 -11.2974
-11.2922 -11.2912 -11.2893 -11.2885 -11.2858 -11.2855 -11.2826 -11.2825
-11.2782 -11.2589 -11.2567 -11.2525 -11.2489  -9.0140  -9.0029  -8.9849
 -8.9848  -6.6946  -6.6939  -6.6936  -6.6841  -6.6835  -6.6822  -6.6659
 -6.6658  -6.6653  -6.6650  -6.6644  -6.6642  -1.6467  -1.4738  -1.4151
 -1.4129  -1.3695  -1.2369  -1.1936  -1.1678  -1.1429  -1.0829  -1.0500
 -1.0490  -1.0296  -0.9997  -0.9920  -0.9729  -0.9594  -0.9492  -0.9386
 -0.8938  -0.8717  -0.8461  -0.8038  -0.7923  -0.7865  -0.7746  -0.7694
 -0.7556  -0.7312  -0.7180  -0.7152  -0.7003  -0.6906  -0.6811  -0.6799
 -0.6735  -0.6601  -0.6577  -0.6515  -0.6286  -0.6189  -0.6155  -0.6086
 -0.6042  -0.5984  -0.5823  -0.5746  -0.5697  -0.5642  -0.5536  -0.5512
 -0.5308  -0.5262  -0.5232  -0.5148  -0.5131  -0.5079  -0.5009  -0.4935
 -0.4895  -0.4867  -0.4717  -0.4642  -0.4636  -0.4623  -0.4586  -0.4029
 -0.3993  -0.3859  -0.3599  -0.3443  -0.3122  -0.2938  -0.2558

          Ground-State Mulliken Net Atomic Charges

     Atom                 Charge (a.u.)
  ----------------------------------------
      1 C                    -0.191168
      2 C                    -0.254188
      3 S                    -0.024766
      4 C                    -0.017382
      5 H                     0.196016
      6 C                    -0.028284
      7 C                     0.238919
      8 C                     0.244081
      9 C                    -0.050240
     10 C                    -0.013720
     11 O                    -0.333697
     12 O                    -0.340790
     13 C                    -0.085579
     14 H                     0.121867
     15 H                     0.091066
     16 H                     0.093372
     17 C                    -0.086573
     18 H                     0.124413
     19 H                     0.095007
     20 H                     0.089256
     21 C                    -0.234323
     22 S                    -0.009719
     23 C                    -0.019616
     24 H                     0.197862
     25 H                     0.205848
     26 C                    -0.068231
     27 S                     0.128695
     28 C                    -0.198669
     29 C                    -0.114411
     30 C                    -0.002043
     31 C                     0.380206
     32 C                    -0.144997
     33 S                     0.053478
     34 C                     0.458914
     35 O                    -0.444047
     36 O                    -0.297308
     37 F                    -0.209453
     38 C                    -0.054696
     39 H                     0.116938
     40 H                     0.085170
     41 H                     0.085115
     42 H                     0.217674
  ----------------------------------------
  Sum of atomic charges =     0.000000

                    Cartesian Multipole Moments
 -----------------------------------------------------------------
    Charge (ESU x 10^10)
                 0.0000
    Dipole Moment (Debye)
         X       2.9352      Y       2.2216      Z       3.2332
       Tot       4.8994
    Quadrupole Moments (Debye-Ang)
        XX    -169.6900     XY       8.4987     YY    -168.4694
        XZ      -5.9616     YZ     -10.1720     ZZ    -204.5199

 Total job time:  301.10s(wall), 9784.60s(cpu)
        *  Thank you very much for using Q-Chem.  Have a nice day.  *
