 Q-Chem 5.4, Q-Chem, Inc., Pleasanton, CA (2021)
 Q-Chem 5.4.0 for Intel X86 EM64T Linux

User input:
--------------------------------------------------------------
$molecule
0 1
C	-0.235993	-8.519741	0.135457
C	0.577858	-7.635967	-0.558188
S	-1.414705	-7.651740	1.148850
C	0.283020	-6.261894	-0.308648
H	1.377597	-7.954738	-1.238560
C	-0.810887	-6.079985	0.609026
C	-1.231581	-4.798382	0.996828
C	0.982901	-5.153542	-0.865740
C	0.564713	-3.869626	-0.474408
C	-0.532196	-3.688927	0.442046
O	1.976332	-5.481075	-1.738137
O	-2.228709	-4.479871	1.874052
C	-3.340298	-5.356026	2.016062
H	-4.110807	-4.790496	2.573877
H	-3.085998	-6.268513	2.598484
H	-3.751679	-5.658187	1.028695
C	3.007565	-4.546999	-2.033195
H	3.778655	-5.107564	-2.594833
H	3.461650	-4.131473	-1.108067
H	2.645264	-3.712085	-2.671451
C	-0.822814	-2.314326	0.691020
S	1.178037	-2.295487	-1.005649
C	0.000000	-1.435180	0.000000
H	-1.623656	-1.993211	1.368875
H	-0.230172	-9.615985	0.133782
C	0.000000	0.000000	0.000000
S	0.780044	0.447780	1.510732
C	2.143774	1.236372	0.727629
C	0.786529	0.454137	-1.064665
C	1.988499	1.149844	-0.678287
C	0.729864	0.419512	-2.486150
C	1.825177	1.052041	-3.106916
S	2.903877	1.678680	-1.965735
C	2.047896	1.175232	-4.559972
O	1.240953	0.705897	-5.350277
O	3.160791	1.814024	-5.004375
F	-0.233039	-0.140940	-3.246290
C	3.476510	1.984585	-6.334976
H	4.433735	2.536545	-6.370268
H	2.693835	2.561503	-6.875609
H	3.588239	1.011113	-6.861878
H	2.940569	1.696327	1.321510
$end

$rem
JOBTYPE		SP
EXCHANGE	HF
CORRELATION	pRIMP2
BASIS		cc-pvtz
METHOD		rimp2
AUX_BASIS	rimp2-cc-pvtz
SOLVENT_METHOD	PCM
PURECART	11111
SYMMETRY	false
MEM_TOTAL	110000
SCF_CONVERGENCE = 6
THRESH=10
GUI = 2
$end

$solvent
dielectric 4.90
$end
--------------------------------------------------------------

             Standard Nuclear Orientation (Angstroms)
    I     Atom           X                Y                Z
 ----------------------------------------------------------------
    1      C      -0.2359930000    -8.5197410000     0.1354570000
    2      C       0.5778580000    -7.6359670000    -0.5581880000
    3      S      -1.4147050000    -7.6517400000     1.1488500000
    4      C       0.2830200000    -6.2618940000    -0.3086480000
    5      H       1.3775970000    -7.9547380000    -1.2385600000
    6      C      -0.8108870000    -6.0799850000     0.6090260000
    7      C      -1.2315810000    -4.7983820000     0.9968280000
    8      C       0.9829010000    -5.1535420000    -0.8657400000
    9      C       0.5647130000    -3.8696260000    -0.4744080000
   10      C      -0.5321960000    -3.6889270000     0.4420460000
   11      O       1.9763320000    -5.4810750000    -1.7381370000
   12      O      -2.2287090000    -4.4798710000     1.8740520000
   13      C      -3.3402980000    -5.3560260000     2.0160620000
   14      H      -4.1108070000    -4.7904960000     2.5738770000
   15      H      -3.0859980000    -6.2685130000     2.5984840000
   16      H      -3.7516790000    -5.6581870000     1.0286950000
   17      C       3.0075650000    -4.5469990000    -2.0331950000
   18      H       3.7786550000    -5.1075640000    -2.5948330000
   19      H       3.4616500000    -4.1314730000    -1.1080670000
   20      H       2.6452640000    -3.7120850000    -2.6714510000
   21      C      -0.8228140000    -2.3143260000     0.6910200000
   22      S       1.1780370000    -2.2954870000    -1.0056490000
   23      C       0.0000000000    -1.4351800000     0.0000000000
   24      H      -1.6236560000    -1.9932110000     1.3688750000
   25      H      -0.2301720000    -9.6159850000     0.1337820000
   26      C       0.0000000000     0.0000000000     0.0000000000
   27      S       0.7800440000     0.4477800000     1.5107320000
   28      C       2.1437740000     1.2363720000     0.7276290000
   29      C       0.7865290000     0.4541370000    -1.0646650000
   30      C       1.9884990000     1.1498440000    -0.6782870000
   31      C       0.7298640000     0.4195120000    -2.4861500000
   32      C       1.8251770000     1.0520410000    -3.1069160000
   33      S       2.9038770000     1.6786800000    -1.9657350000
   34      C       2.0478960000     1.1752320000    -4.5599720000
   35      O       1.2409530000     0.7058970000    -5.3502770000
   36      O       3.1607910000     1.8140240000    -5.0043750000
   37      F      -0.2330390000    -0.1409400000    -3.2462900000
   38      C       3.4765100000     1.9845850000    -6.3349760000
   39      H       4.4337350000     2.5365450000    -6.3702680000
   40      H       2.6938350000     2.5615030000    -6.8756090000
   41      H       3.5882390000     1.0111130000    -6.8618780000
   42      H       2.9405690000     1.6963270000     1.3215100000
 ----------------------------------------------------------------

   11   -2754.2297542775      5.82e-07  Convergence criterion met
 Total energy in the final basis set =    -2754.2297542775
        RIMP2         total energy =     -2759.3049669180 a.u.

                    Orbital Energies (a.u.)
 --------------------------------------------------------------

 Alpha MOs
 -- Occupied --
-92.0194 -92.0081 -91.9847 -91.9826 -26.3349 -20.6165 -20.5906 -20.5866
-20.5577 -11.4170 -11.3782 -11.3281 -11.3164 -11.3129 -11.3093 -11.3031
-11.2957 -11.2924 -11.2909 -11.2861 -11.2834 -11.2805 -11.2778 -11.2744
-11.2743 -11.2562 -11.2518 -11.2472 -11.2357  -9.0182  -9.0115  -8.9857
 -8.9826  -6.6987  -6.6978  -6.6976  -6.6927  -6.6921  -6.6908  -6.6666
 -6.6658  -6.6649  -6.6636  -6.6630  -6.6621  -1.6481  -1.4768  -1.4144
 -1.4095  -1.3729  -1.2468  -1.1917  -1.1704  -1.1446  -1.0852  -1.0521
 -1.0466  -1.0349  -0.9985  -0.9914  -0.9768  -0.9573  -0.9480  -0.9393
 -0.8920  -0.8773  -0.8427  -0.8076  -0.7949  -0.7860  -0.7786  -0.7635
 -0.7526  -0.7296  -0.7192  -0.7155  -0.6984  -0.6920  -0.6823  -0.6787
 -0.6776  -0.6648  -0.6566  -0.6496  -0.6270  -0.6167  -0.6154  -0.6126
 -0.6101  -0.6002  -0.5796  -0.5762  -0.5655  -0.5608  -0.5533  -0.5461
 -0.5319  -0.5303  -0.5215  -0.5168  -0.5130  -0.5068  -0.5031  -0.4954
 -0.4909  -0.4842  -0.4683  -0.4678  -0.4648  -0.4644  -0.4565  -0.4073
 -0.3982  -0.3815  -0.3604  -0.3452  -0.3203  -0.2910  -0.2473

          Ground-State Mulliken Net Atomic Charges

     Atom                 Charge (a.u.)
  ----------------------------------------
      1 C                    -0.199265
      2 C                    -0.252811
      3 S                    -0.028796
      4 C                    -0.026908
      5 H                     0.195079
      6 C                    -0.022683
      7 C                     0.225087
      8 C                     0.246197
      9 C                    -0.049041
     10 C                     0.006535
     11 O                    -0.332915
     12 O                    -0.341393
     13 C                    -0.085436
     14 H                     0.120912
     15 H                     0.089896
     16 H                     0.092831
     17 C                    -0.088485
     18 H                     0.125373
     19 H                     0.093214
     20 H                     0.089802
     21 C                    -0.316825
     22 S                    -0.041143
     23 C                     0.042862
     24 H                     0.188658
     25 H                     0.204473
     26 C                    -0.171955
     27 S                     0.155463
     28 C                    -0.141565
     29 C                    -0.056107
     30 C                    -0.027014
     31 C                     0.378679
     32 C                    -0.124011
     33 S                     0.080363
     34 C                     0.459034
     35 O                    -0.437372
     36 O                    -0.296770
     37 F                    -0.210421
     38 C                    -0.054708
     39 H                     0.117579
     40 H                     0.086081
     41 H                     0.085773
     42 H                     0.221732
  ----------------------------------------
  Sum of atomic charges =     0.000000

                    Cartesian Multipole Moments
 -----------------------------------------------------------------
    Charge (ESU x 10^10)
                -0.0000
    Dipole Moment (Debye)
         X       5.5323      Y       2.9997      Z       2.2028
       Tot       6.6676
    Quadrupole Moments (Debye-Ang)
        XX    -166.4228     XY       9.2948     YY    -181.0565
        XZ     -20.6142     YZ      -4.3271     ZZ    -196.8931

 Total job time:  323.33s(wall), 10958.50s(cpu)
        *  Thank you very much for using Q-Chem.  Have a nice day.  *
