 Q-Chem 5.4, Q-Chem, Inc., Pleasanton, CA (2021)
 Q-Chem 5.4.0 for Intel X86 EM64T Linux

User input:
--------------------------------------------------------------
$molecule
0 1
C	0.267851	-8.519741	0.047927
C	-0.801461	-7.635967	0.056157
S	1.822194	-7.651740	0.029285
C	-0.415201	-6.261894	0.054516
H	-1.851431	-7.954738	0.063290
C	1.012650	-6.079985	0.054687
C	1.584194	-4.798382	0.028030
C	-1.309433	-5.153542	0.031399
C	-0.737539	-3.869626	0.000427
C	0.691828	-3.688927	0.003462
O	-2.631211	-5.481075	0.061128
O	2.911907	-4.479871	-0.003021
C	3.854716	-5.356026	0.602710
H	4.803517	-4.790496	0.670671
H	4.034285	-6.268513	-0.006913
H	3.535185	-5.658187	1.623507
C	-3.610841	-4.546999	-0.375708
H	-4.562544	-5.107564	-0.441115
H	-3.364029	-4.131473	-1.376277
H	-3.743566	-3.712085	0.346107
C	1.074491	-2.314326	-0.000458
S	-1.548848	-2.295487	0.013144
C	-0.000000	-1.435180	-0.000000
H	2.123688	-1.993211	-0.004953
H	0.262315	-9.615985	0.045468
C	0.000000	0.000000	0.000000
S	0.579852	0.687566	1.510732
C	1.591625	1.895024	0.727629
C	0.583771	0.695758	-1.064665
C	1.475308	1.760606	-0.678287
C	0.542366	0.643841	-2.486150
C	1.355286	1.612843	-3.106916
S	2.154609	2.570627	-1.965735
C	1.522440	1.804778	-4.559972
O	0.924684	1.087757	-5.350277
O	2.349739	2.785679	-5.004375
F	-0.170780	-0.212144	-3.246290
C	2.588082	3.053936	-6.334976
H	3.298799	3.899999	-6.370268
H	1.655291	3.328371	-6.875609
H	3.026021	2.177385	-6.861878
H	2.183053	2.599759	1.321510
$end

$rem
JOBTYPE		SP
EXCHANGE	HF
CORRELATION	pRIMP2
BASIS		cc-pvtz
METHOD		rimp2
AUX_BASIS	rimp2-cc-pvtz
SOLVENT_METHOD	PCM
PURECART	11111
SYMMETRY	false
MEM_TOTAL	110000
SCF_CONVERGENCE = 6
THRESH=10
GUI = 2
$end

$solvent
dielectric 4.90
$end
--------------------------------------------------------------

             Standard Nuclear Orientation (Angstroms)
    I     Atom           X                Y                Z
 ----------------------------------------------------------------
    1      C       0.2678510000    -8.5197410000     0.0479270000
    2      C      -0.8014610000    -7.6359670000     0.0561570000
    3      S       1.8221940000    -7.6517400000     0.0292850000
    4      C      -0.4152010000    -6.2618940000     0.0545160000
    5      H      -1.8514310000    -7.9547380000     0.0632900000
    6      C       1.0126500000    -6.0799850000     0.0546870000
    7      C       1.5841940000    -4.7983820000     0.0280300000
    8      C      -1.3094330000    -5.1535420000     0.0313990000
    9      C      -0.7375390000    -3.8696260000     0.0004270000
   10      C       0.6918280000    -3.6889270000     0.0034620000
   11      O      -2.6312110000    -5.4810750000     0.0611280000
   12      O       2.9119070000    -4.4798710000    -0.0030210000
   13      C       3.8547160000    -5.3560260000     0.6027100000
   14      H       4.8035170000    -4.7904960000     0.6706710000
   15      H       4.0342850000    -6.2685130000    -0.0069130000
   16      H       3.5351850000    -5.6581870000     1.6235070000
   17      C      -3.6108410000    -4.5469990000    -0.3757080000
   18      H      -4.5625440000    -5.1075640000    -0.4411150000
   19      H      -3.3640290000    -4.1314730000    -1.3762770000
   20      H      -3.7435660000    -3.7120850000     0.3461070000
   21      C       1.0744910000    -2.3143260000    -0.0004580000
   22      S      -1.5488480000    -2.2954870000     0.0131440000
   23      C       0.0000000000    -1.4351800000     0.0000000000
   24      H       2.1236880000    -1.9932110000    -0.0049530000
   25      H       0.2623150000    -9.6159850000     0.0454680000
   26      C       0.0000000000     0.0000000000     0.0000000000
   27      S       0.5798520000     0.6875660000     1.5107320000
   28      C       1.5916250000     1.8950240000     0.7276290000
   29      C       0.5837710000     0.6957580000    -1.0646650000
   30      C       1.4753080000     1.7606060000    -0.6782870000
   31      C       0.5423660000     0.6438410000    -2.4861500000
   32      C       1.3552860000     1.6128430000    -3.1069160000
   33      S       2.1546090000     2.5706270000    -1.9657350000
   34      C       1.5224400000     1.8047780000    -4.5599720000
   35      O       0.9246840000     1.0877570000    -5.3502770000
   36      O       2.3497390000     2.7856790000    -5.0043750000
   37      F      -0.1707800000    -0.2121440000    -3.2462900000
   38      C       2.5880820000     3.0539360000    -6.3349760000
   39      H       3.2987990000     3.8999990000    -6.3702680000
   40      H       1.6552910000     3.3283710000    -6.8756090000
   41      H       3.0260210000     2.1773850000    -6.8618780000
   42      H       2.1830530000     2.5997590000     1.3215100000
 ----------------------------------------------------------------

   11   -2754.2664220481      5.18e-07  Convergence criterion met
 Total energy in the final basis set =    -2754.2664220481
        RIMP2         total energy =     -2759.3286448717 a.u.

                    Orbital Energies (a.u.)
 --------------------------------------------------------------

 Alpha MOs
 -- Occupied --
-92.0158 -91.9991 -91.9849 -91.9840 -26.3338 -20.6138 -20.5910 -20.5901
-20.5533 -11.4131 -11.3762 -11.3173 -11.3155 -11.3082 -11.3041 -11.2973
-11.2919 -11.2909 -11.2893 -11.2885 -11.2856 -11.2856 -11.2825 -11.2824
-11.2781 -11.2589 -11.2566 -11.2525 -11.2488  -9.0142  -9.0030  -8.9849
 -8.9846  -6.6948  -6.6941  -6.6938  -6.6842  -6.6835  -6.6822  -6.6659
 -6.6655  -6.6652  -6.6648  -6.6644  -6.6639  -1.6467  -1.4738  -1.4150
 -1.4129  -1.3695  -1.2368  -1.1935  -1.1677  -1.1428  -1.0828  -1.0499
 -1.0490  -1.0296  -0.9996  -0.9919  -0.9728  -0.9593  -0.9491  -0.9386
 -0.8936  -0.8717  -0.8460  -0.8044  -0.7918  -0.7864  -0.7750  -0.7687
 -0.7556  -0.7311  -0.7179  -0.7153  -0.7002  -0.6905  -0.6811  -0.6799
 -0.6735  -0.6601  -0.6575  -0.6515  -0.6288  -0.6188  -0.6154  -0.6086
 -0.6038  -0.5984  -0.5835  -0.5741  -0.5696  -0.5646  -0.5534  -0.5517
 -0.5302  -0.5261  -0.5229  -0.5148  -0.5129  -0.5079  -0.5008  -0.4925
 -0.4900  -0.4868  -0.4719  -0.4642  -0.4635  -0.4622  -0.4583  -0.4030
 -0.3994  -0.3856  -0.3599  -0.3436  -0.3106  -0.2951  -0.2560

          Ground-State Mulliken Net Atomic Charges

     Atom                 Charge (a.u.)
  ----------------------------------------
      1 C                    -0.191142
      2 C                    -0.254379
      3 S                    -0.025124
      4 C                    -0.017309
      5 H                     0.196131
      6 C                    -0.028582
      7 C                     0.239082
      8 C                     0.243959
      9 C                    -0.050027
     10 C                    -0.014506
     11 O                    -0.333634
     12 O                    -0.340859
     13 C                    -0.085559
     14 H                     0.121831
     15 H                     0.090971
     16 H                     0.093362
     17 C                    -0.086360
     18 H                     0.124296
     19 H                     0.095061
     20 H                     0.089233
     21 C                    -0.230336
     22 S                    -0.007398
     23 C                    -0.029735
     24 H                     0.197919
     25 H                     0.205816
     26 C                    -0.068509
     27 S                     0.128737
     28 C                    -0.200023
     29 C                    -0.097847
     30 C                    -0.002978
     31 C                     0.370392
     32 C                    -0.144720
     33 S                     0.053923
     34 C                     0.458594
     35 O                    -0.444031
     36 O                    -0.297280
     37 F                    -0.208977
     38 C                    -0.054688
     39 H                     0.116942
     40 H                     0.085141
     41 H                     0.085123
     42 H                     0.217488
  ----------------------------------------
  Sum of atomic charges =     0.000000

                    Cartesian Multipole Moments
 -----------------------------------------------------------------
    Charge (ESU x 10^10)
                 0.0000
    Dipole Moment (Debye)
         X       2.8857      Y       2.2505      Z       3.2159
       Tot       4.8718
    Quadrupole Moments (Debye-Ang)
        XX    -170.9921     XY       8.7868     YY    -168.6945
        XZ      -1.8793     YZ     -10.2045     ZZ    -203.1967

 Total job time:  514.52s(wall), 9899.92s(cpu)
        *  Thank you very much for using Q-Chem.  Have a nice day.  *
