 Q-Chem 5.4, Q-Chem, Inc., Pleasanton, CA (2021)
 Q-Chem 5.4.0 for Intel X86 EM64T Linux

User input:
--------------------------------------------------------------
$molecule
0 1
C	0.135457	-8.519741	0.235993
C	-0.558188	-7.635967	-0.577858
S	1.148850	-7.651740	1.414705
C	-0.308648	-6.261894	-0.283020
H	-1.238560	-7.954738	-1.377597
C	0.609026	-6.079985	0.810887
C	0.996828	-4.798382	1.231581
C	-0.865740	-5.153542	-0.982901
C	-0.474408	-3.869626	-0.564713
C	0.442046	-3.688927	0.532196
O	-1.738137	-5.481075	-1.976332
O	1.874052	-4.479871	2.228709
C	2.016062	-5.356026	3.340298
H	2.573877	-4.790496	4.110807
H	2.598484	-6.268513	3.085998
H	1.028695	-5.658187	3.751679
C	-2.033195	-4.546999	-3.007565
H	-2.594833	-5.107564	-3.778655
H	-1.108067	-4.131473	-3.461650
H	-2.671451	-3.712085	-2.645264
C	0.691020	-2.314326	0.822814
S	-1.005649	-2.295487	-1.178037
C	0.000000	-1.435180	0.000000
H	1.368875	-1.993211	1.623656
H	0.133782	-9.615985	0.230172
C	0.000000	0.000000	0.000000
S	0.309721	0.844422	1.510732
C	0.847502	2.325108	0.727629
C	0.310602	0.853460	-1.064665
C	0.784173	2.159014	-0.678287
C	0.289451	0.790512	-2.486150
C	0.721927	1.979112	-3.106916
S	1.145464	3.152519	-1.965735
C	0.813355	2.216642	-4.559972
O	0.496884	1.338418	-5.350277
O	1.255274	3.421340	-5.004375
F	-0.087923	-0.257761	-3.246290
C	1.387494	3.754937	-6.334976
H	1.765978	4.793056	-6.370268
H	0.417095	3.693789	-6.875609
H	2.098820	3.081033	-6.861878
H	1.162229	3.189623	1.321510
$end

$rem
JOBTYPE		SP
EXCHANGE	HF
CORRELATION	pRIMP2
BASIS		cc-pvtz
METHOD		rimp2
AUX_BASIS	rimp2-cc-pvtz
SOLVENT_METHOD	PCM
PURECART	11111
SYMMETRY	false
MEM_TOTAL	110000
SCF_CONVERGENCE = 6
THRESH=10
GUI = 2
$end

$solvent
dielectric 4.90
$end
--------------------------------------------------------------

             Standard Nuclear Orientation (Angstroms)
    I     Atom           X                Y                Z
 ----------------------------------------------------------------
    1      C       0.1354570000    -8.5197410000     0.2359930000
    2      C      -0.5581880000    -7.6359670000    -0.5778580000
    3      S       1.1488500000    -7.6517400000     1.4147050000
    4      C      -0.3086480000    -6.2618940000    -0.2830200000
    5      H      -1.2385600000    -7.9547380000    -1.3775970000
    6      C       0.6090260000    -6.0799850000     0.8108870000
    7      C       0.9968280000    -4.7983820000     1.2315810000
    8      C      -0.8657400000    -5.1535420000    -0.9829010000
    9      C      -0.4744080000    -3.8696260000    -0.5647130000
   10      C       0.4420460000    -3.6889270000     0.5321960000
   11      O      -1.7381370000    -5.4810750000    -1.9763320000
   12      O       1.8740520000    -4.4798710000     2.2287090000
   13      C       2.0160620000    -5.3560260000     3.3402980000
   14      H       2.5738770000    -4.7904960000     4.1108070000
   15      H       2.5984840000    -6.2685130000     3.0859980000
   16      H       1.0286950000    -5.6581870000     3.7516790000
   17      C      -2.0331950000    -4.5469990000    -3.0075650000
   18      H      -2.5948330000    -5.1075640000    -3.7786550000
   19      H      -1.1080670000    -4.1314730000    -3.4616500000
   20      H      -2.6714510000    -3.7120850000    -2.6452640000
   21      C       0.6910200000    -2.3143260000     0.8228140000
   22      S      -1.0056490000    -2.2954870000    -1.1780370000
   23      C       0.0000000000    -1.4351800000     0.0000000000
   24      H       1.3688750000    -1.9932110000     1.6236560000
   25      H       0.1337820000    -9.6159850000     0.2301720000
   26      C       0.0000000000     0.0000000000     0.0000000000
   27      S       0.3097210000     0.8444220000     1.5107320000
   28      C       0.8475020000     2.3251080000     0.7276290000
   29      C       0.3106020000     0.8534600000    -1.0646650000
   30      C       0.7841730000     2.1590140000    -0.6782870000
   31      C       0.2894510000     0.7905120000    -2.4861500000
   32      C       0.7219270000     1.9791120000    -3.1069160000
   33      S       1.1454640000     3.1525190000    -1.9657350000
   34      C       0.8133550000     2.2166420000    -4.5599720000
   35      O       0.4968840000     1.3384180000    -5.3502770000
   36      O       1.2552740000     3.4213400000    -5.0043750000
   37      F      -0.0879230000    -0.2577610000    -3.2462900000
   38      C       1.3874940000     3.7549370000    -6.3349760000
   39      H       1.7659780000     4.7930560000    -6.3702680000
   40      H       0.4170950000     3.6937890000    -6.8756090000
   41      H       2.0988200000     3.0810330000    -6.8618780000
   42      H       1.1622290000     3.1896230000     1.3215100000
 ----------------------------------------------------------------

   10   -2754.2898199179      8.15e-07  Convergence criterion met
 Total energy in the final basis set =    -2754.2898199179
        RIMP2         total energy =     -2759.3466129823 a.u.

                    Orbital Energies (a.u.)
 --------------------------------------------------------------

 Alpha MOs
 -- Occupied --
-92.0164 -91.9956 -91.9868 -91.9860 -26.3339 -20.6122 -20.5915 -20.5914
-20.5503 -11.4106 -11.3775 -11.3184 -11.3176 -11.3093 -11.2980 -11.2976
-11.2967 -11.2959 -11.2886 -11.2862 -11.2857 -11.2854 -11.2839 -11.2835
-11.2794 -11.2608 -11.2585 -11.2571 -11.2496  -9.0146  -8.9996  -8.9874
 -8.9860  -6.6953  -6.6947  -6.6942  -6.6809  -6.6802  -6.6789  -6.6684
 -6.6677  -6.6669  -6.6667  -6.6663  -6.6655  -1.6477  -1.4720  -1.4156
 -1.4141  -1.3673  -1.2345  -1.1957  -1.1686  -1.1422  -1.0842  -1.0516
 -1.0480  -1.0286  -1.0017  -0.9932  -0.9721  -0.9604  -0.9498  -0.9385
 -0.8952  -0.8699  -0.8503  -0.8081  -0.7921  -0.7872  -0.7750  -0.7649
 -0.7576  -0.7321  -0.7187  -0.7157  -0.7004  -0.6887  -0.6831  -0.6786
 -0.6723  -0.6612  -0.6583  -0.6523  -0.6293  -0.6196  -0.6161  -0.6067
 -0.6016  -0.5960  -0.5879  -0.5726  -0.5693  -0.5673  -0.5559  -0.5525
 -0.5295  -0.5273  -0.5220  -0.5172  -0.5144  -0.5085  -0.5019  -0.4942
 -0.4877  -0.4845  -0.4779  -0.4659  -0.4617  -0.4612  -0.4593  -0.4187
 -0.3960  -0.3859  -0.3577  -0.3502  -0.3217  -0.2856  -0.2513

          Ground-State Mulliken Net Atomic Charges

     Atom                 Charge (a.u.)
  ----------------------------------------
      1 C                    -0.188781
      2 C                    -0.254025
      3 S                    -0.023264
      4 C                    -0.014645
      5 H                     0.196529
      6 C                    -0.029803
      7 C                     0.241818
      8 C                     0.243090
      9 C                    -0.046292
     10 C                    -0.027807
     11 O                    -0.333823
     12 O                    -0.340351
     13 C                    -0.085624
     14 H                     0.122272
     15 H                     0.091254
     16 H                     0.093897
     17 C                    -0.087391
     18 H                     0.124608
     19 H                     0.096067
     20 H                     0.089469
     21 C                    -0.238909
     22 S                    -0.002679
     23 C                    -0.017391
     24 H                     0.198020
     25 H                     0.206357
     26 C                    -0.020155
     27 S                     0.101873
     28 C                    -0.222779
     29 C                    -0.074484
     30 C                    -0.018080
     31 C                     0.371496
     32 C                    -0.140990
     33 S                     0.042079
     34 C                     0.457489
     35 O                    -0.449791
     36 O                    -0.297906
     37 F                    -0.208047
     38 C                    -0.054848
     39 H                     0.116633
     40 H                     0.084501
     41 H                     0.084507
     42 H                     0.215904
  ----------------------------------------
  Sum of atomic charges =     0.000000

                    Cartesian Multipole Moments
 -----------------------------------------------------------------
    Charge (ESU x 10^10)
                -0.0000
    Dipole Moment (Debye)
         X       0.9909      Y       1.7494      Z       3.1404
       Tot       3.7288
    Quadrupole Moments (Debye-Ang)
        XX    -194.9551     XY       6.2521     YY    -161.8249
        XZ       6.4080     YZ     -10.8794     ZZ    -186.0097

 Total job time:  315.07s(wall), 10895.67s(cpu)
        *  Thank you very much for using Q-Chem.  Have a nice day.  *
