 Q-Chem 5.4, Q-Chem, Inc., Pleasanton, CA (2021)
 Q-Chem 5.4.0 for Intel X86 EM64T Linux

User input:
--------------------------------------------------------------
$molecule
0 1
C	0.135457	-8.519741	0.235993
C	-0.558188	-7.635967	-0.577858
S	1.148850	-7.651740	1.414705
C	-0.308648	-6.261894	-0.283020
H	-1.238560	-7.954738	-1.377597
C	0.609026	-6.079985	0.810887
C	0.996828	-4.798382	1.231581
C	-0.865740	-5.153542	-0.982901
C	-0.474408	-3.869626	-0.564713
C	0.442046	-3.688927	0.532196
O	-1.738137	-5.481075	-1.976332
O	1.874052	-4.479871	2.228709
C	2.016062	-5.356026	3.340298
H	2.573877	-4.790496	4.110807
H	2.598484	-6.268513	3.085998
H	1.028695	-5.658187	3.751679
C	-2.033195	-4.546999	-3.007565
H	-2.594833	-5.107564	-3.778655
H	-1.108067	-4.131473	-3.461650
H	-2.671451	-3.712085	-2.645264
C	0.691020	-2.314326	0.822814
S	-1.005649	-2.295487	-1.178037
C	0.000000	-1.435180	0.000000
H	1.368875	-1.993211	1.623656
H	0.133782	-9.615985	0.230172
C	0.000000	0.000000	0.000000
S	0.002233	0.899428	1.510732
C	0.001157	2.474749	0.727629
C	-0.000030	0.908223	-1.064665
C	-0.001545	2.297013	-0.678287
C	0.001624	0.841837	-2.486150
C	0.001494	2.106670	-3.106916
S	-0.001841	3.354171	-1.965735
C	0.006168	2.361146	-4.559972
O	0.009152	1.427646	-5.350277
O	0.009405	3.644337	-5.004375
F	0.005539	-0.272288	-3.246290
C	0.019554	4.003038	-6.334976
H	0.020155	5.108000	-6.370268
H	-0.871409	3.613681	-6.875609
H	0.918470	3.613062	-6.861878
H	0.001222	3.394771	1.321510
$end

$rem
JOBTYPE		SP
EXCHANGE	HF
CORRELATION	pRIMP2
BASIS		cc-pvtz
METHOD		rimp2
AUX_BASIS	rimp2-cc-pvtz
SOLVENT_METHOD	PCM
PURECART	11111
SYMMETRY	false
MEM_TOTAL	110000
SCF_CONVERGENCE = 6
THRESH=10
GUI = 2
$end

$solvent
dielectric 4.90
$end
--------------------------------------------------------------

             Standard Nuclear Orientation (Angstroms)
    I     Atom           X                Y                Z
 ----------------------------------------------------------------
    1      C       0.1354570000    -8.5197410000     0.2359930000
    2      C      -0.5581880000    -7.6359670000    -0.5778580000
    3      S       1.1488500000    -7.6517400000     1.4147050000
    4      C      -0.3086480000    -6.2618940000    -0.2830200000
    5      H      -1.2385600000    -7.9547380000    -1.3775970000
    6      C       0.6090260000    -6.0799850000     0.8108870000
    7      C       0.9968280000    -4.7983820000     1.2315810000
    8      C      -0.8657400000    -5.1535420000    -0.9829010000
    9      C      -0.4744080000    -3.8696260000    -0.5647130000
   10      C       0.4420460000    -3.6889270000     0.5321960000
   11      O      -1.7381370000    -5.4810750000    -1.9763320000
   12      O       1.8740520000    -4.4798710000     2.2287090000
   13      C       2.0160620000    -5.3560260000     3.3402980000
   14      H       2.5738770000    -4.7904960000     4.1108070000
   15      H       2.5984840000    -6.2685130000     3.0859980000
   16      H       1.0286950000    -5.6581870000     3.7516790000
   17      C      -2.0331950000    -4.5469990000    -3.0075650000
   18      H      -2.5948330000    -5.1075640000    -3.7786550000
   19      H      -1.1080670000    -4.1314730000    -3.4616500000
   20      H      -2.6714510000    -3.7120850000    -2.6452640000
   21      C       0.6910200000    -2.3143260000     0.8228140000
   22      S      -1.0056490000    -2.2954870000    -1.1780370000
   23      C       0.0000000000    -1.4351800000     0.0000000000
   24      H       1.3688750000    -1.9932110000     1.6236560000
   25      H       0.1337820000    -9.6159850000     0.2301720000
   26      C       0.0000000000     0.0000000000     0.0000000000
   27      S       0.0022330000     0.8994280000     1.5107320000
   28      C       0.0011570000     2.4747490000     0.7276290000
   29      C      -0.0000300000     0.9082230000    -1.0646650000
   30      C      -0.0015450000     2.2970130000    -0.6782870000
   31      C       0.0016240000     0.8418370000    -2.4861500000
   32      C       0.0014940000     2.1066700000    -3.1069160000
   33      S      -0.0018410000     3.3541710000    -1.9657350000
   34      C       0.0061680000     2.3611460000    -4.5599720000
   35      O       0.0091520000     1.4276460000    -5.3502770000
   36      O       0.0094050000     3.6443370000    -5.0043750000
   37      F       0.0055390000    -0.2722880000    -3.2462900000
   38      C       0.0195540000     4.0030380000    -6.3349760000
   39      H       0.0201550000     5.1080000000    -6.3702680000
   40      H      -0.8714090000     3.6136810000    -6.8756090000
   41      H       0.9184700000     3.6130620000    -6.8618780000
   42      H       0.0012220000     3.3947710000     1.3215100000
 ----------------------------------------------------------------

   10   -2754.2971722008      8.11e-07  Convergence criterion met
 Total energy in the final basis set =    -2754.2971722008
        RIMP2         total energy =     -2759.3511756395 a.u.

                    Orbital Energies (a.u.)
 --------------------------------------------------------------

 Alpha MOs
 -- Occupied --
-92.0161 -91.9944 -91.9887 -91.9866 -26.3338 -20.6118 -20.5923 -20.5919
-20.5495 -11.4099 -11.3777 -11.3191 -11.3190 -11.3131 -11.2968 -11.2964
-11.2962 -11.2922 -11.2883 -11.2869 -11.2866 -11.2861 -11.2842 -11.2817
-11.2803 -11.2618 -11.2597 -11.2596 -11.2501  -9.0143  -8.9984  -8.9892
 -8.9866  -6.6950  -6.6945  -6.6940  -6.6797  -6.6790  -6.6777  -6.6701
 -6.6694  -6.6684  -6.6675  -6.6669  -6.6661  -1.6476  -1.4715  -1.4162
 -1.4148  -1.3667  -1.2334  -1.1966  -1.1689  -1.1419  -1.0847  -1.0525
 -1.0475  -1.0279  -1.0027  -0.9937  -0.9716  -0.9612  -0.9503  -0.9384
 -0.8961  -0.8691  -0.8516  -0.8081  -0.7920  -0.7874  -0.7749  -0.7650
 -0.7585  -0.7329  -0.7186  -0.7156  -0.7008  -0.6883  -0.6837  -0.6783
 -0.6715  -0.6614  -0.6589  -0.6528  -0.6298  -0.6202  -0.6168  -0.6062
 -0.6015  -0.5943  -0.5865  -0.5743  -0.5696  -0.5676  -0.5571  -0.5520
 -0.5314  -0.5269  -0.5227  -0.5179  -0.5151  -0.5087  -0.5017  -0.4946
 -0.4882  -0.4831  -0.4800  -0.4675  -0.4617  -0.4607  -0.4604  -0.4176
 -0.3968  -0.3870  -0.3588  -0.3501  -0.3221  -0.2854  -0.2516

          Ground-State Mulliken Net Atomic Charges

     Atom                 Charge (a.u.)
  ----------------------------------------
      1 C                    -0.187019
      2 C                    -0.254169
      3 S                    -0.022194
      4 C                    -0.012620
      5 H                     0.196756
      6 C                    -0.029293
      7 C                     0.245438
      8 C                     0.239597
      9 C                    -0.044751
     10 C                    -0.026385
     11 O                    -0.333562
     12 O                    -0.340077
     13 C                    -0.085797
     14 H                     0.122580
     15 H                     0.091506
     16 H                     0.094116
     17 C                    -0.087870
     18 H                     0.124861
     19 H                     0.096485
     20 H                     0.089449
     21 C                    -0.245904
     22 S                    -0.002035
     23 C                    -0.000054
     24 H                     0.196251
     25 H                     0.206674
     26 C                    -0.001649
     27 S                     0.107865
     28 C                    -0.242144
     29 C                    -0.107660
     30 C                    -0.010748
     31 C                     0.387357
     32 C                    -0.147964
     33 S                     0.036041
     34 C                     0.460614
     35 O                    -0.451678
     36 O                    -0.298017
     37 F                    -0.209458
     38 C                    -0.055027
     39 H                     0.116575
     40 H                     0.084335
     41 H                     0.084435
     42 H                     0.215142
  ----------------------------------------
  Sum of atomic charges =     0.000000

                    Cartesian Multipole Moments
 -----------------------------------------------------------------
    Charge (ESU x 10^10)
                -0.0000
    Dipole Moment (Debye)
         X      -0.2519      Y       1.3867      Z       3.2868
       Tot       3.5762
    Quadrupole Moments (Debye-Ang)
        XX    -196.8343     XY       0.9734     YY    -158.4329
        XZ      10.2747     YZ     -11.5263     ZZ    -186.3939

 Total job time:  308.42s(wall), 9219.19s(cpu)
        *  Thank you very much for using Q-Chem.  Have a nice day.  *
