 Q-Chem 5.4, Q-Chem, Inc., Pleasanton, CA (2021)
 Q-Chem 5.4.0 for Intel X86 EM64T Linux

User input:
--------------------------------------------------------------
$molecule
0 1
C	0.267851	-8.519741	0.047927
C	-0.801461	-7.635967	0.056157
S	1.822194	-7.651740	0.029285
C	-0.415201	-6.261894	0.054516
H	-1.851431	-7.954738	0.063290
C	1.012650	-6.079985	0.054687
C	1.584194	-4.798382	0.028030
C	-1.309433	-5.153542	0.031399
C	-0.737539	-3.869626	0.000427
C	0.691828	-3.688927	0.003462
O	-2.631211	-5.481075	0.061128
O	2.911907	-4.479871	-0.003021
C	3.854716	-5.356026	0.602710
H	4.803517	-4.790496	0.670671
H	4.034285	-6.268513	-0.006913
H	3.535185	-5.658187	1.623507
C	-3.610841	-4.546999	-0.375708
H	-4.562544	-5.107564	-0.441115
H	-3.364029	-4.131473	-1.376277
H	-3.743566	-3.712085	0.346107
C	1.074491	-2.314326	-0.000458
S	-1.548848	-2.295487	0.013144
C	0.000000	-1.435180	0.000000
H	2.123688	-1.993211	-0.004953
H	0.262315	-9.615985	0.045468
C	0.000000	0.000000	0.000000
S	0.080615	0.895811	1.510732
C	0.216842	2.465231	0.727629
C	0.079127	0.904769	-1.064665
C	0.198659	2.288406	-0.678287
C	0.074988	0.838492	-2.486150
C	0.185097	2.098524	-3.106916
S	0.290501	3.341568	-1.965735
C	0.211932	2.351623	-4.559972
O	0.133545	1.421416	-5.350277
O	0.326994	3.629649	-5.004375
F	-0.018214	-0.271734	-3.246290
C	0.368367	3.986101	-6.334976
H	0.465270	5.086806	-6.370268
H	-0.553140	3.675878	-6.875609
H	1.229874	3.519263	-6.861878
H	0.297091	3.381746	1.321510
$end

$rem
JOBTYPE		SP
EXCHANGE	HF
CORRELATION	pRIMP2
BASIS		cc-pvtz
METHOD		rimp2
AUX_BASIS	rimp2-cc-pvtz
SOLVENT_METHOD	PCM
PURECART	11111
SYMMETRY	false
MEM_TOTAL	110000
SCF_CONVERGENCE = 6
THRESH=10
GUI = 2
$end

$solvent
dielectric 4.90
$end
--------------------------------------------------------------

             Standard Nuclear Orientation (Angstroms)
    I     Atom           X                Y                Z
 ----------------------------------------------------------------
    1      C       0.2678510000    -8.5197410000     0.0479270000
    2      C      -0.8014610000    -7.6359670000     0.0561570000
    3      S       1.8221940000    -7.6517400000     0.0292850000
    4      C      -0.4152010000    -6.2618940000     0.0545160000
    5      H      -1.8514310000    -7.9547380000     0.0632900000
    6      C       1.0126500000    -6.0799850000     0.0546870000
    7      C       1.5841940000    -4.7983820000     0.0280300000
    8      C      -1.3094330000    -5.1535420000     0.0313990000
    9      C      -0.7375390000    -3.8696260000     0.0004270000
   10      C       0.6918280000    -3.6889270000     0.0034620000
   11      O      -2.6312110000    -5.4810750000     0.0611280000
   12      O       2.9119070000    -4.4798710000    -0.0030210000
   13      C       3.8547160000    -5.3560260000     0.6027100000
   14      H       4.8035170000    -4.7904960000     0.6706710000
   15      H       4.0342850000    -6.2685130000    -0.0069130000
   16      H       3.5351850000    -5.6581870000     1.6235070000
   17      C      -3.6108410000    -4.5469990000    -0.3757080000
   18      H      -4.5625440000    -5.1075640000    -0.4411150000
   19      H      -3.3640290000    -4.1314730000    -1.3762770000
   20      H      -3.7435660000    -3.7120850000     0.3461070000
   21      C       1.0744910000    -2.3143260000    -0.0004580000
   22      S      -1.5488480000    -2.2954870000     0.0131440000
   23      C       0.0000000000    -1.4351800000     0.0000000000
   24      H       2.1236880000    -1.9932110000    -0.0049530000
   25      H       0.2623150000    -9.6159850000     0.0454680000
   26      C       0.0000000000     0.0000000000     0.0000000000
   27      S       0.0806150000     0.8958110000     1.5107320000
   28      C       0.2168420000     2.4652310000     0.7276290000
   29      C       0.0791270000     0.9047690000    -1.0646650000
   30      C       0.1986590000     2.2884060000    -0.6782870000
   31      C       0.0749880000     0.8384920000    -2.4861500000
   32      C       0.1850970000     2.0985240000    -3.1069160000
   33      S       0.2905010000     3.3415680000    -1.9657350000
   34      C       0.2119320000     2.3516230000    -4.5599720000
   35      O       0.1335450000     1.4214160000    -5.3502770000
   36      O       0.3269940000     3.6296490000    -5.0043750000
   37      F      -0.0182140000    -0.2717340000    -3.2462900000
   38      C       0.3683670000     3.9861010000    -6.3349760000
   39      H       0.4652700000     5.0868060000    -6.3702680000
   40      H      -0.5531400000     3.6758780000    -6.8756090000
   41      H       1.2298740000     3.5192630000    -6.8618780000
   42      H       0.2970910000     3.3817460000     1.3215100000
 ----------------------------------------------------------------

   10   -2754.2943838846      8.87e-07  Convergence criterion met
 Total energy in the final basis set =    -2754.2943838846
        RIMP2         total energy =     -2759.3466589626 a.u.

                    Orbital Energies (a.u.)
 --------------------------------------------------------------

 Alpha MOs
 -- Occupied --
-92.0162 -91.9942 -91.9897 -91.9867 -26.3337 -20.6119 -20.5924 -20.5920
-20.5499 -11.4101 -11.3770 -11.3193 -11.3190 -11.3091 -11.2971 -11.2958
-11.2934 -11.2931 -11.2883 -11.2869 -11.2867 -11.2864 -11.2842 -11.2827
-11.2804 -11.2611 -11.2598 -11.2598 -11.2501  -9.0143  -8.9982  -8.9900
 -8.9866  -6.6949  -6.6944  -6.6939  -6.6795  -6.6788  -6.6775  -6.6709
 -6.6702  -6.6693  -6.6676  -6.6669  -6.6661  -1.6465  -1.4717  -1.4165
 -1.4147  -1.3670  -1.2328  -1.1961  -1.1682  -1.1415  -1.0840  -1.0523
 -1.0471  -1.0273  -1.0024  -0.9933  -0.9710  -0.9615  -0.9505  -0.9383
 -0.8959  -0.8689  -0.8508  -0.8048  -0.7904  -0.7884  -0.7739  -0.7686
 -0.7584  -0.7329  -0.7179  -0.7148  -0.7015  -0.6885  -0.6833  -0.6783
 -0.6708  -0.6606  -0.6588  -0.6529  -0.6310  -0.6203  -0.6171  -0.6062
 -0.6017  -0.5941  -0.5825  -0.5777  -0.5710  -0.5663  -0.5546  -0.5513
 -0.5343  -0.5263  -0.5243  -0.5165  -0.5143  -0.5074  -0.5012  -0.4939
 -0.4911  -0.4838  -0.4766  -0.4680  -0.4616  -0.4610  -0.4606  -0.4051
 -0.4011  -0.3877  -0.3581  -0.3479  -0.3144  -0.2896  -0.2598

          Ground-State Mulliken Net Atomic Charges

     Atom                 Charge (a.u.)
  ----------------------------------------
      1 C                    -0.186880
      2 C                    -0.254440
      3 S                    -0.021461
      4 C                    -0.012950
      5 H                     0.196681
      6 C                    -0.028397
      7 C                     0.246036
      8 C                     0.240330
      9 C                    -0.050729
     10 C                    -0.031941
     11 O                    -0.333255
     12 O                    -0.339598
     13 C                    -0.085719
     14 H                     0.122777
     15 H                     0.091284
     16 H                     0.093899
     17 C                    -0.086560
     18 H                     0.124619
     19 H                     0.095631
     20 H                     0.089411
     21 C                    -0.206586
     22 S                     0.004105
     23 C                    -0.042016
     24 H                     0.197398
     25 H                     0.206670
     26 C                    -0.035061
     27 S                     0.120181
     28 C                    -0.239708
     29 C                    -0.089988
     30 C                    -0.006508
     31 C                     0.397989
     32 C                    -0.159762
     33 S                     0.037103
     34 C                     0.460842
     35 O                    -0.450091
     36 O                    -0.297749
     37 F                    -0.210995
     38 C                    -0.055073
     39 H                     0.116517
     40 H                     0.084587
     41 H                     0.084530
     42 H                     0.214879
  ----------------------------------------
  Sum of atomic charges =     0.000000

                    Cartesian Multipole Moments
 -----------------------------------------------------------------
    Charge (ESU x 10^10)
                -0.0000
    Dipole Moment (Debye)
         X       0.2867      Y       1.4701      Z       3.5209
       Tot       3.8262
    Quadrupole Moments (Debye-Ang)
        XX    -177.6142     XY       0.8834     YY    -158.2898
        XZ       4.7310     YZ     -12.1159     ZZ    -205.3172

 Total job time:  282.48s(wall), 9303.89s(cpu)
        *  Thank you very much for using Q-Chem.  Have a nice day.  *
