 Q-Chem 5.4, Q-Chem, Inc., Pleasanton, CA (2021)
 Q-Chem 5.4.0 for Intel X86 EM64T Linux

User input:
--------------------------------------------------------------
$molecule
0 1
C	0.000687	-8.519741	-0.272104
C	0.194476	-7.635967	0.779533
S	-0.287581	-7.651740	-1.799596
C	0.125787	-6.261894	0.399427
H	0.383826	-7.954738	1.812314
C	-0.121989	-6.079985	-1.006762
C	-0.247488	-4.798382	-1.564994
C	0.258303	-5.153542	1.284087
C	0.128493	-3.869626	0.726260
C	-0.116725	-3.688927	-0.681918
O	0.517104	-5.481075	2.580622
O	-0.508622	-4.479871	-2.867144
C	-0.075811	-5.356026	-3.900814
H	-0.173640	-4.790496	-4.847002
H	-0.707354	-6.268513	-3.971794
H	0.984963	-5.658187	-3.763397
C	0.257016	-4.546999	3.621225
H	0.357864	-5.107564	4.569828
H	-0.771211	-4.131473	3.551910
H	0.990913	-3.712085	3.626592
C	-0.187034	-2.314326	-1.058088
S	0.281899	-2.295487	1.523035
C	0.000000	-1.435180	0.000000
H	-0.373653	-1.993211	-2.090565
H	-0.000773	-9.615985	-0.266226
C	0.000000	0.000000	0.000000
S	0.234946	0.868203	1.510732
C	0.641630	2.390125	0.727629
C	0.235036	0.877284	-1.064665
C	0.593019	2.219143	-0.678287
C	0.219452	0.812732	-2.486150
C	0.546689	2.034501	-3.106916
S	0.866345	3.240357	-1.965735
C	0.617067	2.279095	-4.559972
O	0.378342	1.376631	-5.350277
O	0.952308	3.517725	-5.004375
F	-0.065123	-0.264443	-3.246290
C	1.054950	3.861577	-6.334976
H	1.341516	4.928732	-6.370268
H	0.093573	3.716085	-6.875609
H	1.822303	3.252232	-6.861878
H	0.879812	3.278780	1.321510
$end

$rem
JOBTYPE		SP
EXCHANGE	HF
CORRELATION	pRIMP2
BASIS		cc-pvtz
METHOD		rimp2
AUX_BASIS	rimp2-cc-pvtz
SOLVENT_METHOD	PCM
PURECART	11111
SYMMETRY	false
MEM_TOTAL	110000
SCF_CONVERGENCE = 6
THRESH=10
GUI = 2
$end

$solvent
dielectric 4.90
$end
--------------------------------------------------------------

             Standard Nuclear Orientation (Angstroms)
    I     Atom           X                Y                Z
 ----------------------------------------------------------------
    1      C       0.0006870000    -8.5197410000    -0.2721040000
    2      C       0.1944760000    -7.6359670000     0.7795330000
    3      S      -0.2875810000    -7.6517400000    -1.7995960000
    4      C       0.1257870000    -6.2618940000     0.3994270000
    5      H       0.3838260000    -7.9547380000     1.8123140000
    6      C      -0.1219890000    -6.0799850000    -1.0067620000
    7      C      -0.2474880000    -4.7983820000    -1.5649940000
    8      C       0.2583030000    -5.1535420000     1.2840870000
    9      C       0.1284930000    -3.8696260000     0.7262600000
   10      C      -0.1167250000    -3.6889270000    -0.6819180000
   11      O       0.5171040000    -5.4810750000     2.5806220000
   12      O      -0.5086220000    -4.4798710000    -2.8671440000
   13      C      -0.0758110000    -5.3560260000    -3.9008140000
   14      H      -0.1736400000    -4.7904960000    -4.8470020000
   15      H      -0.7073540000    -6.2685130000    -3.9717940000
   16      H       0.9849630000    -5.6581870000    -3.7633970000
   17      C       0.2570160000    -4.5469990000     3.6212250000
   18      H       0.3578640000    -5.1075640000     4.5698280000
   19      H      -0.7712110000    -4.1314730000     3.5519100000
   20      H       0.9909130000    -3.7120850000     3.6265920000
   21      C      -0.1870340000    -2.3143260000    -1.0580880000
   22      S       0.2818990000    -2.2954870000     1.5230350000
   23      C       0.0000000000    -1.4351800000     0.0000000000
   24      H      -0.3736530000    -1.9932110000    -2.0905650000
   25      H      -0.0007730000    -9.6159850000    -0.2662260000
   26      C       0.0000000000     0.0000000000     0.0000000000
   27      S       0.2349460000     0.8682030000     1.5107320000
   28      C       0.6416300000     2.3901250000     0.7276290000
   29      C       0.2350360000     0.8772840000    -1.0646650000
   30      C       0.5930190000     2.2191430000    -0.6782870000
   31      C       0.2194520000     0.8127320000    -2.4861500000
   32      C       0.5466890000     2.0345010000    -3.1069160000
   33      S       0.8663450000     3.2403570000    -1.9657350000
   34      C       0.6170670000     2.2790950000    -4.5599720000
   35      O       0.3783420000     1.3766310000    -5.3502770000
   36      O       0.9523080000     3.5177250000    -5.0043750000
   37      F      -0.0651230000    -0.2644430000    -3.2462900000
   38      C       1.0549500000     3.8615770000    -6.3349760000
   39      H       1.3415160000     4.9287320000    -6.3702680000
   40      H       0.0935730000     3.7160850000    -6.8756090000
   41      H       1.8223030000     3.2522320000    -6.8618780000
   42      H       0.8798120000     3.2787800000     1.3215100000
 ----------------------------------------------------------------

   10   -2754.2926654103      8.21e-07  Convergence criterion met
 Total energy in the final basis set =    -2754.2926654103
        RIMP2         total energy =     -2759.3493499067 a.u.

                    Orbital Energies (a.u.)
 --------------------------------------------------------------

 Alpha MOs
 -- Occupied --
-92.0162 -91.9957 -91.9909 -91.9869 -26.3384 -20.6120 -20.5930 -20.5913
-20.5498 -11.4102 -11.3788 -11.3200 -11.3189 -11.3130 -11.2979 -11.2972
-11.2964 -11.2934 -11.2885 -11.2877 -11.2876 -11.2853 -11.2846 -11.2817
-11.2805 -11.2618 -11.2601 -11.2561 -11.2504  -9.0147  -8.9996  -8.9915
 -8.9867  -6.6955  -6.6949  -6.6944  -6.6809  -6.6802  -6.6789  -6.6725
 -6.6718  -6.6708  -6.6677  -6.6671  -6.6662  -1.6529  -1.4717  -1.4171
 -1.4141  -1.3671  -1.2343  -1.1971  -1.1698  -1.1427  -1.0848  -1.0528
 -1.0486  -1.0285  -1.0037  -0.9940  -0.9728  -0.9610  -0.9507  -0.9384
 -0.8970  -0.8700  -0.8519  -0.8073  -0.7967  -0.7889  -0.7723  -0.7699
 -0.7579  -0.7329  -0.7217  -0.7199  -0.7016  -0.6900  -0.6850  -0.6786
 -0.6727  -0.6624  -0.6595  -0.6525  -0.6294  -0.6201  -0.6158  -0.6065
 -0.6002  -0.5948  -0.5885  -0.5762  -0.5691  -0.5601  -0.5544  -0.5475
 -0.5372  -0.5277  -0.5232  -0.5203  -0.5175  -0.5097  -0.5056  -0.4963
 -0.4857  -0.4846  -0.4797  -0.4676  -0.4620  -0.4613  -0.4589  -0.4245
 -0.3985  -0.3858  -0.3597  -0.3507  -0.3257  -0.2849  -0.2469

          Ground-State Mulliken Net Atomic Charges

     Atom                 Charge (a.u.)
  ----------------------------------------
      1 C                    -0.186902
      2 C                    -0.255215
      3 S                    -0.020355
      4 C                    -0.012915
      5 H                     0.196416
      6 C                    -0.029116
      7 C                     0.251685
      8 C                     0.241485
      9 C                    -0.039279
     10 C                    -0.030824
     11 O                    -0.333177
     12 O                    -0.339494
     13 C                    -0.086341
     14 H                     0.124408
     15 H                     0.091367
     16 H                     0.093966
     17 C                    -0.088600
     18 H                     0.126016
     19 H                     0.095041
     20 H                     0.089653
     21 C                    -0.223292
     22 S                    -0.039552
     23 C                    -0.043629
     24 H                     0.211738
     25 H                     0.206793
     26 C                     0.010157
     27 S                     0.086527
     28 C                    -0.234904
     29 C                    -0.064363
     30 C                    -0.021756
     31 C                     0.378360
     32 C                    -0.136827
     33 S                     0.041336
     34 C                     0.458252
     35 O                    -0.451354
     36 O                    -0.297998
     37 F                    -0.215577
     38 C                    -0.054910
     39 H                     0.116686
     40 H                     0.084492
     41 H                     0.084363
     42 H                     0.217638
  ----------------------------------------
  Sum of atomic charges =     0.000000

                    Cartesian Multipole Moments
 -----------------------------------------------------------------
    Charge (ESU x 10^10)
                 0.0000
    Dipole Moment (Debye)
         X       1.1688      Y       1.2857      Z       3.1359
       Tot       3.5851
    Quadrupole Moments (Debye-Ang)
        XX    -200.7569     XY       2.6704     YY    -158.2244
        XZ      -4.2973     YZ      -9.2935     ZZ    -181.1895

 Total job time:  328.64s(wall), 10015.36s(cpu)
        *  Thank you very much for using Q-Chem.  Have a nice day.  *
