 Q-Chem 5.4, Q-Chem, Inc., Pleasanton, CA (2021)
 Q-Chem 5.4.0 for Intel X86 EM64T Linux

User input:
--------------------------------------------------------------
$molecule
0 1
C	0.135457	-8.519741	0.235993
C	-0.558188	-7.635967	-0.577858
S	1.148850	-7.651740	1.414705
C	-0.308648	-6.261894	-0.283020
H	-1.238560	-7.954738	-1.377597
C	0.609026	-6.079985	0.810887
C	0.996828	-4.798382	1.231581
C	-0.865740	-5.153542	-0.982901
C	-0.474408	-3.869626	-0.564713
C	0.442046	-3.688927	0.532196
O	-1.738137	-5.481075	-1.976332
O	1.874052	-4.479871	2.228709
C	2.016062	-5.356026	3.340298
H	2.573877	-4.790496	4.110807
H	2.598484	-6.268513	3.085998
H	1.028695	-5.658187	3.751679
C	-2.033195	-4.546999	-3.007565
H	-2.594833	-5.107564	-3.778655
H	-1.108067	-4.131473	-3.461650
H	-2.671451	-3.712085	-2.645264
C	0.691020	-2.314326	0.822814
S	-1.005649	-2.295487	-1.178037
C	-0.000000	-1.435180	-0.000000
H	1.368875	-1.993211	1.623656
H	0.133782	-9.615985	0.230172
C	0.000000	0.000000	0.000000
S	0.579852	0.687566	1.510732
C	1.591625	1.895024	0.727629
C	0.583771	0.695758	-1.064665
C	1.475308	1.760606	-0.678287
C	0.542366	0.643841	-2.486150
C	1.355286	1.612843	-3.106916
S	2.154609	2.570627	-1.965735
C	1.522440	1.804778	-4.559972
O	0.924684	1.087757	-5.350277
O	2.349739	2.785679	-5.004375
F	-0.170780	-0.212144	-3.246290
C	2.588082	3.053936	-6.334976
H	3.298799	3.899999	-6.370268
H	1.655291	3.328371	-6.875609
H	3.026021	2.177385	-6.861878
H	2.183053	2.599759	1.321510
$end

$rem
JOBTYPE		SP
EXCHANGE	HF
CORRELATION	pRIMP2
BASIS		cc-pvtz
METHOD		rimp2
AUX_BASIS	rimp2-cc-pvtz
SOLVENT_METHOD	PCM
PURECART	11111
SYMMETRY	false
MEM_TOTAL	110000
SCF_CONVERGENCE = 6
THRESH=10
GUI = 2
$end

$solvent
dielectric 4.90
$end
--------------------------------------------------------------

             Standard Nuclear Orientation (Angstroms)
    I     Atom           X                Y                Z
 ----------------------------------------------------------------
    1      C       0.1354570000    -8.5197410000     0.2359930000
    2      C      -0.5581880000    -7.6359670000    -0.5778580000
    3      S       1.1488500000    -7.6517400000     1.4147050000
    4      C      -0.3086480000    -6.2618940000    -0.2830200000
    5      H      -1.2385600000    -7.9547380000    -1.3775970000
    6      C       0.6090260000    -6.0799850000     0.8108870000
    7      C       0.9968280000    -4.7983820000     1.2315810000
    8      C      -0.8657400000    -5.1535420000    -0.9829010000
    9      C      -0.4744080000    -3.8696260000    -0.5647130000
   10      C       0.4420460000    -3.6889270000     0.5321960000
   11      O      -1.7381370000    -5.4810750000    -1.9763320000
   12      O       1.8740520000    -4.4798710000     2.2287090000
   13      C       2.0160620000    -5.3560260000     3.3402980000
   14      H       2.5738770000    -4.7904960000     4.1108070000
   15      H       2.5984840000    -6.2685130000     3.0859980000
   16      H       1.0286950000    -5.6581870000     3.7516790000
   17      C      -2.0331950000    -4.5469990000    -3.0075650000
   18      H      -2.5948330000    -5.1075640000    -3.7786550000
   19      H      -1.1080670000    -4.1314730000    -3.4616500000
   20      H      -2.6714510000    -3.7120850000    -2.6452640000
   21      C       0.6910200000    -2.3143260000     0.8228140000
   22      S      -1.0056490000    -2.2954870000    -1.1780370000
   23      C       0.0000000000    -1.4351800000     0.0000000000
   24      H       1.3688750000    -1.9932110000     1.6236560000
   25      H       0.1337820000    -9.6159850000     0.2301720000
   26      C       0.0000000000     0.0000000000     0.0000000000
   27      S       0.5798520000     0.6875660000     1.5107320000
   28      C       1.5916250000     1.8950240000     0.7276290000
   29      C       0.5837710000     0.6957580000    -1.0646650000
   30      C       1.4753080000     1.7606060000    -0.6782870000
   31      C       0.5423660000     0.6438410000    -2.4861500000
   32      C       1.3552860000     1.6128430000    -3.1069160000
   33      S       2.1546090000     2.5706270000    -1.9657350000
   34      C       1.5224400000     1.8047780000    -4.5599720000
   35      O       0.9246840000     1.0877570000    -5.3502770000
   36      O       2.3497390000     2.7856790000    -5.0043750000
   37      F      -0.1707800000    -0.2121440000    -3.2462900000
   38      C       2.5880820000     3.0539360000    -6.3349760000
   39      H       3.2987990000     3.8999990000    -6.3702680000
   40      H       1.6552910000     3.3283710000    -6.8756090000
   41      H       3.0260210000     2.1773850000    -6.8618780000
   42      H       2.1830530000     2.5997590000     1.3215100000
 ----------------------------------------------------------------

   11   -2754.2682574687      5.05e-07  Convergence criterion met
 Total energy in the final basis set =    -2754.2682574687
        RIMP2         total energy =     -2759.3322796512 a.u.

                    Orbital Energies (a.u.)
 --------------------------------------------------------------

 Alpha MOs
 -- Occupied --
-92.0164 -91.9999 -91.9845 -91.9834 -26.3340 -20.6139 -20.5904 -20.5895
-20.5532 -11.4130 -11.3772 -11.3169 -11.3141 -11.3081 -11.3038 -11.2992
-11.2975 -11.2964 -11.2897 -11.2894 -11.2853 -11.2850 -11.2820 -11.2818
-11.2772 -11.2584 -11.2555 -11.2491 -11.2485  -9.0149  -9.0037  -8.9844
 -8.9842  -6.6956  -6.6949  -6.6945  -6.6849  -6.6843  -6.6829  -6.6654
 -6.6652  -6.6648  -6.6645  -6.6639  -6.6635  -1.6479  -1.4738  -1.4145
 -1.4123  -1.3695  -1.2382  -1.1936  -1.1686  -1.1432  -1.0834  -1.0504
 -1.0488  -1.0308  -0.9996  -0.9923  -0.9738  -0.9586  -0.9486  -0.9387
 -0.8933  -0.8726  -0.8469  -0.8084  -0.7929  -0.7863  -0.7756  -0.7645
 -0.7554  -0.7302  -0.7191  -0.7162  -0.6992  -0.6902  -0.6811  -0.6800
 -0.6746  -0.6611  -0.6571  -0.6511  -0.6279  -0.6182  -0.6149  -0.6087
 -0.6032  -0.6004  -0.5885  -0.5710  -0.5679  -0.5660  -0.5540  -0.5521
 -0.5296  -0.5260  -0.5207  -0.5157  -0.5131  -0.5086  -0.5020  -0.4933
 -0.4870  -0.4860  -0.4742  -0.4641  -0.4631  -0.4626  -0.4560  -0.4199
 -0.3939  -0.3838  -0.3565  -0.3495  -0.3208  -0.2870  -0.2500

          Ground-State Mulliken Net Atomic Charges

     Atom                 Charge (a.u.)
  ----------------------------------------
      1 C                    -0.193221
      2 C                    -0.253767
      3 S                    -0.026290
      4 C                    -0.017909
      5 H                     0.195983
      6 C                    -0.027529
      7 C                     0.236193
      8 C                     0.243491
      9 C                    -0.044492
     10 C                    -0.016794
     11 O                    -0.333928
     12 O                    -0.341379
     13 C                    -0.085626
     14 H                     0.121487
     15 H                     0.090888
     16 H                     0.093337
     17 C                    -0.087251
     18 H                     0.124305
     19 H                     0.095508
     20 H                     0.089552
     21 C                    -0.270565
     22 S                    -0.014748
     23 C                    -0.007657
     24 H                     0.196002
     25 H                     0.205515
     26 C                    -0.058479
     27 S                     0.106897
     28 C                    -0.190263
     29 C                    -0.047925
     30 C                    -0.024056
     31 C                     0.357244
     32 C                    -0.127687
     33 S                     0.055526
     34 C                     0.456603
     35 O                    -0.445190
     36 O                    -0.297475
     37 F                    -0.206791
     38 C                    -0.054670
     39 H                     0.117037
     40 H                     0.084983
     41 H                     0.085007
     42 H                     0.218136
  ----------------------------------------
  Sum of atomic charges =     0.000000

                    Cartesian Multipole Moments
 -----------------------------------------------------------------
    Charge (ESU x 10^10)
                 0.0000
    Dipole Moment (Debye)
         X       2.6022      Y       2.5577      Z       2.7846
       Tot       4.5899
    Quadrupole Moments (Debye-Ang)
        XX    -189.5153     XY      10.3062     YY    -170.4894
        XZ       2.3932     YZ      -9.0442     ZZ    -184.7043

 Total job time:  302.97s(wall), 9743.66s(cpu)
        *  Thank you very much for using Q-Chem.  Have a nice day.  *
