 Q-Chem 5.4, Q-Chem, Inc., Pleasanton, CA (2021)
 Q-Chem 5.4.0 for Intel X86 EM64T Linux

User input:
--------------------------------------------------------------
$molecule
0 1
C	-0.272104	-8.519741	-0.000687
C	0.779533	-7.635967	-0.194476
S	-1.799596	-7.651740	0.287581
C	0.399427	-6.261894	-0.125787
H	1.812314	-7.954738	-0.383826
C	-1.006762	-6.079985	0.121989
C	-1.564994	-4.798382	0.247488
C	1.284087	-5.153542	-0.258303
C	0.726260	-3.869626	-0.128493
C	-0.681918	-3.688927	0.116725
O	2.580622	-5.481075	-0.517104
O	-2.867144	-4.479871	0.508622
C	-3.900814	-5.356026	0.075811
H	-4.847002	-4.790496	0.173640
H	-3.971794	-6.268513	0.707354
H	-3.763397	-5.658187	-0.984963
C	3.621225	-4.546999	-0.257016
H	4.569828	-5.107564	-0.357864
H	3.551910	-4.131473	0.771211
H	3.626592	-3.712085	-0.990913
C	-1.058088	-2.314326	0.187034
S	1.523035	-2.295487	-0.281899
C	-0.000000	-1.435180	-0.000000
H	-2.090565	-1.993211	0.373653
H	-0.266226	-9.615985	0.000773
C	0.000000	0.000000	0.000000
S	0.158383	0.885376	1.510732
C	0.430876	2.436951	0.727629
C	0.157682	0.894430	-1.064665
C	0.397351	2.262384	-0.678287
C	0.147783	0.828765	-2.486150
C	0.367291	2.074406	-3.106916
S	0.580633	3.303533	-1.965735
C	0.416083	2.324204	-4.559972
O	0.256921	1.404367	-5.350277
O	0.642094	3.587338	-5.004375
F	-0.041828	-0.269113	-3.246290
C	0.714377	3.938827	-6.334976
H	0.906844	5.026898	-6.370268
H	-0.230661	3.710099	-6.875609
H	1.531918	3.398681	-6.861878
H	0.590699	3.342984	1.321510
$end

$rem
JOBTYPE		SP
EXCHANGE	HF
CORRELATION	pRIMP2
BASIS		cc-pvtz
METHOD		rimp2
AUX_BASIS	rimp2-cc-pvtz
SOLVENT_METHOD	PCM
PURECART	11111
SYMMETRY	false
MEM_TOTAL	110000
SCF_CONVERGENCE = 6
THRESH=10
GUI = 2
$end

$solvent
dielectric 4.90
$end
--------------------------------------------------------------

             Standard Nuclear Orientation (Angstroms)
    I     Atom           X                Y                Z
 ----------------------------------------------------------------
    1      C      -0.2721040000    -8.5197410000    -0.0006870000
    2      C       0.7795330000    -7.6359670000    -0.1944760000
    3      S      -1.7995960000    -7.6517400000     0.2875810000
    4      C       0.3994270000    -6.2618940000    -0.1257870000
    5      H       1.8123140000    -7.9547380000    -0.3838260000
    6      C      -1.0067620000    -6.0799850000     0.1219890000
    7      C      -1.5649940000    -4.7983820000     0.2474880000
    8      C       1.2840870000    -5.1535420000    -0.2583030000
    9      C       0.7262600000    -3.8696260000    -0.1284930000
   10      C      -0.6819180000    -3.6889270000     0.1167250000
   11      O       2.5806220000    -5.4810750000    -0.5171040000
   12      O      -2.8671440000    -4.4798710000     0.5086220000
   13      C      -3.9008140000    -5.3560260000     0.0758110000
   14      H      -4.8470020000    -4.7904960000     0.1736400000
   15      H      -3.9717940000    -6.2685130000     0.7073540000
   16      H      -3.7633970000    -5.6581870000    -0.9849630000
   17      C       3.6212250000    -4.5469990000    -0.2570160000
   18      H       4.5698280000    -5.1075640000    -0.3578640000
   19      H       3.5519100000    -4.1314730000     0.7712110000
   20      H       3.6265920000    -3.7120850000    -0.9909130000
   21      C      -1.0580880000    -2.3143260000     0.1870340000
   22      S       1.5230350000    -2.2954870000    -0.2818990000
   23      C       0.0000000000    -1.4351800000     0.0000000000
   24      H      -2.0905650000    -1.9932110000     0.3736530000
   25      H      -0.2662260000    -9.6159850000     0.0007730000
   26      C       0.0000000000     0.0000000000     0.0000000000
   27      S       0.1583830000     0.8853760000     1.5107320000
   28      C       0.4308760000     2.4369510000     0.7276290000
   29      C       0.1576820000     0.8944300000    -1.0646650000
   30      C       0.3973510000     2.2623840000    -0.6782870000
   31      C       0.1477830000     0.8287650000    -2.4861500000
   32      C       0.3672910000     2.0744060000    -3.1069160000
   33      S       0.5806330000     3.3035330000    -1.9657350000
   34      C       0.4160830000     2.3242040000    -4.5599720000
   35      O       0.2569210000     1.4043670000    -5.3502770000
   36      O       0.6420940000     3.5873380000    -5.0043750000
   37      F      -0.0418280000    -0.2691130000    -3.2462900000
   38      C       0.7143770000     3.9388270000    -6.3349760000
   39      H       0.9068440000     5.0268980000    -6.3702680000
   40      H      -0.2306610000     3.7100990000    -6.8756090000
   41      H       1.5319180000     3.3986810000    -6.8618780000
   42      H       0.5906990000     3.3429840000     1.3215100000
 ----------------------------------------------------------------

   10   -2754.2939247389      8.79e-07  Convergence criterion met
 Total energy in the final basis set =    -2754.2939247389
        RIMP2         total energy =     -2759.3465526777 a.u.

                    Orbital Energies (a.u.)
 --------------------------------------------------------------

 Alpha MOs
 -- Occupied --
-92.0162 -91.9945 -91.9899 -91.9867 -26.3337 -20.6119 -20.5924 -20.5920
-20.5500 -11.4102 -11.3770 -11.3193 -11.3190 -11.3087 -11.2973 -11.2960
-11.2937 -11.2929 -11.2883 -11.2870 -11.2868 -11.2862 -11.2842 -11.2826
-11.2804 -11.2609 -11.2598 -11.2594 -11.2501  -9.0143  -8.9985  -8.9902
 -8.9866  -6.6950  -6.6944  -6.6939  -6.6798  -6.6791  -6.6777  -6.6712
 -6.6705  -6.6695  -6.6676  -6.6669  -6.6661  -1.6466  -1.4717  -1.4165
 -1.4147  -1.3670  -1.2330  -1.1961  -1.1682  -1.1416  -1.0840  -1.0523
 -1.0472  -1.0274  -1.0025  -0.9932  -0.9711  -0.9615  -0.9506  -0.9383
 -0.8960  -0.8690  -0.8507  -0.8053  -0.7901  -0.7885  -0.7740  -0.7678
 -0.7585  -0.7329  -0.7178  -0.7149  -0.7013  -0.6885  -0.6833  -0.6783
 -0.6709  -0.6604  -0.6593  -0.6528  -0.6309  -0.6203  -0.6172  -0.6063
 -0.6021  -0.5943  -0.5824  -0.5792  -0.5673  -0.5658  -0.5564  -0.5511
 -0.5350  -0.5261  -0.5245  -0.5161  -0.5141  -0.5080  -0.5011  -0.4947
 -0.4907  -0.4839  -0.4758  -0.4684  -0.4617  -0.4611  -0.4604  -0.4056
 -0.4016  -0.3873  -0.3573  -0.3491  -0.3148  -0.2890  -0.2596

          Ground-State Mulliken Net Atomic Charges

     Atom                 Charge (a.u.)
  ----------------------------------------
      1 C                    -0.186775
      2 C                    -0.254556
      3 S                    -0.021655
      4 C                    -0.012031
      5 H                     0.196599
      6 C                    -0.027897
      7 C                     0.247898
      8 C                     0.239048
      9 C                    -0.042291
     10 C                    -0.030229
     11 O                    -0.333083
     12 O                    -0.339798
     13 C                    -0.085648
     14 H                     0.122689
     15 H                     0.090945
     16 H                     0.094754
     17 C                    -0.086510
     18 H                     0.124867
     19 H                     0.094294
     20 H                     0.090421
     21 C                    -0.218515
     22 S                     0.000933
     23 C                    -0.057786
     24 H                     0.196568
     25 H                     0.206704
     26 C                    -0.001350
     27 S                     0.120519
     28 C                    -0.239926
     29 C                    -0.108059
     30 C                    -0.001723
     31 C                     0.393495
     32 C                    -0.158369
     33 S                     0.038472
     34 C                     0.460793
     35 O                    -0.449846
     36 O                    -0.297801
     37 F                    -0.210581
     38 C                    -0.054951
     39 H                     0.116508
     40 H                     0.084588
     41 H                     0.084505
     42 H                     0.214780
  ----------------------------------------
  Sum of atomic charges =     0.000000

                    Cartesian Multipole Moments
 -----------------------------------------------------------------
    Charge (ESU x 10^10)
                 0.0000
    Dipole Moment (Debye)
         X       0.6367      Y       1.4452      Z       3.0179
       Tot       3.4062
    Quadrupole Moments (Debye-Ang)
        XX    -175.9630     XY       3.5292     YY    -158.4524
        XZ      -0.5051     YZ      -9.1435     ZZ    -206.5105

 Total job time:  282.33s(wall), 9250.08s(cpu)
        *  Thank you very much for using Q-Chem.  Have a nice day.  *
