 Q-Chem 5.4, Q-Chem, Inc., Pleasanton, CA (2021)
 Q-Chem 5.4.0 for Intel X86 EM64T Linux

User input:
--------------------------------------------------------------
$molecule
0 1
C	0.000687	-8.519741	-0.272104
C	0.194476	-7.635967	0.779533
S	-0.287581	-7.651740	-1.799596
C	0.125787	-6.261894	0.399427
H	0.383826	-7.954738	1.812314
C	-0.121989	-6.079985	-1.006762
C	-0.247488	-4.798382	-1.564994
C	0.258303	-5.153542	1.284087
C	0.128493	-3.869626	0.726260
C	-0.116725	-3.688927	-0.681918
O	0.517104	-5.481075	2.580622
O	-0.508622	-4.479871	-2.867144
C	-0.075811	-5.356026	-3.900814
H	-0.173640	-4.790496	-4.847002
H	-0.707354	-6.268513	-3.971794
H	0.984963	-5.658187	-3.763397
C	0.257016	-4.546999	3.621225
H	0.357864	-5.107564	4.569828
H	-0.771211	-4.131473	3.551910
H	0.990913	-3.712085	3.626592
C	-0.187034	-2.314326	-1.058088
S	0.281899	-2.295487	1.523035
C	-0.000000	-1.435180	-0.000000
H	-0.373653	-1.993211	-2.090565
H	-0.000773	-9.615985	-0.266226
C	0.000000	0.000000	0.000000
S	0.382139	0.814215	1.510732
C	1.046923	2.242395	0.727629
C	0.383804	0.823142	-1.064665
C	0.969360	2.082453	-0.678287
C	0.357247	0.762277	-2.486150
C	0.891671	1.908660	-3.106916
S	1.415865	3.040689	-1.965735
C	1.003453	2.137318	-4.559972
O	0.611644	1.290019	-5.350277
O	1.548687	3.298916	-5.004375
F	-0.110054	-0.249117	-3.246290
C	1.709479	3.619721	-6.334976
H	2.177001	4.620902	-6.370268
H	0.737443	3.643380	-6.875609
H	2.359363	2.886384	-6.861878
H	1.435800	3.076190	1.321510
$end

$rem
JOBTYPE		SP
EXCHANGE	HF
CORRELATION	pRIMP2
BASIS		cc-pvtz
METHOD		rimp2
AUX_BASIS	rimp2-cc-pvtz
SOLVENT_METHOD	PCM
PURECART	11111
SYMMETRY	false
MEM_TOTAL	110000
SCF_CONVERGENCE = 6
THRESH=10
GUI = 2
$end

$solvent
dielectric 4.90
$end
--------------------------------------------------------------

             Standard Nuclear Orientation (Angstroms)
    I     Atom           X                Y                Z
 ----------------------------------------------------------------
    1      C       0.0006870000    -8.5197410000    -0.2721040000
    2      C       0.1944760000    -7.6359670000     0.7795330000
    3      S      -0.2875810000    -7.6517400000    -1.7995960000
    4      C       0.1257870000    -6.2618940000     0.3994270000
    5      H       0.3838260000    -7.9547380000     1.8123140000
    6      C      -0.1219890000    -6.0799850000    -1.0067620000
    7      C      -0.2474880000    -4.7983820000    -1.5649940000
    8      C       0.2583030000    -5.1535420000     1.2840870000
    9      C       0.1284930000    -3.8696260000     0.7262600000
   10      C      -0.1167250000    -3.6889270000    -0.6819180000
   11      O       0.5171040000    -5.4810750000     2.5806220000
   12      O      -0.5086220000    -4.4798710000    -2.8671440000
   13      C      -0.0758110000    -5.3560260000    -3.9008140000
   14      H      -0.1736400000    -4.7904960000    -4.8470020000
   15      H      -0.7073540000    -6.2685130000    -3.9717940000
   16      H       0.9849630000    -5.6581870000    -3.7633970000
   17      C       0.2570160000    -4.5469990000     3.6212250000
   18      H       0.3578640000    -5.1075640000     4.5698280000
   19      H      -0.7712110000    -4.1314730000     3.5519100000
   20      H       0.9909130000    -3.7120850000     3.6265920000
   21      C      -0.1870340000    -2.3143260000    -1.0580880000
   22      S       0.2818990000    -2.2954870000     1.5230350000
   23      C       0.0000000000    -1.4351800000     0.0000000000
   24      H      -0.3736530000    -1.9932110000    -2.0905650000
   25      H      -0.0007730000    -9.6159850000    -0.2662260000
   26      C       0.0000000000     0.0000000000     0.0000000000
   27      S       0.3821390000     0.8142150000     1.5107320000
   28      C       1.0469230000     2.2423950000     0.7276290000
   29      C       0.3838040000     0.8231420000    -1.0646650000
   30      C       0.9693600000     2.0824530000    -0.6782870000
   31      C       0.3572470000     0.7622770000    -2.4861500000
   32      C       0.8916710000     1.9086600000    -3.1069160000
   33      S       1.4158650000     3.0406890000    -1.9657350000
   34      C       1.0034530000     2.1373180000    -4.5599720000
   35      O       0.6116440000     1.2900190000    -5.3502770000
   36      O       1.5486870000     3.2989160000    -5.0043750000
   37      F      -0.1100540000    -0.2491170000    -3.2462900000
   38      C       1.7094790000     3.6197210000    -6.3349760000
   39      H       2.1770010000     4.6209020000    -6.3702680000
   40      H       0.7374430000     3.6433800000    -6.8756090000
   41      H       2.3593630000     2.8863840000    -6.8618780000
   42      H       1.4358000000     3.0761900000     1.3215100000
 ----------------------------------------------------------------

   10   -2754.2847183512      8.16e-07  Convergence criterion met
 Total energy in the final basis set =    -2754.2847183512
        RIMP2         total energy =     -2759.3444255694 a.u.

                    Orbital Energies (a.u.)
 --------------------------------------------------------------

 Alpha MOs
 -- Occupied --
-92.0164 -91.9972 -91.9899 -91.9861 -26.3384 -20.6126 -20.5926 -20.5904
-20.5510 -11.4112 -11.3787 -11.3194 -11.3173 -11.3092 -11.2995 -11.2989
-11.2973 -11.2962 -11.2888 -11.2875 -11.2859 -11.2848 -11.2838 -11.2837
-11.2794 -11.2609 -11.2587 -11.2526 -11.2498  -9.0150  -9.0012  -8.9906
 -8.9860  -6.6958  -6.6952  -6.6947  -6.6824  -6.6817  -6.6804  -6.6716
 -6.6709  -6.6699  -6.6670  -6.6664  -6.6655  -1.6528  -1.4725  -1.4166
 -1.4132  -1.3679  -1.2357  -1.1961  -1.1696  -1.1432  -1.0843  -1.0520
 -1.0492  -1.0293  -1.0027  -0.9935  -0.9733  -0.9604  -0.9502  -0.9383
 -0.8964  -0.8709  -0.8508  -0.8066  -0.7970  -0.7884  -0.7720  -0.7701
 -0.7571  -0.7322  -0.7223  -0.7198  -0.7010  -0.6903  -0.6844  -0.6791
 -0.6732  -0.6622  -0.6590  -0.6519  -0.6286  -0.6195  -0.6153  -0.6073
 -0.6011  -0.5964  -0.5880  -0.5757  -0.5684  -0.5600  -0.5548  -0.5459
 -0.5368  -0.5282  -0.5224  -0.5199  -0.5173  -0.5095  -0.5056  -0.4961
 -0.4855  -0.4850  -0.4782  -0.4671  -0.4621  -0.4616  -0.4587  -0.4246
 -0.3980  -0.3849  -0.3592  -0.3506  -0.3252  -0.2851  -0.2461

          Ground-State Mulliken Net Atomic Charges

     Atom                 Charge (a.u.)
  ----------------------------------------
      1 C                    -0.189019
      2 C                    -0.254926
      3 S                    -0.021600
      4 C                    -0.014963
      5 H                     0.196157
      6 C                    -0.028426
      7 C                     0.248217
      8 C                     0.242332
      9 C                    -0.043043
     10 C                    -0.024151
     11 O                    -0.333219
     12 O                    -0.340007
     13 C                    -0.086246
     14 H                     0.124122
     15 H                     0.091146
     16 H                     0.093613
     17 C                    -0.088634
     18 H                     0.125920
     19 H                     0.094922
     20 H                     0.089558
     21 C                    -0.240326
     22 S                    -0.037859
     23 C                    -0.040052
     24 H                     0.211974
     25 H                     0.206405
     26 C                     0.015409
     27 S                     0.093053
     28 C                    -0.223804
     29 C                    -0.070832
     30 C                    -0.022591
     31 C                     0.365485
     32 C                    -0.131320
     33 S                     0.047994
     34 C                     0.456521
     35 O                    -0.449378
     36 O                    -0.297859
     37 F                    -0.214080
     38 C                    -0.054760
     39 H                     0.116837
     40 H                     0.084650
     41 H                     0.084557
     42 H                     0.218223
  ----------------------------------------
  Sum of atomic charges =     0.000000

                    Cartesian Multipole Moments
 -----------------------------------------------------------------
    Charge (ESU x 10^10)
                 0.0000
    Dipole Moment (Debye)
         X       1.9049      Y       1.7155      Z       3.1188
       Tot       4.0371
    Quadrupole Moments (Debye-Ang)
        XX    -198.8037     XY       5.0127     YY    -161.7473
        XZ      -6.2202     YZ      -9.2105     ZZ    -180.7471

 Total job time:  331.74s(wall), 11137.33s(cpu)
        *  Thank you very much for using Q-Chem.  Have a nice day.  *
