 Q-Chem 5.4, Q-Chem, Inc., Pleasanton, CA (2021)
 Q-Chem 5.4.0 for Intel X86 EM64T Linux

User input:
--------------------------------------------------------------
$molecule
0 1
C	-0.093711	-8.519741	0.255459
C	0.083869	-7.635967	-0.799036
S	-0.345260	-7.651740	1.789425
C	0.018411	-6.261894	-0.418360
H	0.259169	-7.954738	-1.834294
C	-0.229701	-6.079985	0.987769
C	-0.302697	-4.798382	1.555260
C	0.196459	-5.153542	-1.294992
C	0.127651	-3.869626	-0.726408
C	-0.123544	-3.688927	0.680716
O	0.396706	-5.481075	-2.601852
O	-0.502673	-4.479871	2.868193
C	-1.262918	-5.356026	3.691495
H	-1.494604	-4.790496	4.614080
H	-0.693738	-6.268513	3.974195
H	-2.212720	-5.658187	3.199559
C	0.997016	-4.546999	-3.490743
H	1.226691	-5.107564	-4.416630
H	1.939526	-4.131473	-3.073934
H	0.309214	-3.712085	-3.746794
C	-0.186133	-2.314326	1.058247
S	0.256010	-2.295487	-1.527599
C	0.000000	-1.435180	0.000000
H	-0.363896	-1.993211	2.092285
H	-0.090328	-9.615985	0.250435
C	0.000000	0.000000	0.000000
S	0.158383	0.885376	1.510732
C	0.430876	2.436951	0.727629
C	0.157682	0.894430	-1.064665
C	0.397351	2.262384	-0.678287
C	0.147783	0.828765	-2.486150
C	0.367291	2.074406	-3.106916
S	0.580633	3.303533	-1.965735
C	0.416083	2.324204	-4.559972
O	0.256921	1.404367	-5.350277
O	0.642094	3.587338	-5.004375
F	-0.041828	-0.269113	-3.246290
C	0.714377	3.938827	-6.334976
H	0.906844	5.026898	-6.370268
H	-0.230661	3.710099	-6.875609
H	1.531918	3.398681	-6.861878
H	0.590699	3.342984	1.321510
$end

$rem
JOBTYPE		SP
EXCHANGE	HF
CORRELATION	pRIMP2
BASIS		cc-pvtz
METHOD		rimp2
AUX_BASIS	rimp2-cc-pvtz
SOLVENT_METHOD	PCM
PURECART	11111
SYMMETRY	false
MEM_TOTAL	110000
SCF_CONVERGENCE = 6
THRESH=10
GUI = 2
$end

$solvent
dielectric 4.90
$end
--------------------------------------------------------------

             Standard Nuclear Orientation (Angstroms)
    I     Atom           X                Y                Z
 ----------------------------------------------------------------
    1      C      -0.0937110000    -8.5197410000     0.2554590000
    2      C       0.0838690000    -7.6359670000    -0.7990360000
    3      S      -0.3452600000    -7.6517400000     1.7894250000
    4      C       0.0184110000    -6.2618940000    -0.4183600000
    5      H       0.2591690000    -7.9547380000    -1.8342940000
    6      C      -0.2297010000    -6.0799850000     0.9877690000
    7      C      -0.3026970000    -4.7983820000     1.5552600000
    8      C       0.1964590000    -5.1535420000    -1.2949920000
    9      C       0.1276510000    -3.8696260000    -0.7264080000
   10      C      -0.1235440000    -3.6889270000     0.6807160000
   11      O       0.3967060000    -5.4810750000    -2.6018520000
   12      O      -0.5026730000    -4.4798710000     2.8681930000
   13      C      -1.2629180000    -5.3560260000     3.6914950000
   14      H      -1.4946040000    -4.7904960000     4.6140800000
   15      H      -0.6937380000    -6.2685130000     3.9741950000
   16      H      -2.2127200000    -5.6581870000     3.1995590000
   17      C       0.9970160000    -4.5469990000    -3.4907430000
   18      H       1.2266910000    -5.1075640000    -4.4166300000
   19      H       1.9395260000    -4.1314730000    -3.0739340000
   20      H       0.3092140000    -3.7120850000    -3.7467940000
   21      C      -0.1861330000    -2.3143260000     1.0582470000
   22      S       0.2560100000    -2.2954870000    -1.5275990000
   23      C       0.0000000000    -1.4351800000     0.0000000000
   24      H      -0.3638960000    -1.9932110000     2.0922850000
   25      H      -0.0903280000    -9.6159850000     0.2504350000
   26      C       0.0000000000     0.0000000000     0.0000000000
   27      S       0.1583830000     0.8853760000     1.5107320000
   28      C       0.4308760000     2.4369510000     0.7276290000
   29      C       0.1576820000     0.8944300000    -1.0646650000
   30      C       0.3973510000     2.2623840000    -0.6782870000
   31      C       0.1477830000     0.8287650000    -2.4861500000
   32      C       0.3672910000     2.0744060000    -3.1069160000
   33      S       0.5806330000     3.3035330000    -1.9657350000
   34      C       0.4160830000     2.3242040000    -4.5599720000
   35      O       0.2569210000     1.4043670000    -5.3502770000
   36      O       0.6420940000     3.5873380000    -5.0043750000
   37      F      -0.0418280000    -0.2691130000    -3.2462900000
   38      C       0.7143770000     3.9388270000    -6.3349760000
   39      H       0.9068440000     5.0268980000    -6.3702680000
   40      H      -0.2306610000     3.7100990000    -6.8756090000
   41      H       1.5319180000     3.3986810000    -6.8618780000
   42      H       0.5906990000     3.3429840000     1.3215100000
 ----------------------------------------------------------------

   10   -2754.2911112650      8.53e-07  Convergence criterion met
 Total energy in the final basis set =    -2754.2911112650
        RIMP2         total energy =     -2759.3480933994 a.u.

                    Orbital Energies (a.u.)
 --------------------------------------------------------------

 Alpha MOs
 -- Occupied --
-92.0146 -91.9952 -91.9864 -91.9856 -26.3361 -20.6122 -20.5920 -20.5913
-20.5500 -11.4104 -11.3790 -11.3185 -11.3182 -11.3137 -11.2975 -11.2975
-11.2972 -11.2935 -11.2886 -11.2865 -11.2856 -11.2845 -11.2839 -11.2826
-11.2799 -11.2616 -11.2591 -11.2589 -11.2499  -9.0131  -8.9992  -8.9866
 -8.9863  -6.6939  -6.6933  -6.6928  -6.6805  -6.6798  -6.6785  -6.6674
 -6.6673  -6.6667  -6.6667  -6.6658  -6.6656  -1.6519  -1.4719  -1.4157
 -1.4145  -1.3672  -1.2345  -1.1962  -1.1691  -1.1421  -1.0847  -1.0522
 -1.0483  -1.0288  -1.0023  -0.9939  -0.9726  -0.9606  -0.9499  -0.9382
 -0.8960  -0.8698  -0.8522  -0.8101  -0.7960  -0.7871  -0.7752  -0.7633
 -0.7582  -0.7326  -0.7212  -0.7189  -0.7005  -0.6888  -0.6842  -0.6787
 -0.6739  -0.6621  -0.6585  -0.6524  -0.6286  -0.6196  -0.6163  -0.6067
 -0.6020  -0.5956  -0.5883  -0.5706  -0.5702  -0.5643  -0.5596  -0.5527
 -0.5303  -0.5264  -0.5248  -0.5183  -0.5149  -0.5086  -0.5018  -0.4954
 -0.4864  -0.4829  -0.4800  -0.4646  -0.4615  -0.4610  -0.4581  -0.4245
 -0.3952  -0.3868  -0.3607  -0.3499  -0.3250  -0.2837  -0.2467

          Ground-State Mulliken Net Atomic Charges

     Atom                 Charge (a.u.)
  ----------------------------------------
      1 C                    -0.187706
      2 C                    -0.254634
      3 S                    -0.023135
      4 C                    -0.014513
      5 H                     0.196684
      6 C                    -0.029574
      7 C                     0.244017
      8 C                     0.242494
      9 C                    -0.040280
     10 C                    -0.020067
     11 O                    -0.333551
     12 O                    -0.340369
     13 C                    -0.085712
     14 H                     0.122319
     15 H                     0.091323
     16 H                     0.094327
     17 C                    -0.089885
     18 H                     0.125820
     19 H                     0.094204
     20 H                     0.092210
     21 C                    -0.251930
     22 S                    -0.025392
     23 C                     0.016454
     24 H                     0.187176
     25 H                     0.206595
     26 C                     0.029773
     27 S                     0.097925
     28 C                    -0.238932
     29 C                    -0.109205
     30 C                    -0.020929
     31 C                     0.370313
     32 C                    -0.133721
     33 S                     0.038203
     34 C                     0.460648
     35 O                    -0.451195
     36 O                    -0.297851
     37 F                    -0.208952
     38 C                    -0.054976
     39 H                     0.116772
     40 H                     0.084560
     41 H                     0.084361
     42 H                     0.216331
  ----------------------------------------
  Sum of atomic charges =     0.000000

                    Cartesian Multipole Moments
 -----------------------------------------------------------------
    Charge (ESU x 10^10)
                 0.0000
    Dipole Moment (Debye)
         X       0.3739      Y       1.5950      Z       2.8966
       Tot       3.3278
    Quadrupole Moments (Debye-Ang)
        XX    -197.5381     XY       4.3026     YY    -159.8244
        XZ     -11.1133     YZ     -10.2660     ZZ    -184.7416

 Total job time:  285.36s(wall), 9264.00s(cpu)
        *  Thank you very much for using Q-Chem.  Have a nice day.  *
