 Q-Chem 5.4, Q-Chem, Inc., Pleasanton, CA (2021)
 Q-Chem 5.4.0 for Intel X86 EM64T Linux

User input:
--------------------------------------------------------------
$molecule
0 1
C	0.272104	-8.519741	0.000687
C	-0.779533	-7.635967	0.194476
S	1.799596	-7.651740	-0.287581
C	-0.399427	-6.261894	0.125787
H	-1.812314	-7.954738	0.383826
C	1.006762	-6.079985	-0.121989
C	1.564994	-4.798382	-0.247488
C	-1.284087	-5.153542	0.258303
C	-0.726260	-3.869626	0.128493
C	0.681918	-3.688927	-0.116725
O	-2.580622	-5.481075	0.517104
O	2.867144	-4.479871	-0.508622
C	3.900814	-5.356026	-0.075811
H	4.847002	-4.790496	-0.173640
H	3.971794	-6.268513	-0.707354
H	3.763397	-5.658187	0.984963
C	-3.621225	-4.546999	0.257016
H	-4.569828	-5.107564	0.357864
H	-3.551910	-4.131473	-0.771211
H	-3.626592	-3.712085	0.990913
C	1.058088	-2.314326	-0.187034
S	-1.523035	-2.295487	0.281899
C	-0.000000	-1.435180	-0.000000
H	2.090565	-1.993211	-0.373653
H	0.266226	-9.615985	-0.000773
C	0.000000	0.000000	0.000000
S	0.690437	0.576430	1.510732
C	1.896512	1.589852	0.727629
C	0.695720	0.583817	-1.064665
C	1.758621	1.477674	-0.678287
C	0.645928	0.539878	-2.486150
C	1.614763	1.352997	-3.106916
S	2.568261	2.157430	-1.965735
C	1.812707	1.512991	-4.559972
O	1.099523	0.910662	-5.350277
O	2.797769	2.335330	-5.004375
F	-0.205024	-0.179266	-3.246290
C	3.079074	2.558124	-6.334976
H	3.925910	3.267919	-6.370268
H	2.208109	2.990367	-6.875609
H	3.358147	1.618843	-6.861878
H	2.601331	2.181180	1.321510
$end

$rem
JOBTYPE		SP
EXCHANGE	HF
CORRELATION	pRIMP2
BASIS		cc-pvtz
METHOD		rimp2
AUX_BASIS	rimp2-cc-pvtz
SOLVENT_METHOD	PCM
PURECART	11111
SYMMETRY	false
MEM_TOTAL	110000
SCF_CONVERGENCE = 6
THRESH=10
GUI = 2
$end

$solvent
dielectric 4.90
$end
--------------------------------------------------------------

             Standard Nuclear Orientation (Angstroms)
    I     Atom           X                Y                Z
 ----------------------------------------------------------------
    1      C       0.2721040000    -8.5197410000     0.0006870000
    2      C      -0.7795330000    -7.6359670000     0.1944760000
    3      S       1.7995960000    -7.6517400000    -0.2875810000
    4      C      -0.3994270000    -6.2618940000     0.1257870000
    5      H      -1.8123140000    -7.9547380000     0.3838260000
    6      C       1.0067620000    -6.0799850000    -0.1219890000
    7      C       1.5649940000    -4.7983820000    -0.2474880000
    8      C      -1.2840870000    -5.1535420000     0.2583030000
    9      C      -0.7262600000    -3.8696260000     0.1284930000
   10      C       0.6819180000    -3.6889270000    -0.1167250000
   11      O      -2.5806220000    -5.4810750000     0.5171040000
   12      O       2.8671440000    -4.4798710000    -0.5086220000
   13      C       3.9008140000    -5.3560260000    -0.0758110000
   14      H       4.8470020000    -4.7904960000    -0.1736400000
   15      H       3.9717940000    -6.2685130000    -0.7073540000
   16      H       3.7633970000    -5.6581870000     0.9849630000
   17      C      -3.6212250000    -4.5469990000     0.2570160000
   18      H      -4.5698280000    -5.1075640000     0.3578640000
   19      H      -3.5519100000    -4.1314730000    -0.7712110000
   20      H      -3.6265920000    -3.7120850000     0.9909130000
   21      C       1.0580880000    -2.3143260000    -0.1870340000
   22      S      -1.5230350000    -2.2954870000     0.2818990000
   23      C       0.0000000000    -1.4351800000     0.0000000000
   24      H       2.0905650000    -1.9932110000    -0.3736530000
   25      H       0.2662260000    -9.6159850000    -0.0007730000
   26      C       0.0000000000     0.0000000000     0.0000000000
   27      S       0.6904370000     0.5764300000     1.5107320000
   28      C       1.8965120000     1.5898520000     0.7276290000
   29      C       0.6957200000     0.5838170000    -1.0646650000
   30      C       1.7586210000     1.4776740000    -0.6782870000
   31      C       0.6459280000     0.5398780000    -2.4861500000
   32      C       1.6147630000     1.3529970000    -3.1069160000
   33      S       2.5682610000     2.1574300000    -1.9657350000
   34      C       1.8127070000     1.5129910000    -4.5599720000
   35      O       1.0995230000     0.9106620000    -5.3502770000
   36      O       2.7977690000     2.3353300000    -5.0043750000
   37      F      -0.2050240000    -0.1792660000    -3.2462900000
   38      C       3.0790740000     2.5581240000    -6.3349760000
   39      H       3.9259100000     3.2679190000    -6.3702680000
   40      H       2.2081090000     2.9903670000    -6.8756090000
   41      H       3.3581470000     1.6188430000    -6.8618780000
   42      H       2.6013310000     2.1811800000     1.3215100000
 ----------------------------------------------------------------

   11   -2754.2514426519      5.93e-07  Convergence criterion met
 Total energy in the final basis set =    -2754.2514426519
        RIMP2         total energy =     -2759.3177910828 a.u.

                    Orbital Energies (a.u.)
 --------------------------------------------------------------

 Alpha MOs
 -- Occupied --
-92.0154 -92.0022 -91.9841 -91.9818 -26.3339 -20.6149 -20.5905 -20.5892
-20.5552 -11.4147 -11.3762 -11.3169 -11.3164 -11.3138 -11.3080 -11.2986
-11.2921 -11.2915 -11.2899 -11.2852 -11.2851 -11.2816 -11.2811 -11.2806
-11.2770 -11.2578 -11.2551 -11.2483 -11.2483  -9.0141  -9.0059  -8.9841
 -8.9825  -6.6947  -6.6939  -6.6937  -6.6871  -6.6865  -6.6852  -6.6651
 -6.6645  -6.6636  -6.6634  -6.6627  -6.6618  -1.6468  -1.4750  -1.4144
 -1.4120  -1.3709  -1.2397  -1.1925  -1.1683  -1.1434  -1.0828  -1.0502
 -1.0487  -1.0310  -0.9985  -0.9916  -0.9740  -0.9585  -0.9486  -0.9387
 -0.8928  -0.8734  -0.8439  -0.8039  -0.7933  -0.7855  -0.7760  -0.7687
 -0.7542  -0.7306  -0.7179  -0.7154  -0.6998  -0.6917  -0.6808  -0.6801
 -0.6752  -0.6603  -0.6570  -0.6509  -0.6280  -0.6182  -0.6149  -0.6101
 -0.6059  -0.5999  -0.5828  -0.5734  -0.5686  -0.5633  -0.5537  -0.5498
 -0.5312  -0.5253  -0.5226  -0.5145  -0.5127  -0.5080  -0.5006  -0.4931
 -0.4897  -0.4871  -0.4695  -0.4652  -0.4638  -0.4616  -0.4573  -0.4015
 -0.3982  -0.3850  -0.3609  -0.3425  -0.3110  -0.2965  -0.2538

          Ground-State Mulliken Net Atomic Charges

     Atom                 Charge (a.u.)
  ----------------------------------------
      1 C                    -0.193316
      2 C                    -0.254202
      3 S                    -0.026697
      4 C                    -0.018691
      5 H                     0.195744
      6 C                    -0.026894
      7 C                     0.234586
      8 C                     0.243489
      9 C                    -0.048160
     10 C                    -0.015340
     11 O                    -0.333787
     12 O                    -0.341511
     13 C                    -0.085625
     14 H                     0.121383
     15 H                     0.090940
     16 H                     0.093081
     17 C                    -0.086677
     18 H                     0.124299
     19 H                     0.094825
     20 H                     0.089383
     21 C                    -0.255056
     22 S                    -0.017980
     23 C                    -0.002528
     24 H                     0.196528
     25 H                     0.205402
     26 C                    -0.111730
     27 S                     0.135136
     28 C                    -0.172881
     29 C                    -0.095666
     30 C                    -0.010900
     31 C                     0.383525
     32 C                    -0.137815
     33 S                     0.062270
     34 C                     0.458695
     35 O                    -0.440779
     36 O                    -0.296913
     37 F                    -0.209113
     38 C                    -0.054633
     39 H                     0.117179
     40 H                     0.085439
     41 H                     0.085539
     42 H                     0.219452
  ----------------------------------------
  Sum of atomic charges =     0.000000

                    Cartesian Multipole Moments
 -----------------------------------------------------------------
    Charge (ESU x 10^10)
                 0.0000
    Dipole Moment (Debye)
         X       3.9281      Y       2.4575      Z       3.0644
       Tot       5.5552
    Quadrupole Moments (Debye-Ang)
        XX    -166.1318     XY       9.4858     YY    -173.6892
        XZ      -7.7068     YZ      -9.1043     ZZ    -203.2919

 Total job time:  306.38s(wall), 9905.26s(cpu)
        *  Thank you very much for using Q-Chem.  Have a nice day.  *
