 Q-Chem 5.4, Q-Chem, Inc., Pleasanton, CA (2021)
 Q-Chem 5.4.0 for Intel X86 EM64T Linux

User input:
--------------------------------------------------------------
$molecule
0 1
C	-0.093711	-8.519741	0.255459
C	0.083869	-7.635967	-0.799036
S	-0.345260	-7.651740	1.789425
C	0.018411	-6.261894	-0.418360
H	0.259169	-7.954738	-1.834294
C	-0.229701	-6.079985	0.987769
C	-0.302697	-4.798382	1.555260
C	0.196459	-5.153542	-1.294992
C	0.127651	-3.869626	-0.726408
C	-0.123544	-3.688927	0.680716
O	0.396706	-5.481075	-2.601852
O	-0.502673	-4.479871	2.868193
C	-1.262918	-5.356026	3.691495
H	-1.494604	-4.790496	4.614080
H	-0.693738	-6.268513	3.974195
H	-2.212720	-5.658187	3.199559
C	0.997016	-4.546999	-3.490743
H	1.226691	-5.107564	-4.416630
H	1.939526	-4.131473	-3.073934
H	0.309214	-3.712085	-3.746794
C	-0.186133	-2.314326	1.058247
S	0.256010	-2.295487	-1.527599
C	0.000000	-1.435180	0.000000
H	-0.363896	-1.993211	2.092285
H	-0.090328	-9.615985	0.250435
C	0.000000	0.000000	0.000000
S	0.780044	0.447780	1.510732
C	2.143774	1.236372	0.727629
C	0.786529	0.454137	-1.064665
C	1.988499	1.149844	-0.678287
C	0.729864	0.419512	-2.486150
C	1.825177	1.052041	-3.106916
S	2.903877	1.678680	-1.965735
C	2.047896	1.175232	-4.559972
O	1.240953	0.705897	-5.350277
O	3.160791	1.814024	-5.004375
F	-0.233039	-0.140940	-3.246290
C	3.476510	1.984585	-6.334976
H	4.433735	2.536545	-6.370268
H	2.693835	2.561503	-6.875609
H	3.588239	1.011113	-6.861878
H	2.940569	1.696327	1.321510
$end

$rem
JOBTYPE		SP
EXCHANGE	HF
CORRELATION	pRIMP2
BASIS		cc-pvtz
METHOD		rimp2
AUX_BASIS	rimp2-cc-pvtz
SOLVENT_METHOD	PCM
PURECART	11111
SYMMETRY	false
MEM_TOTAL	110000
SCF_CONVERGENCE = 6
THRESH=10
GUI = 2
$end

$solvent
dielectric 4.90
$end
--------------------------------------------------------------

             Standard Nuclear Orientation (Angstroms)
    I     Atom           X                Y                Z
 ----------------------------------------------------------------
    1      C      -0.0937110000    -8.5197410000     0.2554590000
    2      C       0.0838690000    -7.6359670000    -0.7990360000
    3      S      -0.3452600000    -7.6517400000     1.7894250000
    4      C       0.0184110000    -6.2618940000    -0.4183600000
    5      H       0.2591690000    -7.9547380000    -1.8342940000
    6      C      -0.2297010000    -6.0799850000     0.9877690000
    7      C      -0.3026970000    -4.7983820000     1.5552600000
    8      C       0.1964590000    -5.1535420000    -1.2949920000
    9      C       0.1276510000    -3.8696260000    -0.7264080000
   10      C      -0.1235440000    -3.6889270000     0.6807160000
   11      O       0.3967060000    -5.4810750000    -2.6018520000
   12      O      -0.5026730000    -4.4798710000     2.8681930000
   13      C      -1.2629180000    -5.3560260000     3.6914950000
   14      H      -1.4946040000    -4.7904960000     4.6140800000
   15      H      -0.6937380000    -6.2685130000     3.9741950000
   16      H      -2.2127200000    -5.6581870000     3.1995590000
   17      C       0.9970160000    -4.5469990000    -3.4907430000
   18      H       1.2266910000    -5.1075640000    -4.4166300000
   19      H       1.9395260000    -4.1314730000    -3.0739340000
   20      H       0.3092140000    -3.7120850000    -3.7467940000
   21      C      -0.1861330000    -2.3143260000     1.0582470000
   22      S       0.2560100000    -2.2954870000    -1.5275990000
   23      C       0.0000000000    -1.4351800000     0.0000000000
   24      H      -0.3638960000    -1.9932110000     2.0922850000
   25      H      -0.0903280000    -9.6159850000     0.2504350000
   26      C       0.0000000000     0.0000000000     0.0000000000
   27      S       0.7800440000     0.4477800000     1.5107320000
   28      C       2.1437740000     1.2363720000     0.7276290000
   29      C       0.7865290000     0.4541370000    -1.0646650000
   30      C       1.9884990000     1.1498440000    -0.6782870000
   31      C       0.7298640000     0.4195120000    -2.4861500000
   32      C       1.8251770000     1.0520410000    -3.1069160000
   33      S       2.9038770000     1.6786800000    -1.9657350000
   34      C       2.0478960000     1.1752320000    -4.5599720000
   35      O       1.2409530000     0.7058970000    -5.3502770000
   36      O       3.1607910000     1.8140240000    -5.0043750000
   37      F      -0.2330390000    -0.1409400000    -3.2462900000
   38      C       3.4765100000     1.9845850000    -6.3349760000
   39      H       4.4337350000     2.5365450000    -6.3702680000
   40      H       2.6938350000     2.5615030000    -6.8756090000
   41      H       3.5882390000     1.0111130000    -6.8618780000
   42      H       2.9405690000     1.6963270000     1.3215100000
 ----------------------------------------------------------------

   11   -2754.2230614181      6.37e-07  Convergence criterion met
 Total energy in the final basis set =    -2754.2230614181
        RIMP2         total energy =     -2759.2989171274 a.u.

                    Orbital Energies (a.u.)
 --------------------------------------------------------------

 Alpha MOs
 -- Occupied --
-92.0168 -92.0104 -91.9812 -91.9804 -26.3362 -20.6180 -20.5893 -20.5851
-20.5601 -11.4191 -11.3786 -11.3320 -11.3175 -11.3152 -11.3060 -11.3038
-11.3003 -11.2966 -11.2917 -11.2846 -11.2828 -11.2791 -11.2770 -11.2748
-11.2720 -11.2556 -11.2488 -11.2460 -11.2314  -9.0161  -9.0137  -8.9820
 -8.9812  -6.6967  -6.6958  -6.6957  -6.6948  -6.6942  -6.6930  -6.6629
 -6.6622  -6.6621  -6.6616  -6.6611  -6.6607  -1.6513  -1.4783  -1.4131
 -1.4080  -1.3748  -1.2483  -1.1911  -1.1706  -1.1442  -1.0861  -1.0530
 -1.0451  -1.0365  -0.9983  -0.9913  -0.9779  -0.9556  -0.9465  -0.9394
 -0.8908  -0.8794  -0.8428  -0.8112  -0.7975  -0.7868  -0.7773  -0.7608
 -0.7533  -0.7287  -0.7236  -0.7168  -0.6985  -0.6918  -0.6838  -0.6810
 -0.6770  -0.6645  -0.6553  -0.6485  -0.6253  -0.6154  -0.6142  -0.6137
 -0.6096  -0.6039  -0.5831  -0.5711  -0.5659  -0.5585  -0.5549  -0.5500
 -0.5358  -0.5254  -0.5205  -0.5182  -0.5113  -0.5062  -0.5045  -0.4939
 -0.4886  -0.4814  -0.4738  -0.4695  -0.4659  -0.4605  -0.4519  -0.4228
 -0.3866  -0.3821  -0.3619  -0.3474  -0.3229  -0.2882  -0.2403

          Ground-State Mulliken Net Atomic Charges

     Atom                 Charge (a.u.)
  ----------------------------------------
      1 C                    -0.204348
      2 C                    -0.251861
      3 S                    -0.031938
      4 C                    -0.030073
      5 H                     0.194742
      6 C                    -0.021677
      7 C                     0.219439
      8 C                     0.246406
      9 C                    -0.051307
     10 C                     0.002683
     11 O                    -0.333425
     12 O                    -0.343056
     13 C                    -0.085360
     14 H                     0.120092
     15 H                     0.089548
     16 H                     0.092272
     17 C                    -0.088560
     18 H                     0.124939
     19 H                     0.092439
     20 H                     0.091714
     21 C                    -0.311726
     22 S                    -0.043903
     23 C                     0.032328
     24 H                     0.178368
     25 H                     0.203678
     26 C                    -0.148696
     27 S                     0.133014
     28 C                    -0.126424
     29 C                     0.020130
     30 C                    -0.044660
     31 C                     0.311527
     32 C                    -0.098471
     33 S                     0.085081
     34 C                     0.458770
     35 O                    -0.434938
     36 O                    -0.296073
     37 F                    -0.210465
     38 C                    -0.054562
     39 H                     0.118067
     40 H                     0.086363
     41 H                     0.085924
     42 H                     0.224002
  ----------------------------------------
  Sum of atomic charges =     0.000000

                    Cartesian Multipole Moments
 -----------------------------------------------------------------
    Charge (ESU x 10^10)
                -0.0000
    Dipole Moment (Debye)
         X       5.5026      Y       3.9933      Z       1.6214
       Tot       6.9895
    Quadrupole Moments (Debye-Ang)
        XX    -180.9945     XY      10.8457     YY    -186.2845
        XZ     -20.3023     YZ      -4.2045     ZZ    -180.6532

 Total job time:  311.05s(wall), 10125.00s(cpu)
        *  Thank you very much for using Q-Chem.  Have a nice day.  *
