 Q-Chem 5.4, Q-Chem, Inc., Pleasanton, CA (2021)
 Q-Chem 5.4.0 for Intel X86 EM64T Linux

User input:
--------------------------------------------------------------
$molecule
0 1
C	0.255459	-8.519741	0.093711
C	-0.799036	-7.635967	-0.083869
S	1.789425	-7.651740	0.345260
C	-0.418360	-6.261894	-0.018411
H	-1.834294	-7.954738	-0.259169
C	0.987769	-6.079985	0.229701
C	1.555260	-4.798382	0.302697
C	-1.294992	-5.153542	-0.196459
C	-0.726408	-3.869626	-0.127651
C	0.680716	-3.688927	0.123544
O	-2.601852	-5.481075	-0.396706
O	2.868193	-4.479871	0.502673
C	3.691495	-5.356026	1.262918
H	4.614080	-4.790496	1.494604
H	3.974195	-6.268513	0.693738
H	3.199559	-5.658187	2.212720
C	-3.490743	-4.546999	-0.997016
H	-4.416630	-5.107564	-1.226691
H	-3.073934	-4.131473	-1.939526
H	-3.746794	-3.712085	-0.309214
C	1.058247	-2.314326	0.186133
S	-1.527599	-2.295487	-0.256010
C	-0.000000	-1.435180	-0.000000
H	2.092285	-1.993211	0.363896
H	0.250435	-9.615985	0.090328
C	0.000000	0.000000	0.000000
S	0.382139	0.814215	1.510732
C	1.046923	2.242395	0.727629
C	0.383804	0.823142	-1.064665
C	0.969360	2.082453	-0.678287
C	0.357247	0.762277	-2.486150
C	0.891671	1.908660	-3.106916
S	1.415865	3.040689	-1.965735
C	1.003453	2.137318	-4.559972
O	0.611644	1.290019	-5.350277
O	1.548687	3.298916	-5.004375
F	-0.110054	-0.249117	-3.246290
C	1.709479	3.619721	-6.334976
H	2.177001	4.620902	-6.370268
H	0.737443	3.643380	-6.875609
H	2.359363	2.886384	-6.861878
H	1.435800	3.076190	1.321510
$end

$rem
JOBTYPE		SP
EXCHANGE	HF
CORRELATION	pRIMP2
BASIS		cc-pvtz
METHOD		rimp2
AUX_BASIS	rimp2-cc-pvtz
SOLVENT_METHOD	PCM
PURECART	11111
SYMMETRY	false
MEM_TOTAL	110000
SCF_CONVERGENCE = 6
THRESH=10
GUI = 2
$end

$solvent
dielectric 4.90
$end
--------------------------------------------------------------

             Standard Nuclear Orientation (Angstroms)
    I     Atom           X                Y                Z
 ----------------------------------------------------------------
    1      C       0.2554590000    -8.5197410000     0.0937110000
    2      C      -0.7990360000    -7.6359670000    -0.0838690000
    3      S       1.7894250000    -7.6517400000     0.3452600000
    4      C      -0.4183600000    -6.2618940000    -0.0184110000
    5      H      -1.8342940000    -7.9547380000    -0.2591690000
    6      C       0.9877690000    -6.0799850000     0.2297010000
    7      C       1.5552600000    -4.7983820000     0.3026970000
    8      C      -1.2949920000    -5.1535420000    -0.1964590000
    9      C      -0.7264080000    -3.8696260000    -0.1276510000
   10      C       0.6807160000    -3.6889270000     0.1235440000
   11      O      -2.6018520000    -5.4810750000    -0.3967060000
   12      O       2.8681930000    -4.4798710000     0.5026730000
   13      C       3.6914950000    -5.3560260000     1.2629180000
   14      H       4.6140800000    -4.7904960000     1.4946040000
   15      H       3.9741950000    -6.2685130000     0.6937380000
   16      H       3.1995590000    -5.6581870000     2.2127200000
   17      C      -3.4907430000    -4.5469990000    -0.9970160000
   18      H      -4.4166300000    -5.1075640000    -1.2266910000
   19      H      -3.0739340000    -4.1314730000    -1.9395260000
   20      H      -3.7467940000    -3.7120850000    -0.3092140000
   21      C       1.0582470000    -2.3143260000     0.1861330000
   22      S      -1.5275990000    -2.2954870000    -0.2560100000
   23      C       0.0000000000    -1.4351800000     0.0000000000
   24      H       2.0922850000    -1.9932110000     0.3638960000
   25      H       0.2504350000    -9.6159850000     0.0903280000
   26      C       0.0000000000     0.0000000000     0.0000000000
   27      S       0.3821390000     0.8142150000     1.5107320000
   28      C       1.0469230000     2.2423950000     0.7276290000
   29      C       0.3838040000     0.8231420000    -1.0646650000
   30      C       0.9693600000     2.0824530000    -0.6782870000
   31      C       0.3572470000     0.7622770000    -2.4861500000
   32      C       0.8916710000     1.9086600000    -3.1069160000
   33      S       1.4158650000     3.0406890000    -1.9657350000
   34      C       1.0034530000     2.1373180000    -4.5599720000
   35      O       0.6116440000     1.2900190000    -5.3502770000
   36      O       1.5486870000     3.2989160000    -5.0043750000
   37      F      -0.1100540000    -0.2491170000    -3.2462900000
   38      C       1.7094790000     3.6197210000    -6.3349760000
   39      H       2.1770010000     4.6209020000    -6.3702680000
   40      H       0.7374430000     3.6433800000    -6.8756090000
   41      H       2.3593630000     2.8863840000    -6.8618780000
   42      H       1.4358000000     3.0761900000     1.3215100000
 ----------------------------------------------------------------

   10   -2754.2837994125      9.20e-07  Convergence criterion met
 Total energy in the final basis set =    -2754.2837994125
        RIMP2         total energy =     -2759.3404134995 a.u.

                    Orbital Energies (a.u.)
 --------------------------------------------------------------

 Alpha MOs
 -- Occupied --
-92.0165 -91.9961 -91.9872 -91.9859 -26.3338 -20.6125 -20.5917 -20.5913
-20.5511 -11.4112 -11.3766 -11.3184 -11.3176 -11.3027 -11.2996 -11.2989
-11.2962 -11.2931 -11.2887 -11.2862 -11.2861 -11.2849 -11.2849 -11.2835
-11.2794 -11.2602 -11.2584 -11.2572 -11.2496  -9.0146  -9.0000  -8.9876
 -8.9859  -6.6953  -6.6947  -6.6942  -6.6813  -6.6806  -6.6793  -6.6685
 -6.6678  -6.6669  -6.6669  -6.6662  -6.6654  -1.6467  -1.4724  -1.4158
 -1.4140  -1.3678  -1.2342  -1.1951  -1.1679  -1.1420  -1.0834  -1.0513
 -1.0479  -1.0282  -1.0012  -0.9927  -0.9717  -0.9605  -0.9499  -0.9385
 -0.8948  -0.8699  -0.8489  -0.8052  -0.7905  -0.7876  -0.7745  -0.7681
 -0.7573  -0.7321  -0.7179  -0.7151  -0.7008  -0.6892  -0.6825  -0.6789
 -0.6718  -0.6603  -0.6582  -0.6523  -0.6301  -0.6197  -0.6163  -0.6070
 -0.6022  -0.5961  -0.5839  -0.5754  -0.5706  -0.5661  -0.5538  -0.5527
 -0.5308  -0.5266  -0.5235  -0.5158  -0.5137  -0.5076  -0.5013  -0.4926
 -0.4908  -0.4854  -0.4750  -0.4658  -0.4619  -0.4616  -0.4598  -0.4058
 -0.3999  -0.3865  -0.3586  -0.3462  -0.3135  -0.2913  -0.2579

          Ground-State Mulliken Net Atomic Charges

     Atom                 Charge (a.u.)
  ----------------------------------------
      1 C                    -0.188832
      2 C                    -0.254126
      3 S                    -0.022975
      4 C                    -0.015551
      5 H                     0.196376
      6 C                    -0.029139
      7 C                     0.241932
      8 C                     0.244413
      9 C                    -0.052104
     10 C                    -0.019096
     11 O                    -0.333659
     12 O                    -0.340295
     13 C                    -0.085567
     14 H                     0.122325
     15 H                     0.091216
     16 H                     0.093731
     17 C                    -0.086203
     18 H                     0.124383
     19 H                     0.095627
     20 H                     0.089163
     21 C                    -0.210112
     22 S                     0.000975
     23 C                    -0.034984
     24 H                     0.199611
     25 H                     0.206331
     26 C                    -0.048443
     27 S                     0.122075
     28 C                    -0.226274
     29 C                    -0.095801
     30 C                    -0.002622
     31 C                     0.374437
     32 C                    -0.151948
     33 S                     0.044750
     34 C                     0.458877
     35 O                    -0.447793
     36 O                    -0.297660
     37 F                    -0.209808
     38 C                    -0.054843
     39 H                     0.116662
     40 H                     0.084714
     41 H                     0.084753
     42 H                     0.215488
  ----------------------------------------
  Sum of atomic charges =     0.000000

                    Cartesian Multipole Moments
 -----------------------------------------------------------------
    Charge (ESU x 10^10)
                -0.0000
    Dipole Moment (Debye)
         X       1.5650      Y       1.8385      Z       3.3886
       Tot       4.1607
    Quadrupole Moments (Debye-Ang)
        XX    -177.6752     XY       6.2731     YY    -162.5995
        XZ       4.4244     YZ     -11.3906     ZZ    -201.9114

 Total job time:  297.93s(wall), 9282.87s(cpu)
        *  Thank you very much for using Q-Chem.  Have a nice day.  *
