 Q-Chem 5.4, Q-Chem, Inc., Pleasanton, CA (2021)
 Q-Chem 5.4.0 for Intel X86 EM64T Linux

User input:
--------------------------------------------------------------
$molecule
0 1
C	0.047927	-8.519741	-0.267851
C	0.056157	-7.635967	0.801461
S	0.029285	-7.651740	-1.822194
C	0.054516	-6.261894	0.415201
H	0.063290	-7.954738	1.851431
C	0.054687	-6.079985	-1.012650
C	0.028030	-4.798382	-1.584194
C	0.031399	-5.153542	1.309433
C	0.000427	-3.869626	0.737539
C	0.003462	-3.688927	-0.691828
O	0.061128	-5.481075	2.631211
O	-0.003021	-4.479871	-2.911907
C	0.602710	-5.356026	-3.854716
H	0.670671	-4.790496	-4.803517
H	-0.006913	-6.268513	-4.034285
H	1.623507	-5.658187	-3.535185
C	-0.375708	-4.546999	3.610841
H	-0.441115	-5.107564	4.562544
H	-1.376277	-4.131473	3.364029
H	0.346107	-3.712085	3.743566
C	-0.000458	-2.314326	-1.074491
S	0.013144	-2.295487	1.548848
C	0.000000	-1.435180	0.000000
H	-0.004953	-1.993211	-2.123688
H	0.045468	-9.615985	-0.262315
C	0.000000	0.000000	0.000000
S	0.780044	0.447780	1.510732
C	2.143774	1.236372	0.727629
C	0.786529	0.454137	-1.064665
C	1.988499	1.149844	-0.678287
C	0.729864	0.419512	-2.486150
C	1.825177	1.052041	-3.106916
S	2.903877	1.678680	-1.965735
C	2.047896	1.175232	-4.559972
O	1.240953	0.705897	-5.350277
O	3.160791	1.814024	-5.004375
F	-0.233039	-0.140940	-3.246290
C	3.476510	1.984585	-6.334976
H	4.433735	2.536545	-6.370268
H	2.693835	2.561503	-6.875609
H	3.588239	1.011113	-6.861878
H	2.940569	1.696327	1.321510
$end

$rem
JOBTYPE		SP
EXCHANGE	HF
CORRELATION	pRIMP2
BASIS		cc-pvtz
METHOD		rimp2
AUX_BASIS	rimp2-cc-pvtz
SOLVENT_METHOD	PCM
PURECART	11111
SYMMETRY	false
MEM_TOTAL	110000
SCF_CONVERGENCE = 6
THRESH=10
GUI = 2
$end

$solvent
dielectric 4.90
$end
--------------------------------------------------------------

             Standard Nuclear Orientation (Angstroms)
    I     Atom           X                Y                Z
 ----------------------------------------------------------------
    1      C       0.0479270000    -8.5197410000    -0.2678510000
    2      C       0.0561570000    -7.6359670000     0.8014610000
    3      S       0.0292850000    -7.6517400000    -1.8221940000
    4      C       0.0545160000    -6.2618940000     0.4152010000
    5      H       0.0632900000    -7.9547380000     1.8514310000
    6      C       0.0546870000    -6.0799850000    -1.0126500000
    7      C       0.0280300000    -4.7983820000    -1.5841940000
    8      C       0.0313990000    -5.1535420000     1.3094330000
    9      C       0.0004270000    -3.8696260000     0.7375390000
   10      C       0.0034620000    -3.6889270000    -0.6918280000
   11      O       0.0611280000    -5.4810750000     2.6312110000
   12      O      -0.0030210000    -4.4798710000    -2.9119070000
   13      C       0.6027100000    -5.3560260000    -3.8547160000
   14      H       0.6706710000    -4.7904960000    -4.8035170000
   15      H      -0.0069130000    -6.2685130000    -4.0342850000
   16      H       1.6235070000    -5.6581870000    -3.5351850000
   17      C      -0.3757080000    -4.5469990000     3.6108410000
   18      H      -0.4411150000    -5.1075640000     4.5625440000
   19      H      -1.3762770000    -4.1314730000     3.3640290000
   20      H       0.3461070000    -3.7120850000     3.7435660000
   21      C      -0.0004580000    -2.3143260000    -1.0744910000
   22      S       0.0131440000    -2.2954870000     1.5488480000
   23      C       0.0000000000    -1.4351800000     0.0000000000
   24      H      -0.0049530000    -1.9932110000    -2.1236880000
   25      H       0.0454680000    -9.6159850000    -0.2623150000
   26      C       0.0000000000     0.0000000000     0.0000000000
   27      S       0.7800440000     0.4477800000     1.5107320000
   28      C       2.1437740000     1.2363720000     0.7276290000
   29      C       0.7865290000     0.4541370000    -1.0646650000
   30      C       1.9884990000     1.1498440000    -0.6782870000
   31      C       0.7298640000     0.4195120000    -2.4861500000
   32      C       1.8251770000     1.0520410000    -3.1069160000
   33      S       2.9038770000     1.6786800000    -1.9657350000
   34      C       2.0478960000     1.1752320000    -4.5599720000
   35      O       1.2409530000     0.7058970000    -5.3502770000
   36      O       3.1607910000     1.8140240000    -5.0043750000
   37      F      -0.2330390000    -0.1409400000    -3.2462900000
   38      C       3.4765100000     1.9845850000    -6.3349760000
   39      H       4.4337350000     2.5365450000    -6.3702680000
   40      H       2.6938350000     2.5615030000    -6.8756090000
   41      H       3.5882390000     1.0111130000    -6.8618780000
   42      H       2.9405690000     1.6963270000     1.3215100000
 ----------------------------------------------------------------

   11   -2754.2241712425      7.42e-07  Convergence criterion met
 Total energy in the final basis set =    -2754.2241712425
        RIMP2         total energy =     -2759.2998963713 a.u.

                    Orbital Energies (a.u.)
 --------------------------------------------------------------

 Alpha MOs
 -- Occupied --
-92.0186 -92.0105 -91.9824 -91.9816 -26.3380 -20.6174 -20.5900 -20.5847
-20.5594 -11.4185 -11.3775 -11.3308 -11.3167 -11.3154 -11.3068 -11.3041
-11.2990 -11.2965 -11.2913 -11.2858 -11.2821 -11.2793 -11.2778 -11.2755
-11.2727 -11.2556 -11.2497 -11.2463 -11.2316  -9.0182  -9.0138  -8.9837
 -8.9816  -6.6987  -6.6978  -6.6977  -6.6949  -6.6943  -6.6931  -6.6647
 -6.6639  -6.6629  -6.6625  -6.6619  -6.6611  -1.6522  -1.4778  -1.4138
 -1.4076  -1.3742  -1.2473  -1.1920  -1.1715  -1.1441  -1.0848  -1.0540
 -1.0459  -1.0354  -0.9978  -0.9925  -0.9780  -0.9570  -0.9472  -0.9373
 -0.8936  -0.8777  -0.8438  -0.8031  -0.8011  -0.7873  -0.7744  -0.7676
 -0.7531  -0.7308  -0.7242  -0.7176  -0.6981  -0.6945  -0.6836  -0.6814
 -0.6750  -0.6629  -0.6560  -0.6483  -0.6252  -0.6158  -0.6139  -0.6128
 -0.6082  -0.6036  -0.5853  -0.5728  -0.5644  -0.5615  -0.5545  -0.5423
 -0.5358  -0.5296  -0.5193  -0.5189  -0.5166  -0.5094  -0.5032  -0.4962
 -0.4887  -0.4805  -0.4710  -0.4688  -0.4653  -0.4571  -0.4539  -0.4253
 -0.3940  -0.3785  -0.3577  -0.3465  -0.3249  -0.2869  -0.2420

          Ground-State Mulliken Net Atomic Charges

     Atom                 Charge (a.u.)
  ----------------------------------------
      1 C                    -0.202537
      2 C                    -0.253641
      3 S                    -0.030131
      4 C                    -0.027943
      5 H                     0.194558
      6 C                    -0.022771
      7 C                     0.230174
      8 C                     0.247949
      9 C                    -0.054602
     10 C                    -0.003777
     11 O                    -0.333557
     12 O                    -0.342990
     13 C                    -0.086376
     14 H                     0.122152
     15 H                     0.090271
     16 H                     0.091202
     17 C                    -0.087965
     18 H                     0.125088
     19 H                     0.094474
     20 H                     0.088456
     21 C                    -0.304063
     22 S                    -0.047926
     23 C                     0.001802
     24 H                     0.202500
     25 H                     0.203835
     26 C                    -0.129631
     27 S                     0.126651
     28 C                    -0.137192
     29 C                     0.009579
     30 C                    -0.040989
     31 C                     0.317319
     32 C                    -0.100683
     33 S                     0.086600
     34 C                     0.458743
     35 O                    -0.435523
     36 O                    -0.296288
     37 F                    -0.212823
     38 C                    -0.054548
     39 H                     0.117888
     40 H                     0.086193
     41 H                     0.086032
     42 H                     0.224491
  ----------------------------------------
  Sum of atomic charges =     0.000000

                    Cartesian Multipole Moments
 -----------------------------------------------------------------
    Charge (ESU x 10^10)
                -0.0000
    Dipole Moment (Debye)
         X       5.8386      Y       3.8010      Z       3.0216
       Tot       7.5938
    Quadrupole Moments (Debye-Ang)
        XX    -183.5397     XY       8.4990     YY    -184.8620
        XZ     -17.0400     YZ      -8.1767     ZZ    -178.3976

 Total job time:  310.50s(wall), 10172.15s(cpu)
        *  Thank you very much for using Q-Chem.  Have a nice day.  *
