 Q-Chem 5.4, Q-Chem, Inc., Pleasanton, CA (2021)
 Q-Chem 5.4.0 for Intel X86 EM64T Linux

User input:
--------------------------------------------------------------
$molecule
0 1
C	0.255929	-8.519741	-0.092419
C	-0.666007	-7.635967	0.449364
S	1.592708	-7.651740	-0.885736
C	-0.332317	-6.261894	0.254813
H	-1.571741	-7.954738	0.980526
C	0.904324	-6.079985	-0.458965
C	1.385968	-4.798382	-0.767823
C	-1.118303	-5.153542	0.681909
C	-0.638514	-3.869626	0.369139
C	0.600871	-3.688927	-0.342916
O	-2.248132	-5.481075	1.368544
O	2.520275	-4.479871	-1.458570
C	3.639637	-5.356026	-1.405396
H	4.495304	-4.790496	-1.820940
H	3.490336	-6.268513	-2.023129
H	3.873314	-5.658187	-0.361595
C	-3.314934	-4.546999	1.480048
H	-4.171837	-5.107564	1.899255
H	-3.601473	-4.131473	0.490123
H	-3.068969	-3.712085	2.171521
C	0.930308	-2.314326	-0.537642
S	-1.334769	-2.295487	0.785807
C	0.000000	-1.435180	0.000000
H	1.836691	-1.993211	-1.066134
H	0.249906	-9.615985	-0.091781
C	0.000000	0.000000	0.000000
S	0.234946	0.868203	1.510732
C	0.641630	2.390125	0.727629
C	0.235036	0.877284	-1.064665
C	0.593019	2.219143	-0.678287
C	0.219452	0.812732	-2.486150
C	0.546689	2.034501	-3.106916
S	0.866345	3.240357	-1.965735
C	0.617067	2.279095	-4.559972
O	0.378342	1.376631	-5.350277
O	0.952308	3.517725	-5.004375
F	-0.065123	-0.264443	-3.246290
C	1.054950	3.861577	-6.334976
H	1.341516	4.928732	-6.370268
H	0.093573	3.716085	-6.875609
H	1.822303	3.252232	-6.861878
H	0.879812	3.278780	1.321510
$end

$rem
JOBTYPE		SP
EXCHANGE	HF
CORRELATION	pRIMP2
BASIS		cc-pvtz
METHOD		rimp2
AUX_BASIS	rimp2-cc-pvtz
SOLVENT_METHOD	PCM
PURECART	11111
SYMMETRY	false
MEM_TOTAL	110000
SCF_CONVERGENCE = 6
THRESH=10
GUI = 2
$end

$solvent
dielectric 4.90
$end
--------------------------------------------------------------

             Standard Nuclear Orientation (Angstroms)
    I     Atom           X                Y                Z
 ----------------------------------------------------------------
    1      C       0.2559290000    -8.5197410000    -0.0924190000
    2      C      -0.6660070000    -7.6359670000     0.4493640000
    3      S       1.5927080000    -7.6517400000    -0.8857360000
    4      C      -0.3323170000    -6.2618940000     0.2548130000
    5      H      -1.5717410000    -7.9547380000     0.9805260000
    6      C       0.9043240000    -6.0799850000    -0.4589650000
    7      C       1.3859680000    -4.7983820000    -0.7678230000
    8      C      -1.1183030000    -5.1535420000     0.6819090000
    9      C      -0.6385140000    -3.8696260000     0.3691390000
   10      C       0.6008710000    -3.6889270000    -0.3429160000
   11      O      -2.2481320000    -5.4810750000     1.3685440000
   12      O       2.5202750000    -4.4798710000    -1.4585700000
   13      C       3.6396370000    -5.3560260000    -1.4053960000
   14      H       4.4953040000    -4.7904960000    -1.8209400000
   15      H       3.4903360000    -6.2685130000    -2.0231290000
   16      H       3.8733140000    -5.6581870000    -0.3615950000
   17      C      -3.3149340000    -4.5469990000     1.4800480000
   18      H      -4.1718370000    -5.1075640000     1.8992550000
   19      H      -3.6014730000    -4.1314730000     0.4901230000
   20      H      -3.0689690000    -3.7120850000     2.1715210000
   21      C       0.9303080000    -2.3143260000    -0.5376420000
   22      S      -1.3347690000    -2.2954870000     0.7858070000
   23      C       0.0000000000    -1.4351800000     0.0000000000
   24      H       1.8366910000    -1.9932110000    -1.0661340000
   25      H       0.2499060000    -9.6159850000    -0.0917810000
   26      C       0.0000000000     0.0000000000     0.0000000000
   27      S       0.2349460000     0.8682030000     1.5107320000
   28      C       0.6416300000     2.3901250000     0.7276290000
   29      C       0.2350360000     0.8772840000    -1.0646650000
   30      C       0.5930190000     2.2191430000    -0.6782870000
   31      C       0.2194520000     0.8127320000    -2.4861500000
   32      C       0.5466890000     2.0345010000    -3.1069160000
   33      S       0.8663450000     3.2403570000    -1.9657350000
   34      C       0.6170670000     2.2790950000    -4.5599720000
   35      O       0.3783420000     1.3766310000    -5.3502770000
   36      O       0.9523080000     3.5177250000    -5.0043750000
   37      F      -0.0651230000    -0.2644430000    -3.2462900000
   38      C       1.0549500000     3.8615770000    -6.3349760000
   39      H       1.3415160000     4.9287320000    -6.3702680000
   40      H       0.0935730000     3.7160850000    -6.8756090000
   41      H       1.8223030000     3.2522320000    -6.8618780000
   42      H       0.8798120000     3.2787800000     1.3215100000
 ----------------------------------------------------------------

   10   -2754.2932136062      8.33e-07  Convergence criterion met
 Total energy in the final basis set =    -2754.2932136062
        RIMP2         total energy =     -2759.3469315765 a.u.

                    Orbital Energies (a.u.)
 --------------------------------------------------------------

 Alpha MOs
 -- Occupied --
-92.0158 -91.9948 -91.9898 -91.9866 -26.3337 -20.6120 -20.5926 -20.5916
-20.5500 -11.4103 -11.3772 -11.3195 -11.3187 -11.3087 -11.2974 -11.2966
-11.2951 -11.2944 -11.2884 -11.2872 -11.2867 -11.2861 -11.2843 -11.2830
-11.2802 -11.2614 -11.2596 -11.2590 -11.2501  -9.0141  -8.9988  -8.9903
 -8.9865  -6.6948  -6.6942  -6.6938  -6.6801  -6.6794  -6.6781  -6.6712
 -6.6705  -6.6696  -6.6675  -6.6668  -6.6660  -1.6466  -1.4717  -1.4167
 -1.4144  -1.3670  -1.2335  -1.1963  -1.1686  -1.1420  -1.0842  -1.0523
 -1.0476  -1.0276  -1.0025  -0.9934  -0.9714  -0.9613  -0.9506  -0.9386
 -0.8961  -0.8692  -0.8504  -0.8037  -0.7924  -0.7880  -0.7730  -0.7701
 -0.7580  -0.7328  -0.7182  -0.7149  -0.7017  -0.6888  -0.6832  -0.6784
 -0.6711  -0.6608  -0.6591  -0.6527  -0.6301  -0.6202  -0.6169  -0.6064
 -0.6023  -0.5946  -0.5831  -0.5768  -0.5712  -0.5647  -0.5529  -0.5517
 -0.5351  -0.5262  -0.5250  -0.5164  -0.5144  -0.5079  -0.5021  -0.4962
 -0.4896  -0.4843  -0.4757  -0.4686  -0.4616  -0.4612  -0.4603  -0.4116
 -0.3980  -0.3874  -0.3589  -0.3486  -0.3190  -0.2873  -0.2560

          Ground-State Mulliken Net Atomic Charges

     Atom                 Charge (a.u.)
  ----------------------------------------
      1 C                    -0.187404
      2 C                    -0.254130
      3 S                    -0.021042
      4 C                    -0.014693
      5 H                     0.196429
      6 C                    -0.028968
      7 C                     0.243597
      8 C                     0.242638
      9 C                    -0.050313
     10 C                    -0.025168
     11 O                    -0.333388
     12 O                    -0.339255
     13 C                    -0.085646
     14 H                     0.122887
     15 H                     0.091230
     16 H                     0.093789
     17 C                    -0.086694
     18 H                     0.125029
     19 H                     0.095350
     20 H                     0.089209
     21 C                    -0.204703
     22 S                    -0.005856
     23 C                    -0.015061
     24 H                     0.199267
     25 H                     0.206633
     26 C                    -0.051901
     27 S                     0.117986
     28 C                    -0.235954
     29 C                    -0.111000
     30 C                    -0.006453
     31 C                     0.400154
     32 C                    -0.154015
     33 S                     0.038768
     34 C                     0.461236
     35 O                    -0.449805
     36 O                    -0.297913
     37 F                    -0.211050
     38 C                    -0.054964
     39 H                     0.116530
     40 H                     0.084692
     41 H                     0.084474
     42 H                     0.215475
  ----------------------------------------
  Sum of atomic charges =     0.000000

                    Cartesian Multipole Moments
 -----------------------------------------------------------------
    Charge (ESU x 10^10)
                 0.0000
    Dipole Moment (Debye)
         X       1.0648      Y       1.4783      Z       3.4687
       Tot       3.9181
    Quadrupole Moments (Debye-Ang)
        XX    -177.4100     XY       2.8310     YY    -159.1496
        XZ      -9.8484     YZ     -11.3269     ZZ    -204.5274

 Total job time:  298.78s(wall), 9700.54s(cpu)
        *  Thank you very much for using Q-Chem.  Have a nice day.  *
