 Q-Chem 5.4, Q-Chem, Inc., Pleasanton, CA (2021)
 Q-Chem 5.4.0 for Intel X86 EM64T Linux

User input:
--------------------------------------------------------------
$molecule
0 1
C	-0.174379	-8.519741	-0.208886
C	0.650052	-7.635967	0.472151
S	-1.377058	-7.651740	-1.193717
C	0.353105	-6.261894	0.225125
H	1.458961	-7.954738	1.141594
C	-0.740583	-6.079985	-0.692811
C	-1.195546	-4.798382	-1.039773
C	1.023267	-5.153542	0.817634
C	0.565262	-3.869626	0.473754
C	-0.527745	-3.688927	-0.447350
O	2.054917	-5.481075	1.644483
O	-2.232592	-4.479871	-1.869424
C	-2.565470	-5.356026	-2.939466
H	-3.248608	-4.790496	-3.601405
H	-3.094885	-6.268513	-2.587892
H	-1.664539	-5.658187	-3.516052
C	2.524564	-4.546999	2.608813
H	3.211568	-5.107564	3.270661
H	1.692342	-4.131473	3.216646
H	3.090211	-3.712085	2.141184
C	-0.823402	-2.314326	-0.690319
S	1.194935	-2.295487	0.985511
C	-0.000000	-1.435180	-0.000000
H	-1.630024	-1.993211	-1.361286
H	-0.171719	-9.615985	-0.203444
C	0.000000	0.000000	0.000000
S	0.579852	0.687566	1.510732
C	1.591625	1.895024	0.727629
C	0.583771	0.695758	-1.064665
C	1.475308	1.760606	-0.678287
C	0.542366	0.643841	-2.486150
C	1.355286	1.612843	-3.106916
S	2.154609	2.570627	-1.965735
C	1.522440	1.804778	-4.559972
O	0.924684	1.087757	-5.350277
O	2.349739	2.785679	-5.004375
F	-0.170780	-0.212144	-3.246290
C	2.588082	3.053936	-6.334976
H	3.298799	3.899999	-6.370268
H	1.655291	3.328371	-6.875609
H	3.026021	2.177385	-6.861878
H	2.183053	2.599759	1.321510
$end

$rem
JOBTYPE		SP
EXCHANGE	HF
CORRELATION	pRIMP2
BASIS		cc-pvtz
METHOD		rimp2
AUX_BASIS	rimp2-cc-pvtz
SOLVENT_METHOD	PCM
PURECART	11111
SYMMETRY	false
MEM_TOTAL	110000
SCF_CONVERGENCE = 6
THRESH=10
GUI = 2
$end

$solvent
dielectric 4.90
$end
--------------------------------------------------------------

             Standard Nuclear Orientation (Angstroms)
    I     Atom           X                Y                Z
 ----------------------------------------------------------------
    1      C      -0.1743790000    -8.5197410000    -0.2088860000
    2      C       0.6500520000    -7.6359670000     0.4721510000
    3      S      -1.3770580000    -7.6517400000    -1.1937170000
    4      C       0.3531050000    -6.2618940000     0.2251250000
    5      H       1.4589610000    -7.9547380000     1.1415940000
    6      C      -0.7405830000    -6.0799850000    -0.6928110000
    7      C      -1.1955460000    -4.7983820000    -1.0397730000
    8      C       1.0232670000    -5.1535420000     0.8176340000
    9      C       0.5652620000    -3.8696260000     0.4737540000
   10      C      -0.5277450000    -3.6889270000    -0.4473500000
   11      O       2.0549170000    -5.4810750000     1.6444830000
   12      O      -2.2325920000    -4.4798710000    -1.8694240000
   13      C      -2.5654700000    -5.3560260000    -2.9394660000
   14      H      -3.2486080000    -4.7904960000    -3.6014050000
   15      H      -3.0948850000    -6.2685130000    -2.5878920000
   16      H      -1.6645390000    -5.6581870000    -3.5160520000
   17      C       2.5245640000    -4.5469990000     2.6088130000
   18      H       3.2115680000    -5.1075640000     3.2706610000
   19      H       1.6923420000    -4.1314730000     3.2166460000
   20      H       3.0902110000    -3.7120850000     2.1411840000
   21      C      -0.8234020000    -2.3143260000    -0.6903190000
   22      S       1.1949350000    -2.2954870000     0.9855110000
   23      C       0.0000000000    -1.4351800000     0.0000000000
   24      H      -1.6300240000    -1.9932110000    -1.3612860000
   25      H      -0.1717190000    -9.6159850000    -0.2034440000
   26      C       0.0000000000     0.0000000000     0.0000000000
   27      S       0.5798520000     0.6875660000     1.5107320000
   28      C       1.5916250000     1.8950240000     0.7276290000
   29      C       0.5837710000     0.6957580000    -1.0646650000
   30      C       1.4753080000     1.7606060000    -0.6782870000
   31      C       0.5423660000     0.6438410000    -2.4861500000
   32      C       1.3552860000     1.6128430000    -3.1069160000
   33      S       2.1546090000     2.5706270000    -1.9657350000
   34      C       1.5224400000     1.8047780000    -4.5599720000
   35      O       0.9246840000     1.0877570000    -5.3502770000
   36      O       2.3497390000     2.7856790000    -5.0043750000
   37      F      -0.1707800000    -0.2121440000    -3.2462900000
   38      C       2.5880820000     3.0539360000    -6.3349760000
   39      H       3.2987990000     3.8999990000    -6.3702680000
   40      H       1.6552910000     3.3283710000    -6.8756090000
   41      H       3.0260210000     2.1773850000    -6.8618780000
   42      H       2.1830530000     2.5997590000     1.3215100000
 ----------------------------------------------------------------

   10   -2754.2669337954      9.99e-07  Convergence criterion met
 Total energy in the final basis set =    -2754.2669337954
        RIMP2         total energy =     -2759.3306766458 a.u.

                    Orbital Energies (a.u.)
 --------------------------------------------------------------

 Alpha MOs
 -- Occupied --
-92.0161 -91.9997 -91.9888 -91.9845 -26.3344 -20.6138 -20.5917 -20.5886
-20.5533 -11.4131 -11.3769 -11.3179 -11.3138 -11.3077 -11.3040 -11.2989
-11.2964 -11.2930 -11.2894 -11.2894 -11.2870 -11.2841 -11.2822 -11.2819
-11.2774 -11.2584 -11.2558 -11.2486 -11.2469  -9.0150  -9.0036  -8.9892
 -8.9845  -6.6956  -6.6949  -6.6946  -6.6848  -6.6841  -6.6828  -6.6701
 -6.6694  -6.6684  -6.6654  -6.6648  -6.6640  -1.6474  -1.4738  -1.4157
 -1.4115  -1.3695  -1.2381  -1.1938  -1.1689  -1.1434  -1.0829  -1.0501
 -1.0494  -1.0304  -1.0002  -0.9921  -0.9738  -0.9596  -0.9493  -0.9376
 -0.8947  -0.8725  -0.8472  -0.8028  -0.7943  -0.7867  -0.7728  -0.7694
 -0.7554  -0.7303  -0.7190  -0.7159  -0.6997  -0.6909  -0.6806  -0.6800
 -0.6740  -0.6607  -0.6580  -0.6508  -0.6285  -0.6183  -0.6157  -0.6088
 -0.6030  -0.5990  -0.5878  -0.5757  -0.5660  -0.5618  -0.5542  -0.5426
 -0.5369  -0.5279  -0.5211  -0.5155  -0.5145  -0.5087  -0.5032  -0.4932
 -0.4875  -0.4863  -0.4726  -0.4669  -0.4633  -0.4626  -0.4601  -0.4162
 -0.3953  -0.3838  -0.3551  -0.3508  -0.3178  -0.2897  -0.2507

          Ground-State Mulliken Net Atomic Charges

     Atom                 Charge (a.u.)
  ----------------------------------------
      1 C                    -0.192791
      2 C                    -0.254493
      3 S                    -0.024833
      4 C                    -0.018319
      5 H                     0.195617
      6 C                    -0.026011
      7 C                     0.235006
      8 C                     0.241100
      9 C                    -0.050864
     10 C                    -0.019542
     11 O                    -0.333271
     12 O                    -0.340261
     13 C                    -0.085393
     14 H                     0.122461
     15 H                     0.090023
     16 H                     0.093568
     17 C                    -0.087110
     18 H                     0.125140
     19 H                     0.094224
     20 H                     0.089055
     21 C                    -0.249616
     22 S                    -0.011072
     23 C                    -0.031494
     24 H                     0.192534
     25 H                     0.205556
     26 C                    -0.043295
     27 S                     0.106589
     28 C                    -0.194400
     29 C                    -0.047830
     30 C                    -0.016540
     31 C                     0.358602
     32 C                    -0.132708
     33 S                     0.054629
     34 C                     0.456906
     35 O                    -0.444683
     36 O                    -0.297427
     37 F                    -0.209367
     38 C                    -0.054642
     39 H                     0.117000
     40 H                     0.085049
     41 H                     0.085065
     42 H                     0.217837
  ----------------------------------------
  Sum of atomic charges =     0.000000

                    Cartesian Multipole Moments
 -----------------------------------------------------------------
    Charge (ESU x 10^10)
                 0.0000
    Dipole Moment (Debye)
         X       3.3472      Y       2.4322      Z       2.9331
       Tot       5.0717
    Quadrupole Moments (Debye-Ang)
        XX    -185.6235     XY       7.6417     YY    -169.6971
        XZ       4.3593     YZ      -7.8239     ZZ    -188.4366

 Total job time:  276.78s(wall), 9162.69s(cpu)
        *  Thank you very much for using Q-Chem.  Have a nice day.  *
