 Q-Chem 5.4, Q-Chem, Inc., Pleasanton, CA (2021)
 Q-Chem 5.4.0 for Intel X86 EM64T Linux

User input:
--------------------------------------------------------------
$molecule
0 1
C	-0.174379	-8.519741	-0.208886
C	0.650052	-7.635967	0.472151
S	-1.377058	-7.651740	-1.193717
C	0.353105	-6.261894	0.225125
H	1.458961	-7.954738	1.141594
C	-0.740583	-6.079985	-0.692811
C	-1.195546	-4.798382	-1.039773
C	1.023267	-5.153542	0.817634
C	0.565262	-3.869626	0.473754
C	-0.527745	-3.688927	-0.447350
O	2.054917	-5.481075	1.644483
O	-2.232592	-4.479871	-1.869424
C	-2.565470	-5.356026	-2.939466
H	-3.248608	-4.790496	-3.601405
H	-3.094885	-6.268513	-2.587892
H	-1.664539	-5.658187	-3.516052
C	2.524564	-4.546999	2.608813
H	3.211568	-5.107564	3.270661
H	1.692342	-4.131473	3.216646
H	3.090211	-3.712085	2.141184
C	-0.823402	-2.314326	-0.690319
S	1.194935	-2.295487	0.985511
C	-0.000000	-1.435180	-0.000000
H	-1.630024	-1.993211	-1.361286
H	-0.171719	-9.615985	-0.203444
C	0.000000	0.000000	0.000000
S	0.690437	0.576430	1.510732
C	1.896512	1.589852	0.727629
C	0.695720	0.583817	-1.064665
C	1.758621	1.477674	-0.678287
C	0.645928	0.539878	-2.486150
C	1.614763	1.352997	-3.106916
S	2.568261	2.157430	-1.965735
C	1.812707	1.512991	-4.559972
O	1.099523	0.910662	-5.350277
O	2.797769	2.335330	-5.004375
F	-0.205024	-0.179266	-3.246290
C	3.079074	2.558124	-6.334976
H	3.925910	3.267919	-6.370268
H	2.208109	2.990367	-6.875609
H	3.358147	1.618843	-6.861878
H	2.601331	2.181180	1.321510
$end

$rem
JOBTYPE		SP
EXCHANGE	HF
CORRELATION	pRIMP2
BASIS		cc-pvtz
METHOD		rimp2
AUX_BASIS	rimp2-cc-pvtz
SOLVENT_METHOD	PCM
PURECART	11111
SYMMETRY	false
MEM_TOTAL	110000
SCF_CONVERGENCE = 6
THRESH=10
GUI = 2
$end

$solvent
dielectric 4.90
$end
--------------------------------------------------------------

             Standard Nuclear Orientation (Angstroms)
    I     Atom           X                Y                Z
 ----------------------------------------------------------------
    1      C      -0.1743790000    -8.5197410000    -0.2088860000
    2      C       0.6500520000    -7.6359670000     0.4721510000
    3      S      -1.3770580000    -7.6517400000    -1.1937170000
    4      C       0.3531050000    -6.2618940000     0.2251250000
    5      H       1.4589610000    -7.9547380000     1.1415940000
    6      C      -0.7405830000    -6.0799850000    -0.6928110000
    7      C      -1.1955460000    -4.7983820000    -1.0397730000
    8      C       1.0232670000    -5.1535420000     0.8176340000
    9      C       0.5652620000    -3.8696260000     0.4737540000
   10      C      -0.5277450000    -3.6889270000    -0.4473500000
   11      O       2.0549170000    -5.4810750000     1.6444830000
   12      O      -2.2325920000    -4.4798710000    -1.8694240000
   13      C      -2.5654700000    -5.3560260000    -2.9394660000
   14      H      -3.2486080000    -4.7904960000    -3.6014050000
   15      H      -3.0948850000    -6.2685130000    -2.5878920000
   16      H      -1.6645390000    -5.6581870000    -3.5160520000
   17      C       2.5245640000    -4.5469990000     2.6088130000
   18      H       3.2115680000    -5.1075640000     3.2706610000
   19      H       1.6923420000    -4.1314730000     3.2166460000
   20      H       3.0902110000    -3.7120850000     2.1411840000
   21      C      -0.8234020000    -2.3143260000    -0.6903190000
   22      S       1.1949350000    -2.2954870000     0.9855110000
   23      C       0.0000000000    -1.4351800000     0.0000000000
   24      H      -1.6300240000    -1.9932110000    -1.3612860000
   25      H      -0.1717190000    -9.6159850000    -0.2034440000
   26      C       0.0000000000     0.0000000000     0.0000000000
   27      S       0.6904370000     0.5764300000     1.5107320000
   28      C       1.8965120000     1.5898520000     0.7276290000
   29      C       0.6957200000     0.5838170000    -1.0646650000
   30      C       1.7586210000     1.4776740000    -0.6782870000
   31      C       0.6459280000     0.5398780000    -2.4861500000
   32      C       1.6147630000     1.3529970000    -3.1069160000
   33      S       2.5682610000     2.1574300000    -1.9657350000
   34      C       1.8127070000     1.5129910000    -4.5599720000
   35      O       1.0995230000     0.9106620000    -5.3502770000
   36      O       2.7977690000     2.3353300000    -5.0043750000
   37      F      -0.2050240000    -0.1792660000    -3.2462900000
   38      C       3.0790740000     2.5581240000    -6.3349760000
   39      H       3.9259100000     3.2679190000    -6.3702680000
   40      H       2.2081090000     2.9903670000    -6.8756090000
   41      H       3.3581470000     1.6188430000    -6.8618780000
   42      H       2.6013310000     2.1811800000     1.3215100000
 ----------------------------------------------------------------

   11   -2754.2487432984      5.42e-07  Convergence criterion met
 Total energy in the final basis set =    -2754.2487432984
        RIMP2         total energy =     -2759.3178035108 a.u.

                    Orbital Energies (a.u.)
 --------------------------------------------------------------

 Alpha MOs
 -- Occupied --
-92.0162 -92.0032 -91.9867 -91.9833 -26.3346 -20.6151 -20.5911 -20.5871
-20.5555 -11.4150 -11.3768 -11.3168 -11.3167 -11.3111 -11.3085 -11.3004
-11.2939 -11.2926 -11.2900 -11.2867 -11.2867 -11.2833 -11.2810 -11.2787
-11.2757 -11.2567 -11.2535 -11.2477 -11.2408  -9.0154  -9.0068  -8.9873
 -8.9832  -6.6960  -6.6952  -6.6950  -6.6880  -6.6874  -6.6861  -6.6682
 -6.6674  -6.6664  -6.6642  -6.6636  -6.6627  -1.6476  -1.4752  -1.4150
 -1.4099  -1.3712  -1.2415  -1.1925  -1.1696  -1.1436  -1.0827  -1.0512
 -1.0480  -1.0321  -0.9987  -0.9916  -0.9753  -0.9586  -0.9485  -0.9372
 -0.8937  -0.8745  -0.8451  -0.8025  -0.7955  -0.7860  -0.7744  -0.7679
 -0.7540  -0.7292  -0.7191  -0.7162  -0.6988  -0.6922  -0.6811  -0.6790
 -0.6758  -0.6611  -0.6572  -0.6498  -0.6279  -0.6172  -0.6150  -0.6106
 -0.6049  -0.6002  -0.5887  -0.5747  -0.5647  -0.5623  -0.5531  -0.5400
 -0.5364  -0.5288  -0.5202  -0.5154  -0.5135  -0.5093  -0.5026  -0.4925
 -0.4886  -0.4855  -0.4727  -0.4652  -0.4639  -0.4617  -0.4586  -0.4163
 -0.3943  -0.3820  -0.3533  -0.3509  -0.3165  -0.2914  -0.2491

          Ground-State Mulliken Net Atomic Charges

     Atom                 Charge (a.u.)
  ----------------------------------------
      1 C                    -0.196161
      2 C                    -0.254060
      3 S                    -0.026969
      4 C                    -0.021857
      5 H                     0.195147
      6 C                    -0.025389
      7 C                     0.231805
      8 C                     0.241376
      9 C                    -0.053711
     10 C                    -0.013723
     11 O                    -0.333435
     12 O                    -0.340671
     13 C                    -0.085336
     14 H                     0.121991
     15 H                     0.089689
     16 H                     0.092966
     17 C                    -0.087117
     18 H                     0.125025
     19 H                     0.094032
     20 H                     0.088618
     21 C                    -0.270128
     22 S                    -0.017763
     23 C                    -0.016733
     24 H                     0.190889
     25 H                     0.204911
     26 C                    -0.084525
     27 S                     0.113358
     28 C                    -0.173800
     29 C                    -0.027703
     30 C                    -0.021270
     31 C                     0.357485
     32 C                    -0.124116
     33 S                     0.064099
     34 C                     0.456836
     35 O                    -0.440994
     36 O                    -0.296965
     37 F                    -0.209225
     38 C                    -0.054611
     39 H                     0.117287
     40 H                     0.085386
     41 H                     0.085529
     42 H                     0.219834
  ----------------------------------------
  Sum of atomic charges =     0.000000

                    Cartesian Multipole Moments
 -----------------------------------------------------------------
    Charge (ESU x 10^10)
                 0.0000
    Dipole Moment (Debye)
         X       4.5421      Y       2.9111      Z       2.8284
       Tot       6.0914
    Quadrupole Moments (Debye-Ang)
        XX    -181.8077     XY       8.1103     YY    -175.9833
        XZ       2.2950     YZ      -7.0899     ZZ    -187.1488

 Total job time:  303.06s(wall), 9859.88s(cpu)
        *  Thank you very much for using Q-Chem.  Have a nice day.  *
