 Q-Chem 5.4, Q-Chem, Inc., Pleasanton, CA (2021)
 Q-Chem 5.4.0 for Intel X86 EM64T Linux

User input:
--------------------------------------------------------------
$molecule
0 1
C	0.046574	-8.519741	0.268090
C	-0.326886	-7.635967	-0.733920
S	0.595708	-7.651740	1.722318
C	-0.193236	-6.261894	-0.371516
H	-0.692700	-7.954738	-1.718130
C	0.294958	-6.079985	0.970283
C	0.515487	-4.798382	1.498243
C	-0.477358	-5.153542	-1.219725
C	-0.252655	-3.869626	-0.692914
C	0.233366	-3.688927	0.651289
O	-0.957369	-5.481075	-2.451623
O	0.998769	-4.479871	2.735264
C	0.752029	-5.356026	3.828387
H	1.012675	-4.790496	4.743213
H	1.386303	-6.268513	3.788623
H	-0.316492	-5.658187	3.877260
C	-0.881930	-4.546999	-3.521580
H	-1.145969	-5.107564	-4.438260
H	0.142712	-4.131473	-3.631868
H	-1.605610	-3.712085	-3.399425
C	0.367928	-2.314326	1.009535
S	-0.542088	-2.295487	-1.450945
C	0.000000	-1.435180	0.000000
H	0.730999	-1.993211	1.993920
H	0.046991	-9.615985	0.262047
C	0.000000	0.000000	0.000000
S	0.780044	0.447780	1.510732
C	2.143774	1.236372	0.727629
C	0.786529	0.454137	-1.064665
C	1.988499	1.149844	-0.678287
C	0.729864	0.419512	-2.486150
C	1.825177	1.052041	-3.106916
S	2.903877	1.678680	-1.965735
C	2.047896	1.175232	-4.559972
O	1.240953	0.705897	-5.350277
O	3.160791	1.814024	-5.004375
F	-0.233039	-0.140940	-3.246290
C	3.476510	1.984585	-6.334976
H	4.433735	2.536545	-6.370268
H	2.693835	2.561503	-6.875609
H	3.588239	1.011113	-6.861878
H	2.940569	1.696327	1.321510
$end

$rem
JOBTYPE		SP
EXCHANGE	HF
CORRELATION	pRIMP2
BASIS		cc-pvtz
METHOD		rimp2
AUX_BASIS	rimp2-cc-pvtz
SOLVENT_METHOD	PCM
PURECART	11111
SYMMETRY	false
MEM_TOTAL	110000
SCF_CONVERGENCE = 6
THRESH=10
GUI = 2
$end

$solvent
dielectric 4.90
$end
--------------------------------------------------------------

             Standard Nuclear Orientation (Angstroms)
    I     Atom           X                Y                Z
 ----------------------------------------------------------------
    1      C       0.0465740000    -8.5197410000     0.2680900000
    2      C      -0.3268860000    -7.6359670000    -0.7339200000
    3      S       0.5957080000    -7.6517400000     1.7223180000
    4      C      -0.1932360000    -6.2618940000    -0.3715160000
    5      H      -0.6927000000    -7.9547380000    -1.7181300000
    6      C       0.2949580000    -6.0799850000     0.9702830000
    7      C       0.5154870000    -4.7983820000     1.4982430000
    8      C      -0.4773580000    -5.1535420000    -1.2197250000
    9      C      -0.2526550000    -3.8696260000    -0.6929140000
   10      C       0.2333660000    -3.6889270000     0.6512890000
   11      O      -0.9573690000    -5.4810750000    -2.4516230000
   12      O       0.9987690000    -4.4798710000     2.7352640000
   13      C       0.7520290000    -5.3560260000     3.8283870000
   14      H       1.0126750000    -4.7904960000     4.7432130000
   15      H       1.3863030000    -6.2685130000     3.7886230000
   16      H      -0.3164920000    -5.6581870000     3.8772600000
   17      C      -0.8819300000    -4.5469990000    -3.5215800000
   18      H      -1.1459690000    -5.1075640000    -4.4382600000
   19      H       0.1427120000    -4.1314730000    -3.6318680000
   20      H      -1.6056100000    -3.7120850000    -3.3994250000
   21      C       0.3679280000    -2.3143260000     1.0095350000
   22      S      -0.5420880000    -2.2954870000    -1.4509450000
   23      C       0.0000000000    -1.4351800000     0.0000000000
   24      H       0.7309990000    -1.9932110000     1.9939200000
   25      H       0.0469910000    -9.6159850000     0.2620470000
   26      C       0.0000000000     0.0000000000     0.0000000000
   27      S       0.7800440000     0.4477800000     1.5107320000
   28      C       2.1437740000     1.2363720000     0.7276290000
   29      C       0.7865290000     0.4541370000    -1.0646650000
   30      C       1.9884990000     1.1498440000    -0.6782870000
   31      C       0.7298640000     0.4195120000    -2.4861500000
   32      C       1.8251770000     1.0520410000    -3.1069160000
   33      S       2.9038770000     1.6786800000    -1.9657350000
   34      C       2.0478960000     1.1752320000    -4.5599720000
   35      O       1.2409530000     0.7058970000    -5.3502770000
   36      O       3.1607910000     1.8140240000    -5.0043750000
   37      F      -0.2330390000    -0.1409400000    -3.2462900000
   38      C       3.4765100000     1.9845850000    -6.3349760000
   39      H       4.4337350000     2.5365450000    -6.3702680000
   40      H       2.6938350000     2.5615030000    -6.8756090000
   41      H       3.5882390000     1.0111130000    -6.8618780000
   42      H       2.9405690000     1.6963270000     1.3215100000
 ----------------------------------------------------------------

   11   -2754.2272270638      7.10e-07  Convergence criterion met
 Total energy in the final basis set =    -2754.2272270638
        RIMP2         total energy =     -2759.3010056390 a.u.

                    Orbital Energies (a.u.)
 --------------------------------------------------------------

 Alpha MOs
 -- Occupied --
-92.0155 -92.0089 -91.9820 -91.9784 -26.3358 -20.6172 -20.5889 -20.5860
-20.5589 -11.4181 -11.3778 -11.3304 -11.3154 -11.3149 -11.3076 -11.3033
-11.3006 -11.2980 -11.2912 -11.2839 -11.2835 -11.2795 -11.2782 -11.2755
-11.2731 -11.2550 -11.2501 -11.2465 -11.2341  -9.0149  -9.0123  -8.9819
 -8.9798  -6.6955  -6.6946  -6.6945  -6.6934  -6.6928  -6.6915  -6.6629
 -6.6623  -6.6615  -6.6607  -6.6600  -6.6590  -1.6506  -1.4775  -1.4128
 -1.4089  -1.3739  -1.2469  -1.1916  -1.1708  -1.1439  -1.0850  -1.0530
 -1.0458  -1.0356  -0.9977  -0.9918  -0.9774  -0.9558  -0.9466  -0.9389
 -0.8910  -0.8784  -0.8429  -0.8113  -0.7969  -0.7867  -0.7766  -0.7614
 -0.7531  -0.7279  -0.7223  -0.7176  -0.6984  -0.6918  -0.6830  -0.6805
 -0.6780  -0.6635  -0.6552  -0.6490  -0.6261  -0.6159  -0.6141  -0.6132
 -0.6080  -0.6051  -0.5875  -0.5705  -0.5650  -0.5630  -0.5530  -0.5507
 -0.5347  -0.5241  -0.5191  -0.5162  -0.5113  -0.5079  -0.5035  -0.4928
 -0.4868  -0.4823  -0.4707  -0.4679  -0.4652  -0.4601  -0.4483  -0.4255
 -0.3877  -0.3810  -0.3553  -0.3512  -0.3232  -0.2880  -0.2448

          Ground-State Mulliken Net Atomic Charges

     Atom                 Charge (a.u.)
  ----------------------------------------
      1 C                    -0.201808
      2 C                    -0.252658
      3 S                    -0.031174
      4 C                    -0.025253
      5 H                     0.194988
      6 C                    -0.020860
      7 C                     0.222961
      8 C                     0.244726
      9 C                    -0.047874
     10 C                    -0.001766
     11 O                    -0.334045
     12 O                    -0.343472
     13 C                    -0.085621
     14 H                     0.120200
     15 H                     0.090026
     16 H                     0.092446
     17 C                    -0.086869
     18 H                     0.124143
     19 H                     0.093663
     20 H                     0.090296
     21 C                    -0.312606
     22 S                    -0.043036
     23 C                     0.014388
     24 H                     0.185508
     25 H                     0.204004
     26 C                    -0.137763
     27 S                     0.121019
     28 C                    -0.134713
     29 C                     0.016795
     30 C                    -0.043485
     31 C                     0.332869
     32 C                    -0.100048
     33 S                     0.080363
     34 C                     0.456141
     35 O                    -0.436487
     36 O                    -0.296212
     37 F                    -0.207913
     38 C                    -0.054638
     39 H                     0.117889
     40 H                     0.086013
     41 H                     0.085916
     42 H                     0.223947
  ----------------------------------------
  Sum of atomic charges =     0.000000

                    Cartesian Multipole Moments
 -----------------------------------------------------------------
    Charge (ESU x 10^10)
                 0.0000
    Dipole Moment (Debye)
         X       5.0366      Y       3.6187      Z       1.8694
       Tot       6.4774
    Quadrupole Moments (Debye-Ang)
        XX    -185.0793     XY      11.5072     YY    -184.5771
        XZ      -8.8022     YZ      -5.2224     ZZ    -177.4589

 Total job time:  321.64s(wall), 10964.26s(cpu)
        *  Thank you very much for using Q-Chem.  Have a nice day.  *
