 Q-Chem 5.4, Q-Chem, Inc., Pleasanton, CA (2021)
 Q-Chem 5.4.0 for Intel X86 EM64T Linux

User input:
--------------------------------------------------------------
$molecule
0 1
C	-0.135457	-8.519741	-0.235993
C	0.558188	-7.635967	0.577858
S	-1.148850	-7.651740	-1.414705
C	0.308648	-6.261894	0.283020
H	1.238560	-7.954738	1.377597
C	-0.609026	-6.079985	-0.810887
C	-0.996828	-4.798382	-1.231581
C	0.865740	-5.153542	0.982901
C	0.474408	-3.869626	0.564713
C	-0.442046	-3.688927	-0.532196
O	1.738137	-5.481075	1.976332
O	-1.874052	-4.479871	-2.228709
C	-2.016062	-5.356026	-3.340298
H	-2.573877	-4.790496	-4.110807
H	-2.598484	-6.268513	-3.085998
H	-1.028695	-5.658187	-3.751679
C	2.033195	-4.546999	3.007565
H	2.594833	-5.107564	3.778655
H	1.108067	-4.131473	3.461650
H	2.671451	-3.712085	2.645264
C	-0.691020	-2.314326	-0.822814
S	1.005649	-2.295487	1.178037
C	0.000000	-1.435180	0.000000
H	-1.368875	-1.993211	-1.623656
H	-0.133782	-9.615985	-0.230172
C	0.000000	0.000000	0.000000
S	0.780044	0.447780	1.510732
C	2.143774	1.236372	0.727629
C	0.786529	0.454137	-1.064665
C	1.988499	1.149844	-0.678287
C	0.729864	0.419512	-2.486150
C	1.825177	1.052041	-3.106916
S	2.903877	1.678680	-1.965735
C	2.047896	1.175232	-4.559972
O	1.240953	0.705897	-5.350277
O	3.160791	1.814024	-5.004375
F	-0.233039	-0.140940	-3.246290
C	3.476510	1.984585	-6.334976
H	4.433735	2.536545	-6.370268
H	2.693835	2.561503	-6.875609
H	3.588239	1.011113	-6.861878
H	2.940569	1.696327	1.321510
$end

$rem
JOBTYPE		SP
EXCHANGE	HF
CORRELATION	pRIMP2
BASIS		cc-pvtz
METHOD		rimp2
AUX_BASIS	rimp2-cc-pvtz
SOLVENT_METHOD	PCM
PURECART	11111
SYMMETRY	false
MEM_TOTAL	110000
SCF_CONVERGENCE = 6
THRESH=10
GUI = 2
$end

$solvent
dielectric 4.90
$end
--------------------------------------------------------------

             Standard Nuclear Orientation (Angstroms)
    I     Atom           X                Y                Z
 ----------------------------------------------------------------
    1      C      -0.1354570000    -8.5197410000    -0.2359930000
    2      C       0.5581880000    -7.6359670000     0.5778580000
    3      S      -1.1488500000    -7.6517400000    -1.4147050000
    4      C       0.3086480000    -6.2618940000     0.2830200000
    5      H       1.2385600000    -7.9547380000     1.3775970000
    6      C      -0.6090260000    -6.0799850000    -0.8108870000
    7      C      -0.9968280000    -4.7983820000    -1.2315810000
    8      C       0.8657400000    -5.1535420000     0.9829010000
    9      C       0.4744080000    -3.8696260000     0.5647130000
   10      C      -0.4420460000    -3.6889270000    -0.5321960000
   11      O       1.7381370000    -5.4810750000     1.9763320000
   12      O      -1.8740520000    -4.4798710000    -2.2287090000
   13      C      -2.0160620000    -5.3560260000    -3.3402980000
   14      H      -2.5738770000    -4.7904960000    -4.1108070000
   15      H      -2.5984840000    -6.2685130000    -3.0859980000
   16      H      -1.0286950000    -5.6581870000    -3.7516790000
   17      C       2.0331950000    -4.5469990000     3.0075650000
   18      H       2.5948330000    -5.1075640000     3.7786550000
   19      H       1.1080670000    -4.1314730000     3.4616500000
   20      H       2.6714510000    -3.7120850000     2.6452640000
   21      C      -0.6910200000    -2.3143260000    -0.8228140000
   22      S       1.0056490000    -2.2954870000     1.1780370000
   23      C       0.0000000000    -1.4351800000     0.0000000000
   24      H      -1.3688750000    -1.9932110000    -1.6236560000
   25      H      -0.1337820000    -9.6159850000    -0.2301720000
   26      C       0.0000000000     0.0000000000     0.0000000000
   27      S       0.7800440000     0.4477800000     1.5107320000
   28      C       2.1437740000     1.2363720000     0.7276290000
   29      C       0.7865290000     0.4541370000    -1.0646650000
   30      C       1.9884990000     1.1498440000    -0.6782870000
   31      C       0.7298640000     0.4195120000    -2.4861500000
   32      C       1.8251770000     1.0520410000    -3.1069160000
   33      S       2.9038770000     1.6786800000    -1.9657350000
   34      C       2.0478960000     1.1752320000    -4.5599720000
   35      O       1.2409530000     0.7058970000    -5.3502770000
   36      O       3.1607910000     1.8140240000    -5.0043750000
   37      F      -0.2330390000    -0.1409400000    -3.2462900000
   38      C       3.4765100000     1.9845850000    -6.3349760000
   39      H       4.4337350000     2.5365450000    -6.3702680000
   40      H       2.6938350000     2.5615030000    -6.8756090000
   41      H       3.5882390000     1.0111130000    -6.8618780000
   42      H       2.9405690000     1.6963270000     1.3215100000
 ----------------------------------------------------------------

   11   -2754.2243779596      6.51e-07  Convergence criterion met
 Total energy in the final basis set =    -2754.2243779596
        RIMP2         total energy =     -2759.2997197179 a.u.

                    Orbital Energies (a.u.)
 --------------------------------------------------------------

 Alpha MOs
 -- Occupied --
-92.0170 -92.0083 -91.9856 -91.9814 -26.3354 -20.6168 -20.5903 -20.5845
-20.5585 -11.4176 -11.3771 -11.3282 -11.3153 -11.3148 -11.3067 -11.3032
-11.3005 -11.2940 -11.2910 -11.2863 -11.2819 -11.2793 -11.2771 -11.2732
-11.2729 -11.2550 -11.2498 -11.2463 -11.2315  -9.0167  -9.0117  -8.9863
 -8.9814  -6.6972  -6.6963  -6.6962  -6.6928  -6.6922  -6.6910  -6.6672
 -6.6663  -6.6653  -6.6624  -6.6618  -6.6609  -1.6485  -1.4771  -1.4140
 -1.4075  -1.3734  -1.2468  -1.1918  -1.1714  -1.1433  -1.0834  -1.0533
 -1.0459  -1.0345  -0.9975  -0.9916  -0.9775  -0.9572  -0.9472  -0.9366
 -0.8932  -0.8772  -0.8432  -0.8022  -0.7982  -0.7862  -0.7752  -0.7662
 -0.7525  -0.7277  -0.7200  -0.7169  -0.6978  -0.6938  -0.6826  -0.6795
 -0.6762  -0.6625  -0.6562  -0.6482  -0.6271  -0.6159  -0.6137  -0.6131
 -0.6082  -0.6010  -0.5900  -0.5736  -0.5634  -0.5626  -0.5516  -0.5389
 -0.5356  -0.5311  -0.5187  -0.5178  -0.5128  -0.5095  -0.5020  -0.4930
 -0.4894  -0.4826  -0.4728  -0.4665  -0.4649  -0.4591  -0.4534  -0.4189
 -0.3932  -0.3791  -0.3523  -0.3493  -0.3194  -0.2919  -0.2447

          Ground-State Mulliken Net Atomic Charges

     Atom                 Charge (a.u.)
  ----------------------------------------
      1 C                    -0.201844
      2 C                    -0.253334
      3 S                    -0.030025
      4 C                    -0.027852
      5 H                     0.194416
      6 C                    -0.024173
      7 C                     0.225104
      8 C                     0.243372
      9 C                    -0.059869
     10 C                    -0.001374
     11 O                    -0.333431
     12 O                    -0.341454
     13 C                    -0.085309
     14 H                     0.121443
     15 H                     0.089364
     16 H                     0.091759
     17 C                    -0.087396
     18 H                     0.125052
     19 H                     0.093918
     20 H                     0.088059
     21 C                    -0.312191
     22 S                    -0.028356
     23 C                     0.017169
     24 H                     0.190108
     25 H                     0.203851
     26 C                    -0.131800
     27 S                     0.118078
     28 C                    -0.149103
     29 C                    -0.002233
     30 C                    -0.026975
     31 C                     0.355227
     32 C                    -0.109870
     33 S                     0.077304
     34 C                     0.456330
     35 O                    -0.436274
     36 O                    -0.296334
     37 F                    -0.209590
     38 C                    -0.054680
     39 H                     0.117711
     40 H                     0.085966
     41 H                     0.086059
     42 H                     0.223176
  ----------------------------------------
  Sum of atomic charges =     0.000000

                    Cartesian Multipole Moments
 -----------------------------------------------------------------
    Charge (ESU x 10^10)
                -0.0000
    Dipole Moment (Debye)
         X       5.9810      Y       3.5698      Z       2.8033
       Tot       7.5083
    Quadrupole Moments (Debye-Ang)
        XX    -180.9760     XY       7.3635     YY    -184.6629
        XZ      -1.8435     YZ      -6.7773     ZZ    -181.7409

 Total job time:  307.85s(wall), 10007.08s(cpu)
        *  Thank you very much for using Q-Chem.  Have a nice day.  *
