 Q-Chem 5.4, Q-Chem, Inc., Pleasanton, CA (2021)
 Q-Chem 5.4.0 for Intel X86 EM64T Linux

User input:
--------------------------------------------------------------
$molecule
0 1
C	0.000687	-8.519741	-0.272104
C	0.194476	-7.635967	0.779533
S	-0.287581	-7.651740	-1.799596
C	0.125787	-6.261894	0.399427
H	0.383826	-7.954738	1.812314
C	-0.121989	-6.079985	-1.006762
C	-0.247488	-4.798382	-1.564994
C	0.258303	-5.153542	1.284087
C	0.128493	-3.869626	0.726260
C	-0.116725	-3.688927	-0.681918
O	0.517104	-5.481075	2.580622
O	-0.508622	-4.479871	-2.867144
C	-0.075811	-5.356026	-3.900814
H	-0.173640	-4.790496	-4.847002
H	-0.707354	-6.268513	-3.971794
H	0.984963	-5.658187	-3.763397
C	0.257016	-4.546999	3.621225
H	0.357864	-5.107564	4.569828
H	-0.771211	-4.131473	3.551910
H	0.990913	-3.712085	3.626592
C	-0.187034	-2.314326	-1.058088
S	0.281899	-2.295487	1.523035
C	-0.000000	-1.435180	-0.000000
H	-0.373653	-1.993211	-2.090565
H	-0.000773	-9.615985	-0.266226
C	0.000000	0.000000	0.000000
S	0.690437	0.576430	1.510732
C	1.896512	1.589852	0.727629
C	0.695720	0.583817	-1.064665
C	1.758621	1.477674	-0.678287
C	0.645928	0.539878	-2.486150
C	1.614763	1.352997	-3.106916
S	2.568261	2.157430	-1.965735
C	1.812707	1.512991	-4.559972
O	1.099523	0.910662	-5.350277
O	2.797769	2.335330	-5.004375
F	-0.205024	-0.179266	-3.246290
C	3.079074	2.558124	-6.334976
H	3.925910	3.267919	-6.370268
H	2.208109	2.990367	-6.875609
H	3.358147	1.618843	-6.861878
H	2.601331	2.181180	1.321510
$end

$rem
JOBTYPE		SP
EXCHANGE	HF
CORRELATION	pRIMP2
BASIS		cc-pvtz
METHOD		rimp2
AUX_BASIS	rimp2-cc-pvtz
SOLVENT_METHOD	PCM
PURECART	11111
SYMMETRY	false
MEM_TOTAL	110000
SCF_CONVERGENCE = 6
THRESH=10
GUI = 2
$end

$solvent
dielectric 4.90
$end
--------------------------------------------------------------

             Standard Nuclear Orientation (Angstroms)
    I     Atom           X                Y                Z
 ----------------------------------------------------------------
    1      C       0.0006870000    -8.5197410000    -0.2721040000
    2      C       0.1944760000    -7.6359670000     0.7795330000
    3      S      -0.2875810000    -7.6517400000    -1.7995960000
    4      C       0.1257870000    -6.2618940000     0.3994270000
    5      H       0.3838260000    -7.9547380000     1.8123140000
    6      C      -0.1219890000    -6.0799850000    -1.0067620000
    7      C      -0.2474880000    -4.7983820000    -1.5649940000
    8      C       0.2583030000    -5.1535420000     1.2840870000
    9      C       0.1284930000    -3.8696260000     0.7262600000
   10      C      -0.1167250000    -3.6889270000    -0.6819180000
   11      O       0.5171040000    -5.4810750000     2.5806220000
   12      O      -0.5086220000    -4.4798710000    -2.8671440000
   13      C      -0.0758110000    -5.3560260000    -3.9008140000
   14      H      -0.1736400000    -4.7904960000    -4.8470020000
   15      H      -0.7073540000    -6.2685130000    -3.9717940000
   16      H       0.9849630000    -5.6581870000    -3.7633970000
   17      C       0.2570160000    -4.5469990000     3.6212250000
   18      H       0.3578640000    -5.1075640000     4.5698280000
   19      H      -0.7712110000    -4.1314730000     3.5519100000
   20      H       0.9909130000    -3.7120850000     3.6265920000
   21      C      -0.1870340000    -2.3143260000    -1.0580880000
   22      S       0.2818990000    -2.2954870000     1.5230350000
   23      C       0.0000000000    -1.4351800000     0.0000000000
   24      H      -0.3736530000    -1.9932110000    -2.0905650000
   25      H      -0.0007730000    -9.6159850000    -0.2662260000
   26      C       0.0000000000     0.0000000000     0.0000000000
   27      S       0.6904370000     0.5764300000     1.5107320000
   28      C       1.8965120000     1.5898520000     0.7276290000
   29      C       0.6957200000     0.5838170000    -1.0646650000
   30      C       1.7586210000     1.4776740000    -0.6782870000
   31      C       0.6459280000     0.5398780000    -2.4861500000
   32      C       1.6147630000     1.3529970000    -3.1069160000
   33      S       2.5682610000     2.1574300000    -1.9657350000
   34      C       1.8127070000     1.5129910000    -4.5599720000
   35      O       1.0995230000     0.9106620000    -5.3502770000
   36      O       2.7977690000     2.3353300000    -5.0043750000
   37      F      -0.2050240000    -0.1792660000    -3.2462900000
   38      C       3.0790740000     2.5581240000    -6.3349760000
   39      H       3.9259100000     3.2679190000    -6.3702680000
   40      H       2.2081090000     2.9903670000    -6.8756090000
   41      H       3.3581470000     1.6188430000    -6.8618780000
   42      H       2.6013310000     2.1811800000     1.3215100000
 ----------------------------------------------------------------

   11   -2754.2465627860      5.98e-07  Convergence criterion met
 Total energy in the final basis set =    -2754.2465627860
        RIMP2         total energy =     -2759.3178523059 a.u.

                    Orbital Energies (a.u.)
 --------------------------------------------------------------

 Alpha MOs
 -- Occupied --
-92.0174 -92.0055 -91.9856 -91.9828 -26.3381 -20.6158 -20.5908 -20.5862
-20.5565 -11.4160 -11.3781 -11.3185 -11.3166 -11.3108 -11.3098 -11.3023
-11.2960 -11.2941 -11.2905 -11.2897 -11.2864 -11.2827 -11.2806 -11.2780
-11.2747 -11.2570 -11.2523 -11.2473 -11.2372  -9.0167  -9.0091  -8.9866
 -8.9828  -6.6973  -6.6966  -6.6963  -6.6902  -6.6896  -6.6883  -6.6675
 -6.6667  -6.6658  -6.6638  -6.6632  -6.6623  -1.6524  -1.4760  -1.4147
 -1.4091  -1.3721  -1.2429  -1.1926  -1.1702  -1.1440  -1.0837  -1.0526
 -1.0475  -1.0333  -0.9990  -0.9923  -0.9764  -0.9579  -0.9480  -0.9375
 -0.8941  -0.8754  -0.8460  -0.8040  -0.7994  -0.7871  -0.7735  -0.7683
 -0.7542  -0.7300  -0.7238  -0.7187  -0.6985  -0.6932  -0.6827  -0.6810
 -0.6751  -0.6622  -0.6569  -0.6493  -0.6258  -0.6168  -0.6134  -0.6113
 -0.6054  -0.6021  -0.5871  -0.5735  -0.5653  -0.5612  -0.5538  -0.5419
 -0.5361  -0.5301  -0.5193  -0.5186  -0.5171  -0.5095  -0.5038  -0.4953
 -0.4884  -0.4818  -0.4721  -0.4683  -0.4643  -0.4588  -0.4562  -0.4252
 -0.3953  -0.3806  -0.3577  -0.3481  -0.3242  -0.2867  -0.2428

          Ground-State Mulliken Net Atomic Charges

     Atom                 Charge (a.u.)
  ----------------------------------------
      1 C                    -0.198667
      2 C                    -0.253702
      3 S                    -0.027445
      4 C                    -0.024397
      5 H                     0.194945
      6 C                    -0.025105
      7 C                     0.234973
      8 C                     0.245576
      9 C                    -0.052788
     10 C                    -0.008953
     11 O                    -0.333457
     12 O                    -0.341893
     13 C                    -0.086113
     14 H                     0.122746
     15 H                     0.090324
     16 H                     0.091994
     17 C                    -0.088301
     18 H                     0.125349
     19 H                     0.094510
     20 H                     0.088864
     21 C                    -0.287030
     22 S                    -0.040156
     23 C                    -0.010626
     24 H                     0.207985
     25 H                     0.204599
     26 C                    -0.070634
     27 S                     0.110904
     28 C                    -0.168834
     29 C                    -0.023690
     30 C                    -0.033845
     31 C                     0.338354
     32 C                    -0.110972
     33 S                     0.072075
     34 C                     0.456146
     35 O                    -0.440165
     36 O                    -0.296819
     37 F                    -0.211951
     38 C                    -0.054493
     39 H                     0.117532
     40 H                     0.085588
     41 H                     0.085551
     42 H                     0.222018
  ----------------------------------------
  Sum of atomic charges =     0.000000

                    Cartesian Multipole Moments
 -----------------------------------------------------------------
    Charge (ESU x 10^10)
                 0.0000
    Dipole Moment (Debye)
         X       4.5538      Y       3.3946      Z       3.0247
       Tot       6.4350
    Quadrupole Moments (Debye-Ang)
        XX    -189.7629     XY       8.4940     YY    -177.6387
        XZ     -11.2046     YZ      -8.6913     ZZ    -178.4192

 Total job time:  307.17s(wall), 10004.22s(cpu)
        *  Thank you very much for using Q-Chem.  Have a nice day.  *
