 Q-Chem 5.4, Q-Chem, Inc., Pleasanton, CA (2021)
 Q-Chem 5.4.0 for Intel X86 EM64T Linux

User input:
--------------------------------------------------------------
$molecule
0 1
C	0.272104	-8.519741	0.000687
C	-0.779533	-7.635967	0.194476
S	1.799596	-7.651740	-0.287581
C	-0.399427	-6.261894	0.125787
H	-1.812314	-7.954738	0.383826
C	1.006762	-6.079985	-0.121989
C	1.564994	-4.798382	-0.247488
C	-1.284087	-5.153542	0.258303
C	-0.726260	-3.869626	0.128493
C	0.681918	-3.688927	-0.116725
O	-2.580622	-5.481075	0.517104
O	2.867144	-4.479871	-0.508622
C	3.900814	-5.356026	-0.075811
H	4.847002	-4.790496	-0.173640
H	3.971794	-6.268513	-0.707354
H	3.763397	-5.658187	0.984963
C	-3.621225	-4.546999	0.257016
H	-4.569828	-5.107564	0.357864
H	-3.551910	-4.131473	-0.771211
H	-3.626592	-3.712085	0.990913
C	1.058088	-2.314326	-0.187034
S	-1.523035	-2.295487	0.281899
C	-0.000000	-1.435180	-0.000000
H	2.090565	-1.993211	-0.373653
H	0.266226	-9.615985	-0.000773
C	0.000000	0.000000	0.000000
S	0.158383	0.885376	1.510732
C	0.430876	2.436951	0.727629
C	0.157682	0.894430	-1.064665
C	0.397351	2.262384	-0.678287
C	0.147783	0.828765	-2.486150
C	0.367291	2.074406	-3.106916
S	0.580633	3.303533	-1.965735
C	0.416083	2.324204	-4.559972
O	0.256921	1.404367	-5.350277
O	0.642094	3.587338	-5.004375
F	-0.041828	-0.269113	-3.246290
C	0.714377	3.938827	-6.334976
H	0.906844	5.026898	-6.370268
H	-0.230661	3.710099	-6.875609
H	1.531918	3.398681	-6.861878
H	0.590699	3.342984	1.321510
$end

$rem
JOBTYPE		SP
EXCHANGE	HF
CORRELATION	pRIMP2
BASIS		cc-pvtz
METHOD		rimp2
AUX_BASIS	rimp2-cc-pvtz
SOLVENT_METHOD	PCM
PURECART	11111
SYMMETRY	false
MEM_TOTAL	110000
SCF_CONVERGENCE = 6
THRESH=10
GUI = 2
$end

$solvent
dielectric 4.90
$end
--------------------------------------------------------------

             Standard Nuclear Orientation (Angstroms)
    I     Atom           X                Y                Z
 ----------------------------------------------------------------
    1      C       0.2721040000    -8.5197410000     0.0006870000
    2      C      -0.7795330000    -7.6359670000     0.1944760000
    3      S       1.7995960000    -7.6517400000    -0.2875810000
    4      C      -0.3994270000    -6.2618940000     0.1257870000
    5      H      -1.8123140000    -7.9547380000     0.3838260000
    6      C       1.0067620000    -6.0799850000    -0.1219890000
    7      C       1.5649940000    -4.7983820000    -0.2474880000
    8      C      -1.2840870000    -5.1535420000     0.2583030000
    9      C      -0.7262600000    -3.8696260000     0.1284930000
   10      C       0.6819180000    -3.6889270000    -0.1167250000
   11      O      -2.5806220000    -5.4810750000     0.5171040000
   12      O       2.8671440000    -4.4798710000    -0.5086220000
   13      C       3.9008140000    -5.3560260000    -0.0758110000
   14      H       4.8470020000    -4.7904960000    -0.1736400000
   15      H       3.9717940000    -6.2685130000    -0.7073540000
   16      H       3.7633970000    -5.6581870000     0.9849630000
   17      C      -3.6212250000    -4.5469990000     0.2570160000
   18      H      -4.5698280000    -5.1075640000     0.3578640000
   19      H      -3.5519100000    -4.1314730000    -0.7712110000
   20      H      -3.6265920000    -3.7120850000     0.9909130000
   21      C       1.0580880000    -2.3143260000    -0.1870340000
   22      S      -1.5230350000    -2.2954870000     0.2818990000
   23      C       0.0000000000    -1.4351800000     0.0000000000
   24      H       2.0905650000    -1.9932110000    -0.3736530000
   25      H       0.2662260000    -9.6159850000    -0.0007730000
   26      C       0.0000000000     0.0000000000     0.0000000000
   27      S       0.1583830000     0.8853760000     1.5107320000
   28      C       0.4308760000     2.4369510000     0.7276290000
   29      C       0.1576820000     0.8944300000    -1.0646650000
   30      C       0.3973510000     2.2623840000    -0.6782870000
   31      C       0.1477830000     0.8287650000    -2.4861500000
   32      C       0.3672910000     2.0744060000    -3.1069160000
   33      S       0.5806330000     3.3035330000    -1.9657350000
   34      C       0.4160830000     2.3242040000    -4.5599720000
   35      O       0.2569210000     1.4043670000    -5.3502770000
   36      O       0.6420940000     3.5873380000    -5.0043750000
   37      F      -0.0418280000    -0.2691130000    -3.2462900000
   38      C       0.7143770000     3.9388270000    -6.3349760000
   39      H       0.9068440000     5.0268980000    -6.3702680000
   40      H      -0.2306610000     3.7100990000    -6.8756090000
   41      H       1.5319180000     3.3986810000    -6.8618780000
   42      H       0.5906990000     3.3429840000     1.3215100000
 ----------------------------------------------------------------

   10   -2754.2932827536      8.80e-07  Convergence criterion met
 Total energy in the final basis set =    -2754.2932827536
        RIMP2         total energy =     -2759.3460650191 a.u.

                    Orbital Energies (a.u.)
 --------------------------------------------------------------

 Alpha MOs
 -- Occupied --
-92.0159 -91.9944 -91.9895 -91.9865 -26.3336 -20.6120 -20.5924 -20.5918
-20.5500 -11.4102 -11.3770 -11.3192 -11.3188 -11.3085 -11.2974 -11.2959
-11.2942 -11.2932 -11.2883 -11.2869 -11.2865 -11.2863 -11.2841 -11.2830
-11.2803 -11.2611 -11.2596 -11.2595 -11.2501  -9.0141  -8.9984  -8.9898
 -8.9865  -6.6948  -6.6942  -6.6938  -6.6797  -6.6790  -6.6777  -6.6708
 -6.6701  -6.6691  -6.6674  -6.6668  -6.6660  -1.6465  -1.4717  -1.4165
 -1.4146  -1.3670  -1.2330  -1.1960  -1.1682  -1.1416  -1.0839  -1.0522
 -1.0472  -1.0274  -1.0023  -0.9932  -0.9711  -0.9614  -0.9505  -0.9384
 -0.8958  -0.8690  -0.8505  -0.8043  -0.7909  -0.7881  -0.7736  -0.7692
 -0.7582  -0.7328  -0.7179  -0.7148  -0.7015  -0.6887  -0.6832  -0.6783
 -0.6709  -0.6606  -0.6588  -0.6528  -0.6307  -0.6202  -0.6170  -0.6063
 -0.6019  -0.5943  -0.5825  -0.5775  -0.5711  -0.5658  -0.5539  -0.5516
 -0.5344  -0.5262  -0.5245  -0.5163  -0.5141  -0.5075  -0.5013  -0.4946
 -0.4906  -0.4841  -0.4760  -0.4680  -0.4615  -0.4611  -0.4605  -0.4064
 -0.3999  -0.3877  -0.3584  -0.3477  -0.3150  -0.2893  -0.2591

          Ground-State Mulliken Net Atomic Charges

     Atom                 Charge (a.u.)
  ----------------------------------------
      1 C                    -0.187234
      2 C                    -0.254232
      3 S                    -0.021374
      4 C                    -0.013644
      5 H                     0.196515
      6 C                    -0.028412
      7 C                     0.244226
      8 C                     0.241228
      9 C                    -0.053110
     10 C                    -0.027414
     11 O                    -0.333394
     12 O                    -0.339593
     13 C                    -0.085696
     14 H                     0.122741
     15 H                     0.091327
     16 H                     0.093879
     17 C                    -0.086436
     18 H                     0.124629
     19 H                     0.095498
     20 H                     0.089324
     21 C                    -0.203922
     22 S                     0.003327
     23 C                    -0.032182
     24 H                     0.197866
     25 H                     0.206635
     26 C                    -0.046549
     27 S                     0.119515
     28 C                    -0.237544
     29 C                    -0.096394
     30 C                    -0.006011
     31 C                     0.398716
     32 C                    -0.157908
     33 S                     0.037750
     34 C                     0.460782
     35 O                    -0.449758
     36 O                    -0.297757
     37 F                    -0.211149
     38 C                    -0.054976
     39 H                     0.116506
     40 H                     0.084603
     41 H                     0.084529
     42 H                     0.215093
  ----------------------------------------
  Sum of atomic charges =     0.000000

                    Cartesian Multipole Moments
 -----------------------------------------------------------------
    Charge (ESU x 10^10)
                -0.0000
    Dipole Moment (Debye)
         X       0.6553      Y       1.5049      Z       3.5046
       Tot       3.8699
    Quadrupole Moments (Debye-Ang)
        XX    -176.0098     XY       1.9569     YY    -158.7726
        XZ      -0.4471     YZ     -11.8977     ZZ    -206.5073

 Total job time:  294.90s(wall), 9446.60s(cpu)
        *  Thank you very much for using Q-Chem.  Have a nice day.  *
