 Q-Chem 5.4, Q-Chem, Inc., Pleasanton, CA (2021)
 Q-Chem 5.4.0 for Intel X86 EM64T Linux

User input:
--------------------------------------------------------------
$molecule
0 1
C	1.432238	-8.398629	0.267851
C	1.270668	-7.529711	-0.801461
S	1.299871	-7.540578	1.822194
C	1.033679	-6.176229	-0.415201
H	1.318997	-7.844878	-1.851431
C	1.001923	-5.997113	1.012650
C	0.805626	-4.730351	1.584194
C	0.863981	-5.080701	-1.309433
C	0.671533	-3.810912	-0.737539
C	0.637166	-3.633485	0.691828
O	0.891580	-5.408420	-2.631211
O	0.780896	-4.411287	2.911907
C	0.336511	-5.379315	3.854716
H	0.171379	-4.834178	4.803517
H	1.095324	-6.172080	4.034285
H	-0.616308	-5.854145	3.535185
C	1.159578	-4.412679	-3.610841
H	1.321333	-4.953370	-4.562544
H	2.072791	-3.829719	-3.364029
H	0.303747	-3.715791	-3.743566
C	0.402329	-2.279087	1.074491
S	0.385663	-2.262896	-1.548848
C	0.249216	-1.413377	0.000000
H	0.350996	-1.962069	2.123688
H	1.625021	-9.477792	0.262315
C	0.000000	0.000000	0.000000
S	0.002233	0.899428	1.510732
C	0.001157	2.474749	0.727629
C	-0.000030	0.908223	-1.064665
C	-0.001545	2.297013	-0.678287
C	0.001624	0.841837	-2.486150
C	0.001494	2.106670	-3.106916
S	-0.001841	3.354171	-1.965735
C	0.006168	2.361146	-4.559972
O	0.009152	1.427646	-5.350277
O	0.009405	3.644337	-5.004375
F	0.005539	-0.272288	-3.246290
C	0.019554	4.003038	-6.334976
H	0.020155	5.108000	-6.370268
H	-0.871409	3.613681	-6.875609
H	0.918470	3.613062	-6.861878
H	0.001222	3.394771	1.321510
$end

$rem
JOBTYPE		SP
EXCHANGE	HF
CORRELATION	pRIMP2
BASIS		cc-pvtz
METHOD		rimp2
AUX_BASIS	rimp2-cc-pvtz
SOLVENT_METHOD	PCM
PURECART	11111
SYMMETRY	false
MEM_TOTAL	110000
SCF_CONVERGENCE = 6
THRESH=10
GUI = 2
$end

$solvent
dielectric 4.90
$end
--------------------------------------------------------------

             Standard Nuclear Orientation (Angstroms)
    I     Atom           X                Y                Z
 ----------------------------------------------------------------
    1      C       1.4322380000    -8.3986290000     0.2678510000
    2      C       1.2706680000    -7.5297110000    -0.8014610000
    3      S       1.2998710000    -7.5405780000     1.8221940000
    4      C       1.0336790000    -6.1762290000    -0.4152010000
    5      H       1.3189970000    -7.8448780000    -1.8514310000
    6      C       1.0019230000    -5.9971130000     1.0126500000
    7      C       0.8056260000    -4.7303510000     1.5841940000
    8      C       0.8639810000    -5.0807010000    -1.3094330000
    9      C       0.6715330000    -3.8109120000    -0.7375390000
   10      C       0.6371660000    -3.6334850000     0.6918280000
   11      O       0.8915800000    -5.4084200000    -2.6312110000
   12      O       0.7808960000    -4.4112870000     2.9119070000
   13      C       0.3365110000    -5.3793150000     3.8547160000
   14      H       0.1713790000    -4.8341780000     4.8035170000
   15      H       1.0953240000    -6.1720800000     4.0342850000
   16      H      -0.6163080000    -5.8541450000     3.5351850000
   17      C       1.1595780000    -4.4126790000    -3.6108410000
   18      H       1.3213330000    -4.9533700000    -4.5625440000
   19      H       2.0727910000    -3.8297190000    -3.3640290000
   20      H       0.3037470000    -3.7157910000    -3.7435660000
   21      C       0.4023290000    -2.2790870000     1.0744910000
   22      S       0.3856630000    -2.2628960000    -1.5488480000
   23      C       0.2492160000    -1.4133770000     0.0000000000
   24      H       0.3509960000    -1.9620690000     2.1236880000
   25      H       1.6250210000    -9.4777920000     0.2623150000
   26      C       0.0000000000     0.0000000000     0.0000000000
   27      S       0.0022330000     0.8994280000     1.5107320000
   28      C       0.0011570000     2.4747490000     0.7276290000
   29      C      -0.0000300000     0.9082230000    -1.0646650000
   30      C      -0.0015450000     2.2970130000    -0.6782870000
   31      C       0.0016240000     0.8418370000    -2.4861500000
   32      C       0.0014940000     2.1066700000    -3.1069160000
   33      S      -0.0018410000     3.3541710000    -1.9657350000
   34      C       0.0061680000     2.3611460000    -4.5599720000
   35      O       0.0091520000     1.4276460000    -5.3502770000
   36      O       0.0094050000     3.6443370000    -5.0043750000
   37      F       0.0055390000    -0.2722880000    -3.2462900000
   38      C       0.0195540000     4.0030380000    -6.3349760000
   39      H       0.0201550000     5.1080000000    -6.3702680000
   40      H      -0.8714090000     3.6136810000    -6.8756090000
   41      H       0.9184700000     3.6130620000    -6.8618780000
   42      H       0.0012220000     3.3947710000     1.3215100000
 ----------------------------------------------------------------

   10   -2754.2905706770      8.52e-07  Convergence criterion met
 Total energy in the final basis set =    -2754.2905706770
        RIMP2         total energy =     -2759.3476428874 a.u.

                    Orbital Energies (a.u.)
 --------------------------------------------------------------

 Alpha MOs
 -- Occupied --
-92.0145 -91.9952 -91.9864 -91.9851 -26.3365 -20.6122 -20.5920 -20.5912
-20.5501 -11.4105 -11.3792 -11.3184 -11.3181 -11.3139 -11.2976 -11.2975
-11.2973 -11.2935 -11.2886 -11.2865 -11.2854 -11.2841 -11.2839 -11.2828
-11.2799 -11.2615 -11.2591 -11.2590 -11.2499  -9.0130  -8.9992  -8.9863
 -8.9861  -6.6938  -6.6932  -6.6927  -6.6805  -6.6798  -6.6785  -6.6673
 -6.6669  -6.6667  -6.6663  -6.6658  -6.6651  -1.6525  -1.4720  -1.4156
 -1.4144  -1.3673  -1.2345  -1.1962  -1.1691  -1.1421  -1.0847  -1.0521
 -1.0484  -1.0289  -1.0022  -0.9940  -0.9727  -0.9606  -0.9499  -0.9381
 -0.8959  -0.8699  -0.8524  -0.8103  -0.7965  -0.7872  -0.7752  -0.7631
 -0.7582  -0.7325  -0.7213  -0.7195  -0.7006  -0.6889  -0.6844  -0.6788
 -0.6742  -0.6622  -0.6585  -0.6523  -0.6287  -0.6195  -0.6162  -0.6068
 -0.6018  -0.5958  -0.5887  -0.5709  -0.5690  -0.5650  -0.5595  -0.5527
 -0.5301  -0.5267  -0.5238  -0.5192  -0.5147  -0.5089  -0.5017  -0.4951
 -0.4860  -0.4826  -0.4804  -0.4643  -0.4616  -0.4609  -0.4575  -0.4250
 -0.3955  -0.3867  -0.3607  -0.3499  -0.3253  -0.2836  -0.2465

          Ground-State Mulliken Net Atomic Charges

     Atom                 Charge (a.u.)
  ----------------------------------------
      1 C                    -0.187754
      2 C                    -0.254563
      3 S                    -0.023153
      4 C                    -0.013825
      5 H                     0.196615
      6 C                    -0.029197
      7 C                     0.243195
      8 C                     0.242689
      9 C                    -0.039157
     10 C                    -0.023608
     11 O                    -0.333767
     12 O                    -0.340595
     13 C                    -0.085677
     14 H                     0.122322
     15 H                     0.091286
     16 H                     0.094266
     17 C                    -0.089133
     18 H                     0.125681
     19 H                     0.094497
     20 H                     0.091654
     21 C                    -0.247991
     22 S                    -0.027443
     23 C                     0.010790
     24 H                     0.186499
     25 H                     0.206535
     26 C                     0.028182
     27 S                     0.091567
     28 C                    -0.234765
     29 C                    -0.094114
     30 C                    -0.027079
     31 C                     0.370954
     32 C                    -0.131453
     33 S                     0.037907
     34 C                     0.459876
     35 O                    -0.451307
     36 O                    -0.297815
     37 F                    -0.209816
     38 C                    -0.054993
     39 H                     0.116817
     40 H                     0.084525
     41 H                     0.084393
     42 H                     0.216955
  ----------------------------------------
  Sum of atomic charges =     0.000000

                    Cartesian Multipole Moments
 -----------------------------------------------------------------
    Charge (ESU x 10^10)
                 0.0000
    Dipole Moment (Debye)
         X       0.0758      Y       1.6539      Z       2.9241
       Tot       3.3603
    Quadrupole Moments (Debye-Ang)
        XX    -200.4056     XY      -2.8629     YY    -159.7036
        XZ      -5.6295     YZ     -11.7030     ZZ    -182.1047

 Total job time:  287.45s(wall), 9528.00s(cpu)
        *  Thank you very much for using Q-Chem.  Have a nice day.  *
