 Q-Chem 5.4, Q-Chem, Inc., Pleasanton, CA (2021)
 Q-Chem 5.4.0 for Intel X86 EM64T Linux

User input:
--------------------------------------------------------------
$molecule
0 1
C	-0.235993	-8.519741	0.135457
C	0.577858	-7.635967	-0.558188
S	-1.414705	-7.651740	1.148850
C	0.283020	-6.261894	-0.308648
H	1.377597	-7.954738	-1.238560
C	-0.810887	-6.079985	0.609026
C	-1.231581	-4.798382	0.996828
C	0.982901	-5.153542	-0.865740
C	0.564713	-3.869626	-0.474408
C	-0.532196	-3.688927	0.442046
O	1.976332	-5.481075	-1.738137
O	-2.228709	-4.479871	1.874052
C	-3.340298	-5.356026	2.016062
H	-4.110807	-4.790496	2.573877
H	-3.085998	-6.268513	2.598484
H	-3.751679	-5.658187	1.028695
C	3.007565	-4.546999	-2.033195
H	3.778655	-5.107564	-2.594833
H	3.461650	-4.131473	-1.108067
H	2.645264	-3.712085	-2.671451
C	-0.822814	-2.314326	0.691020
S	1.178037	-2.295487	-1.005649
C	-0.000000	-1.435180	-0.000000
H	-1.623656	-1.993211	1.368875
H	-0.230172	-9.615985	0.133782
C	0.000000	0.000000	0.000000
S	0.451648	0.777811	1.510732
C	1.238377	2.142617	0.727629
C	0.454085	0.786559	-1.064665
C	1.147169	1.990043	-0.678287
C	0.422325	0.728240	-2.486150
C	1.054629	1.823683	-3.106916
S	1.675491	2.905718	-1.965735
C	1.185914	2.041729	-4.559972
O	0.721749	1.231802	-5.350277
O	1.830313	3.151386	-5.004375
F	-0.131347	-0.238577	-3.246290
C	2.018453	3.456956	-6.334976
H	2.571455	4.413580	-6.370268
H	1.052178	3.565244	-6.875609
H	2.601950	2.669768	-6.861878
H	1.698444	2.939346	1.321510
$end

$rem
JOBTYPE		SP
EXCHANGE	HF
CORRELATION	pRIMP2
BASIS		cc-pvtz
METHOD		rimp2
AUX_BASIS	rimp2-cc-pvtz
SOLVENT_METHOD	PCM
PURECART	11111
SYMMETRY	false
MEM_TOTAL	110000
SCF_CONVERGENCE = 6
THRESH=10
GUI = 2
$end

$solvent
dielectric 4.90
$end
--------------------------------------------------------------

             Standard Nuclear Orientation (Angstroms)
    I     Atom           X                Y                Z
 ----------------------------------------------------------------
    1      C      -0.2359930000    -8.5197410000     0.1354570000
    2      C       0.5778580000    -7.6359670000    -0.5581880000
    3      S      -1.4147050000    -7.6517400000     1.1488500000
    4      C       0.2830200000    -6.2618940000    -0.3086480000
    5      H       1.3775970000    -7.9547380000    -1.2385600000
    6      C      -0.8108870000    -6.0799850000     0.6090260000
    7      C      -1.2315810000    -4.7983820000     0.9968280000
    8      C       0.9829010000    -5.1535420000    -0.8657400000
    9      C       0.5647130000    -3.8696260000    -0.4744080000
   10      C      -0.5321960000    -3.6889270000     0.4420460000
   11      O       1.9763320000    -5.4810750000    -1.7381370000
   12      O      -2.2287090000    -4.4798710000     1.8740520000
   13      C      -3.3402980000    -5.3560260000     2.0160620000
   14      H      -4.1108070000    -4.7904960000     2.5738770000
   15      H      -3.0859980000    -6.2685130000     2.5984840000
   16      H      -3.7516790000    -5.6581870000     1.0286950000
   17      C       3.0075650000    -4.5469990000    -2.0331950000
   18      H       3.7786550000    -5.1075640000    -2.5948330000
   19      H       3.4616500000    -4.1314730000    -1.1080670000
   20      H       2.6452640000    -3.7120850000    -2.6714510000
   21      C      -0.8228140000    -2.3143260000     0.6910200000
   22      S       1.1780370000    -2.2954870000    -1.0056490000
   23      C       0.0000000000    -1.4351800000     0.0000000000
   24      H      -1.6236560000    -1.9932110000     1.3688750000
   25      H      -0.2301720000    -9.6159850000     0.1337820000
   26      C       0.0000000000     0.0000000000     0.0000000000
   27      S       0.4516480000     0.7778110000     1.5107320000
   28      C       1.2383770000     2.1426170000     0.7276290000
   29      C       0.4540850000     0.7865590000    -1.0646650000
   30      C       1.1471690000     1.9900430000    -0.6782870000
   31      C       0.4223250000     0.7282400000    -2.4861500000
   32      C       1.0546290000     1.8236830000    -3.1069160000
   33      S       1.6754910000     2.9057180000    -1.9657350000
   34      C       1.1859140000     2.0417290000    -4.5599720000
   35      O       0.7217490000     1.2318020000    -5.3502770000
   36      O       1.8303130000     3.1513860000    -5.0043750000
   37      F      -0.1313470000    -0.2385770000    -3.2462900000
   38      C       2.0184530000     3.4569560000    -6.3349760000
   39      H       2.5714550000     4.4135800000    -6.3702680000
   40      H       1.0521780000     3.5652440000    -6.8756090000
   41      H       2.6019500000     2.6697680000    -6.8618780000
   42      H       1.6984440000     2.9393460000     1.3215100000
 ----------------------------------------------------------------

   10   -2754.2816687021      8.57e-07  Convergence criterion met
 Total energy in the final basis set =    -2754.2816687021
        RIMP2         total energy =     -2759.3409408626 a.u.

                    Orbital Energies (a.u.)
 --------------------------------------------------------------

 Alpha MOs
 -- Occupied --
-92.0165 -91.9975 -91.9889 -91.9857 -26.3339 -20.6129 -20.5918 -20.5909
-20.5515 -11.4116 -11.3776 -11.3187 -11.3166 -11.3032 -11.3009 -11.3005
-11.2978 -11.2940 -11.2889 -11.2865 -11.2857 -11.2850 -11.2847 -11.2834
-11.2789 -11.2602 -11.2579 -11.2534 -11.2494  -9.0149  -9.0014  -8.9894
 -8.9857  -6.6955  -6.6949  -6.6944  -6.6826  -6.6819  -6.6806  -6.6703
 -6.6696  -6.6686  -6.6666  -6.6660  -6.6652  -1.6471  -1.4728  -1.4159
 -1.4136  -1.3682  -1.2361  -1.1951  -1.1684  -1.1429  -1.0841  -1.0516
 -1.0483  -1.0293  -1.0016  -0.9926  -0.9726  -0.9604  -0.9499  -0.9387
 -0.8952  -0.8708  -0.8489  -0.8070  -0.7917  -0.7873  -0.7752  -0.7655
 -0.7571  -0.7319  -0.7184  -0.7155  -0.7001  -0.6894  -0.6822  -0.6792
 -0.6726  -0.6614  -0.6585  -0.6521  -0.6288  -0.6194  -0.6166  -0.6075
 -0.6040  -0.5967  -0.5824  -0.5764  -0.5669  -0.5645  -0.5566  -0.5508
 -0.5329  -0.5276  -0.5240  -0.5157  -0.5143  -0.5083  -0.5019  -0.4961
 -0.4885  -0.4852  -0.4752  -0.4678  -0.4625  -0.4620  -0.4595  -0.4129
 -0.3983  -0.3859  -0.3581  -0.3498  -0.3200  -0.2871  -0.2523

          Ground-State Mulliken Net Atomic Charges

     Atom                 Charge (a.u.)
  ----------------------------------------
      1 C                    -0.189786
      2 C                    -0.254321
      3 S                    -0.023700
      4 C                    -0.016150
      5 H                     0.196310
      6 C                    -0.024594
      7 C                     0.234815
      8 C                     0.241760
      9 C                    -0.043929
     10 C                    -0.005626
     11 O                    -0.333079
     12 O                    -0.340209
     13 C                    -0.085624
     14 H                     0.122129
     15 H                     0.090914
     16 H                     0.094169
     17 C                    -0.088262
     18 H                     0.125462
     19 H                     0.094102
     20 H                     0.090763
     21 C                    -0.263687
     22 S                    -0.010892
     23 C                    -0.009573
     24 H                     0.195313
     25 H                     0.206182
     26 C                     0.000812
     27 S                     0.130402
     28 C                    -0.222928
     29 C                    -0.143734
     30 C                    -0.003778
     31 C                     0.379751
     32 C                    -0.145204
     33 S                     0.048843
     34 C                     0.459971
     35 O                    -0.447309
     36 O                    -0.297803
     37 F                    -0.208773
     38 C                    -0.054865
     39 H                     0.116813
     40 H                     0.084932
     41 H                     0.084713
     42 H                     0.215670
  ----------------------------------------
  Sum of atomic charges =     0.000000

                    Cartesian Multipole Moments
 -----------------------------------------------------------------
    Charge (ESU x 10^10)
                -0.0000
    Dipole Moment (Debye)
         X       2.0442      Y       1.9049      Z       2.8312
       Tot       3.9778
    Quadrupole Moments (Debye-Ang)
        XX    -177.5117     XY       8.2504     YY    -163.9872
        XZ     -15.8199     YZ      -8.3252     ZZ    -200.5014

 Total job time:  316.79s(wall), 10789.31s(cpu)
        *  Thank you very much for using Q-Chem.  Have a nice day.  *
