 Q-Chem 5.4, Q-Chem, Inc., Pleasanton, CA (2021)
 Q-Chem 5.4.0 for Intel X86 EM64T Linux

User input:
--------------------------------------------------------------
$molecule
0 1
C	0.235993	-8.519741	-0.135457
C	-0.577858	-7.635967	0.558188
S	1.414705	-7.651740	-1.148850
C	-0.283020	-6.261894	0.308648
H	-1.377597	-7.954738	1.238560
C	0.810887	-6.079985	-0.609026
C	1.231581	-4.798382	-0.996828
C	-0.982901	-5.153542	0.865740
C	-0.564713	-3.869626	0.474408
C	0.532196	-3.688927	-0.442046
O	-1.976332	-5.481075	1.738137
O	2.228709	-4.479871	-1.874052
C	3.340298	-5.356026	-2.016062
H	4.110807	-4.790496	-2.573877
H	3.085998	-6.268513	-2.598484
H	3.751679	-5.658187	-1.028695
C	-3.007565	-4.546999	2.033195
H	-3.778655	-5.107564	2.594833
H	-3.461650	-4.131473	1.108067
H	-2.645264	-3.712085	2.671451
C	0.822814	-2.314326	-0.691020
S	-1.178037	-2.295487	1.005649
C	0.000000	-1.435180	0.000000
H	1.623656	-1.993211	-1.368875
H	0.230172	-9.615985	-0.133782
C	0.000000	0.000000	0.000000
S	0.002233	0.899428	1.510732
C	0.001157	2.474749	0.727629
C	-0.000030	0.908223	-1.064665
C	-0.001545	2.297013	-0.678287
C	0.001624	0.841837	-2.486150
C	0.001494	2.106670	-3.106916
S	-0.001841	3.354171	-1.965735
C	0.006168	2.361146	-4.559972
O	0.009152	1.427646	-5.350277
O	0.009405	3.644337	-5.004375
F	0.005539	-0.272288	-3.246290
C	0.019554	4.003038	-6.334976
H	0.020155	5.108000	-6.370268
H	-0.871409	3.613681	-6.875609
H	0.918470	3.613062	-6.861878
H	0.001222	3.394771	1.321510
$end

$rem
JOBTYPE		SP
EXCHANGE	HF
CORRELATION	pRIMP2
BASIS		cc-pvtz
METHOD		rimp2
AUX_BASIS	rimp2-cc-pvtz
SOLVENT_METHOD	PCM
PURECART	11111
SYMMETRY	false
MEM_TOTAL	110000
SCF_CONVERGENCE = 6
THRESH=10
GUI = 2
$end

$solvent
dielectric 4.90
$end
--------------------------------------------------------------

             Standard Nuclear Orientation (Angstroms)
    I     Atom           X                Y                Z
 ----------------------------------------------------------------
    1      C       0.2359930000    -8.5197410000    -0.1354570000
    2      C      -0.5778580000    -7.6359670000     0.5581880000
    3      S       1.4147050000    -7.6517400000    -1.1488500000
    4      C      -0.2830200000    -6.2618940000     0.3086480000
    5      H      -1.3775970000    -7.9547380000     1.2385600000
    6      C       0.8108870000    -6.0799850000    -0.6090260000
    7      C       1.2315810000    -4.7983820000    -0.9968280000
    8      C      -0.9829010000    -5.1535420000     0.8657400000
    9      C      -0.5647130000    -3.8696260000     0.4744080000
   10      C       0.5321960000    -3.6889270000    -0.4420460000
   11      O      -1.9763320000    -5.4810750000     1.7381370000
   12      O       2.2287090000    -4.4798710000    -1.8740520000
   13      C       3.3402980000    -5.3560260000    -2.0160620000
   14      H       4.1108070000    -4.7904960000    -2.5738770000
   15      H       3.0859980000    -6.2685130000    -2.5984840000
   16      H       3.7516790000    -5.6581870000    -1.0286950000
   17      C      -3.0075650000    -4.5469990000     2.0331950000
   18      H      -3.7786550000    -5.1075640000     2.5948330000
   19      H      -3.4616500000    -4.1314730000     1.1080670000
   20      H      -2.6452640000    -3.7120850000     2.6714510000
   21      C       0.8228140000    -2.3143260000    -0.6910200000
   22      S      -1.1780370000    -2.2954870000     1.0056490000
   23      C       0.0000000000    -1.4351800000     0.0000000000
   24      H       1.6236560000    -1.9932110000    -1.3688750000
   25      H       0.2301720000    -9.6159850000    -0.1337820000
   26      C       0.0000000000     0.0000000000     0.0000000000
   27      S       0.0022330000     0.8994280000     1.5107320000
   28      C       0.0011570000     2.4747490000     0.7276290000
   29      C      -0.0000300000     0.9082230000    -1.0646650000
   30      C      -0.0015450000     2.2970130000    -0.6782870000
   31      C       0.0016240000     0.8418370000    -2.4861500000
   32      C       0.0014940000     2.1066700000    -3.1069160000
   33      S      -0.0018410000     3.3541710000    -1.9657350000
   34      C       0.0061680000     2.3611460000    -4.5599720000
   35      O       0.0091520000     1.4276460000    -5.3502770000
   36      O       0.0094050000     3.6443370000    -5.0043750000
   37      F       0.0055390000    -0.2722880000    -3.2462900000
   38      C       0.0195540000     4.0030380000    -6.3349760000
   39      H       0.0201550000     5.1080000000    -6.3702680000
   40      H      -0.8714090000     3.6136810000    -6.8756090000
   41      H       0.9184700000     3.6130620000    -6.8618780000
   42      H       0.0012220000     3.3947710000     1.3215100000
 ----------------------------------------------------------------

   10   -2754.2979385951      7.94e-07  Convergence criterion met
 Total energy in the final basis set =    -2754.2979385951
        RIMP2         total energy =     -2759.3505961562 a.u.

                    Orbital Energies (a.u.)
 --------------------------------------------------------------

 Alpha MOs
 -- Occupied --
-92.0160 -91.9942 -91.9915 -91.9869 -26.3339 -20.6117 -20.5929 -20.5918
-20.5493 -11.4097 -11.3774 -11.3200 -11.3192 -11.3122 -11.2964 -11.2961
-11.2951 -11.2926 -11.2882 -11.2876 -11.2876 -11.2860 -11.2846 -11.2818
-11.2806 -11.2619 -11.2601 -11.2595 -11.2504  -9.0143  -8.9982  -8.9919
 -8.9868  -6.6950  -6.6944  -6.6939  -6.6795  -6.6788  -6.6775  -6.6729
 -6.6722  -6.6712  -6.6677  -6.6671  -6.6663  -1.6468  -1.4714  -1.4171
 -1.4146  -1.3666  -1.2330  -1.1969  -1.1690  -1.1419  -1.0846  -1.0528
 -1.0474  -1.0274  -1.0032  -0.9937  -0.9714  -0.9616  -0.9508  -0.9384
 -0.8967  -0.8689  -0.8513  -0.8039  -0.7930  -0.7882  -0.7727  -0.7698
 -0.7583  -0.7331  -0.7184  -0.7150  -0.7019  -0.6886  -0.6836  -0.6781
 -0.6708  -0.6612  -0.6595  -0.6529  -0.6303  -0.6204  -0.6171  -0.6060
 -0.6015  -0.5938  -0.5858  -0.5763  -0.5707  -0.5642  -0.5532  -0.5498
 -0.5370  -0.5262  -0.5254  -0.5168  -0.5149  -0.5080  -0.5031  -0.4966
 -0.4895  -0.4837  -0.4767  -0.4696  -0.4616  -0.4610  -0.4599  -0.4160
 -0.3978  -0.3872  -0.3587  -0.3497  -0.3212  -0.2861  -0.2542

          Ground-State Mulliken Net Atomic Charges

     Atom                 Charge (a.u.)
  ----------------------------------------
      1 C                    -0.186692
      2 C                    -0.254388
      3 S                    -0.020310
      4 C                    -0.012926
      5 H                     0.196544
      6 C                    -0.028059
      7 C                     0.246693
      8 C                     0.238828
      9 C                    -0.044530
     10 C                    -0.032580
     11 O                    -0.333128
     12 O                    -0.338752
     13 C                    -0.085905
     14 H                     0.123172
     15 H                     0.091431
     16 H                     0.093796
     17 C                    -0.087116
     18 H                     0.125309
     19 H                     0.095423
     20 H                     0.089430
     21 C                    -0.212700
     22 S                    -0.011316
     23 C                    -0.028011
     24 H                     0.197268
     25 H                     0.206756
     26 C                    -0.023755
     27 S                     0.107922
     28 C                    -0.242467
     29 C                    -0.083418
     30 C                    -0.008755
     31 C                     0.392640
     32 C                    -0.151757
     33 S                     0.035636
     34 C                     0.460540
     35 O                    -0.451179
     36 O                    -0.298034
     37 F                    -0.211508
     38 C                    -0.055022
     39 H                     0.116485
     40 H                     0.084574
     41 H                     0.084314
     42 H                     0.215548
  ----------------------------------------
  Sum of atomic charges =     0.000000

                    Cartesian Multipole Moments
 -----------------------------------------------------------------
    Charge (ESU x 10^10)
                 0.0000
    Dipole Moment (Debye)
         X       0.1646      Y       1.2619      Z       3.4763
       Tot       3.7019
    Quadrupole Moments (Debye-Ang)
        XX    -181.4916     XY      -1.3111     YY    -157.4040
        XZ     -10.3297     YZ     -11.2489     ZZ    -201.8095

 Total job time:  299.37s(wall), 9804.23s(cpu)
        *  Thank you very much for using Q-Chem.  Have a nice day.  *
