 Q-Chem 5.4, Q-Chem, Inc., Pleasanton, CA (2021)
 Q-Chem 5.4.0 for Intel X86 EM64T Linux

User input:
--------------------------------------------------------------
$molecule
0 1
C	0.046574	-8.519741	0.268090
C	-0.326886	-7.635967	-0.733920
S	0.595708	-7.651740	1.722318
C	-0.193236	-6.261894	-0.371516
H	-0.692700	-7.954738	-1.718130
C	0.294958	-6.079985	0.970283
C	0.515487	-4.798382	1.498243
C	-0.477358	-5.153542	-1.219725
C	-0.252655	-3.869626	-0.692914
C	0.233366	-3.688927	0.651289
O	-0.957369	-5.481075	-2.451623
O	0.998769	-4.479871	2.735264
C	0.752029	-5.356026	3.828387
H	1.012675	-4.790496	4.743213
H	1.386303	-6.268513	3.788623
H	-0.316492	-5.658187	3.877260
C	-0.881930	-4.546999	-3.521580
H	-1.145969	-5.107564	-4.438260
H	0.142712	-4.131473	-3.631868
H	-1.605610	-3.712085	-3.399425
C	0.367928	-2.314326	1.009535
S	-0.542088	-2.295487	-1.450945
C	0.000000	-1.435180	0.000000
H	0.730999	-1.993211	1.993920
H	0.046991	-9.615985	0.262047
C	0.000000	0.000000	0.000000
S	0.309721	0.844422	1.510732
C	0.847502	2.325108	0.727629
C	0.310602	0.853460	-1.064665
C	0.784173	2.159014	-0.678287
C	0.289451	0.790512	-2.486150
C	0.721927	1.979112	-3.106916
S	1.145464	3.152519	-1.965735
C	0.813355	2.216642	-4.559972
O	0.496884	1.338418	-5.350277
O	1.255274	3.421340	-5.004375
F	-0.087923	-0.257761	-3.246290
C	1.387494	3.754937	-6.334976
H	1.765978	4.793056	-6.370268
H	0.417095	3.693789	-6.875609
H	2.098820	3.081033	-6.861878
H	1.162229	3.189623	1.321510
$end

$rem
JOBTYPE		SP
EXCHANGE	HF
CORRELATION	pRIMP2
BASIS		cc-pvtz
METHOD		rimp2
AUX_BASIS	rimp2-cc-pvtz
SOLVENT_METHOD	PCM
PURECART	11111
SYMMETRY	false
MEM_TOTAL	110000
SCF_CONVERGENCE = 6
THRESH=10
GUI = 2
$end

$solvent
dielectric 4.90
$end
--------------------------------------------------------------

             Standard Nuclear Orientation (Angstroms)
    I     Atom           X                Y                Z
 ----------------------------------------------------------------
    1      C       0.0465740000    -8.5197410000     0.2680900000
    2      C      -0.3268860000    -7.6359670000    -0.7339200000
    3      S       0.5957080000    -7.6517400000     1.7223180000
    4      C      -0.1932360000    -6.2618940000    -0.3715160000
    5      H      -0.6927000000    -7.9547380000    -1.7181300000
    6      C       0.2949580000    -6.0799850000     0.9702830000
    7      C       0.5154870000    -4.7983820000     1.4982430000
    8      C      -0.4773580000    -5.1535420000    -1.2197250000
    9      C      -0.2526550000    -3.8696260000    -0.6929140000
   10      C       0.2333660000    -3.6889270000     0.6512890000
   11      O      -0.9573690000    -5.4810750000    -2.4516230000
   12      O       0.9987690000    -4.4798710000     2.7352640000
   13      C       0.7520290000    -5.3560260000     3.8283870000
   14      H       1.0126750000    -4.7904960000     4.7432130000
   15      H       1.3863030000    -6.2685130000     3.7886230000
   16      H      -0.3164920000    -5.6581870000     3.8772600000
   17      C      -0.8819300000    -4.5469990000    -3.5215800000
   18      H      -1.1459690000    -5.1075640000    -4.4382600000
   19      H       0.1427120000    -4.1314730000    -3.6318680000
   20      H      -1.6056100000    -3.7120850000    -3.3994250000
   21      C       0.3679280000    -2.3143260000     1.0095350000
   22      S      -0.5420880000    -2.2954870000    -1.4509450000
   23      C       0.0000000000    -1.4351800000     0.0000000000
   24      H       0.7309990000    -1.9932110000     1.9939200000
   25      H       0.0469910000    -9.6159850000     0.2620470000
   26      C       0.0000000000     0.0000000000     0.0000000000
   27      S       0.3097210000     0.8444220000     1.5107320000
   28      C       0.8475020000     2.3251080000     0.7276290000
   29      C       0.3106020000     0.8534600000    -1.0646650000
   30      C       0.7841730000     2.1590140000    -0.6782870000
   31      C       0.2894510000     0.7905120000    -2.4861500000
   32      C       0.7219270000     1.9791120000    -3.1069160000
   33      S       1.1454640000     3.1525190000    -1.9657350000
   34      C       0.8133550000     2.2166420000    -4.5599720000
   35      O       0.4968840000     1.3384180000    -5.3502770000
   36      O       1.2552740000     3.4213400000    -5.0043750000
   37      F      -0.0879230000    -0.2577610000    -3.2462900000
   38      C       1.3874940000     3.7549370000    -6.3349760000
   39      H       1.7659780000     4.7930560000    -6.3702680000
   40      H       0.4170950000     3.6937890000    -6.8756090000
   41      H       2.0988200000     3.0810330000    -6.8618780000
   42      H       1.1622290000     3.1896230000     1.3215100000
 ----------------------------------------------------------------

   10   -2754.2870565823      8.06e-07  Convergence criterion met
 Total energy in the final basis set =    -2754.2870565823
        RIMP2         total energy =     -2759.3454539469 a.u.

                    Orbital Energies (a.u.)
 --------------------------------------------------------------

 Alpha MOs
 -- Occupied --
-92.0152 -91.9960 -91.9859 -91.9851 -26.3354 -20.6125 -20.5914 -20.5911
-20.5506 -11.4109 -11.3785 -11.3181 -11.3172 -11.3108 -11.2986 -11.2981
-11.2975 -11.2963 -11.2887 -11.2862 -11.2854 -11.2843 -11.2841 -11.2834
-11.2792 -11.2608 -11.2582 -11.2566 -11.2495  -9.0137  -9.0000  -8.9861
 -8.9859  -6.6944  -6.6938  -6.6934  -6.6813  -6.6806  -6.6793  -6.6669
 -6.6668  -6.6663  -6.6662  -6.6654  -6.6652  -1.6506  -1.4723  -1.4154
 -1.4140  -1.3677  -1.2352  -1.1956  -1.1688  -1.1424  -1.0844  -1.0516
 -1.0485  -1.0292  -1.0016  -0.9935  -0.9728  -0.9602  -0.9496  -0.9383
 -0.8953  -0.8704  -0.8511  -0.8096  -0.7949  -0.7870  -0.7751  -0.7636
 -0.7576  -0.7319  -0.7204  -0.7180  -0.7002  -0.6890  -0.6835  -0.6790
 -0.6739  -0.6618  -0.6582  -0.6521  -0.6285  -0.6192  -0.6159  -0.6070
 -0.6020  -0.5967  -0.5888  -0.5711  -0.5681  -0.5669  -0.5573  -0.5527
 -0.5300  -0.5269  -0.5213  -0.5193  -0.5143  -0.5090  -0.5019  -0.4947
 -0.4860  -0.4837  -0.4792  -0.4646  -0.4618  -0.4614  -0.4578  -0.4235
 -0.3952  -0.3859  -0.3590  -0.3505  -0.3242  -0.2840  -0.2477

          Ground-State Mulliken Net Atomic Charges

     Atom                 Charge (a.u.)
  ----------------------------------------
      1 C                    -0.189194
      2 C                    -0.254077
      3 S                    -0.023777
      4 C                    -0.014430
      5 H                     0.196474
      6 C                    -0.029226
      7 C                     0.240699
      8 C                     0.242405
      9 C                    -0.044166
     10 C                    -0.026340
     11 O                    -0.333915
     12 O                    -0.340683
     13 C                    -0.085603
     14 H                     0.122171
     15 H                     0.091177
     16 H                     0.093964
     17 C                    -0.087578
     18 H                     0.124933
     19 H                     0.095282
     20 H                     0.090073
     21 C                    -0.243893
     22 S                    -0.013661
     23 C                    -0.014996
     24 H                     0.190642
     25 H                     0.206305
     26 C                     0.008197
     27 S                     0.092698
     28 C                    -0.218398
     29 C                    -0.072797
     30 C                    -0.029402
     31 C                     0.369260
     32 C                    -0.134004
     33 S                     0.042802
     34 C                     0.457017
     35 O                    -0.449810
     36 O                    -0.297796
     37 F                    -0.208445
     38 C                    -0.054831
     39 H                     0.116769
     40 H                     0.084565
     41 H                     0.084487
     42 H                     0.217098
  ----------------------------------------
  Sum of atomic charges =     0.000000

                    Cartesian Multipole Moments
 -----------------------------------------------------------------
    Charge (ESU x 10^10)
                -0.0000
    Dipole Moment (Debye)
         X       1.0019      Y       1.8682      Z       2.9222
       Tot       3.6102
    Quadrupole Moments (Debye-Ang)
        XX    -199.6974     XY       6.6197     YY    -162.3656
        XZ      -0.8719     YZ     -10.4349     ZZ    -180.9647

 Total job time:  328.10s(wall), 10673.76s(cpu)
        *  Thank you very much for using Q-Chem.  Have a nice day.  *
