 Q-Chem 5.4, Q-Chem, Inc., Pleasanton, CA (2021)
 Q-Chem 5.4.0 for Intel X86 EM64T Linux

User input:
--------------------------------------------------------------
$molecule
0 1
C	0.093711	-8.519741	-0.255459
C	-0.083869	-7.635967	0.799036
S	0.345260	-7.651740	-1.789425
C	-0.018411	-6.261894	0.418360
H	-0.259169	-7.954738	1.834294
C	0.229701	-6.079985	-0.987769
C	0.302697	-4.798382	-1.555260
C	-0.196459	-5.153542	1.294992
C	-0.127651	-3.869626	0.726408
C	0.123544	-3.688927	-0.680716
O	-0.396706	-5.481075	2.601852
O	0.502673	-4.479871	-2.868193
C	1.262918	-5.356026	-3.691495
H	1.494604	-4.790496	-4.614080
H	0.693738	-6.268513	-3.974195
H	2.212720	-5.658187	-3.199559
C	-0.997016	-4.546999	3.490743
H	-1.226691	-5.107564	4.416630
H	-1.939526	-4.131473	3.073934
H	-0.309214	-3.712085	3.746794
C	0.186133	-2.314326	-1.058247
S	-0.256010	-2.295487	1.527599
C	0.000000	-1.435180	0.000000
H	0.363896	-1.993211	-2.092285
H	0.090328	-9.615985	-0.250435
C	0.000000	0.000000	0.000000
S	0.234946	0.868203	1.510732
C	0.641630	2.390125	0.727629
C	0.235036	0.877284	-1.064665
C	0.593019	2.219143	-0.678287
C	0.219452	0.812732	-2.486150
C	0.546689	2.034501	-3.106916
S	0.866345	3.240357	-1.965735
C	0.617067	2.279095	-4.559972
O	0.378342	1.376631	-5.350277
O	0.952308	3.517725	-5.004375
F	-0.065123	-0.264443	-3.246290
C	1.054950	3.861577	-6.334976
H	1.341516	4.928732	-6.370268
H	0.093573	3.716085	-6.875609
H	1.822303	3.252232	-6.861878
H	0.879812	3.278780	1.321510
$end

$rem
JOBTYPE		SP
EXCHANGE	HF
CORRELATION	pRIMP2
BASIS		cc-pvtz
METHOD		rimp2
AUX_BASIS	rimp2-cc-pvtz
SOLVENT_METHOD	PCM
PURECART	11111
SYMMETRY	false
MEM_TOTAL	110000
SCF_CONVERGENCE = 6
THRESH=10
GUI = 2
$end

$solvent
dielectric 4.90
$end
--------------------------------------------------------------

             Standard Nuclear Orientation (Angstroms)
    I     Atom           X                Y                Z
 ----------------------------------------------------------------
    1      C       0.0937110000    -8.5197410000    -0.2554590000
    2      C      -0.0838690000    -7.6359670000     0.7990360000
    3      S       0.3452600000    -7.6517400000    -1.7894250000
    4      C      -0.0184110000    -6.2618940000     0.4183600000
    5      H      -0.2591690000    -7.9547380000     1.8342940000
    6      C       0.2297010000    -6.0799850000    -0.9877690000
    7      C       0.3026970000    -4.7983820000    -1.5552600000
    8      C      -0.1964590000    -5.1535420000     1.2949920000
    9      C      -0.1276510000    -3.8696260000     0.7264080000
   10      C       0.1235440000    -3.6889270000    -0.6807160000
   11      O      -0.3967060000    -5.4810750000     2.6018520000
   12      O       0.5026730000    -4.4798710000    -2.8681930000
   13      C       1.2629180000    -5.3560260000    -3.6914950000
   14      H       1.4946040000    -4.7904960000    -4.6140800000
   15      H       0.6937380000    -6.2685130000    -3.9741950000
   16      H       2.2127200000    -5.6581870000    -3.1995590000
   17      C      -0.9970160000    -4.5469990000     3.4907430000
   18      H      -1.2266910000    -5.1075640000     4.4166300000
   19      H      -1.9395260000    -4.1314730000     3.0739340000
   20      H      -0.3092140000    -3.7120850000     3.7467940000
   21      C       0.1861330000    -2.3143260000    -1.0582470000
   22      S      -0.2560100000    -2.2954870000     1.5275990000
   23      C       0.0000000000    -1.4351800000     0.0000000000
   24      H       0.3638960000    -1.9932110000    -2.0922850000
   25      H       0.0903280000    -9.6159850000    -0.2504350000
   26      C       0.0000000000     0.0000000000     0.0000000000
   27      S       0.2349460000     0.8682030000     1.5107320000
   28      C       0.6416300000     2.3901250000     0.7276290000
   29      C       0.2350360000     0.8772840000    -1.0646650000
   30      C       0.5930190000     2.2191430000    -0.6782870000
   31      C       0.2194520000     0.8127320000    -2.4861500000
   32      C       0.5466890000     2.0345010000    -3.1069160000
   33      S       0.8663450000     3.2403570000    -1.9657350000
   34      C       0.6170670000     2.2790950000    -4.5599720000
   35      O       0.3783420000     1.3766310000    -5.3502770000
   36      O       0.9523080000     3.5177250000    -5.0043750000
   37      F      -0.0651230000    -0.2644430000    -3.2462900000
   38      C       1.0549500000     3.8615770000    -6.3349760000
   39      H       1.3415160000     4.9287320000    -6.3702680000
   40      H       0.0935730000     3.7160850000    -6.8756090000
   41      H       1.8223030000     3.2522320000    -6.8618780000
   42      H       0.8798120000     3.2787800000     1.3215100000
 ----------------------------------------------------------------

   10   -2754.2931670784      8.27e-07  Convergence criterion met
 Total energy in the final basis set =    -2754.2931670784
        RIMP2         total energy =     -2759.3497336787 a.u.

                    Orbital Energies (a.u.)
 --------------------------------------------------------------

 Alpha MOs
 -- Occupied --
-92.0162 -91.9958 -91.9904 -91.9870 -26.3382 -20.6120 -20.5930 -20.5915
-20.5499 -11.4103 -11.3787 -11.3201 -11.3192 -11.3127 -11.2979 -11.2973
-11.2965 -11.2936 -11.2885 -11.2880 -11.2878 -11.2855 -11.2847 -11.2814
-11.2806 -11.2620 -11.2603 -11.2569 -11.2504  -9.0147  -8.9998  -8.9911
 -8.9869  -6.6955  -6.6949  -6.6944  -6.6810  -6.6803  -6.6790  -6.6722
 -6.6715  -6.6705  -6.6678  -6.6672  -6.6664  -1.6525  -1.4718  -1.4171
 -1.4142  -1.3671  -1.2343  -1.1972  -1.1699  -1.1428  -1.0849  -1.0530
 -1.0486  -1.0285  -1.0037  -0.9941  -0.9727  -0.9611  -0.9508  -0.9386
 -0.8971  -0.8700  -0.8518  -0.8069  -0.7966  -0.7889  -0.7725  -0.7700
 -0.7580  -0.7336  -0.7220  -0.7194  -0.7018  -0.6898  -0.6845  -0.6786
 -0.6728  -0.6624  -0.6596  -0.6526  -0.6292  -0.6202  -0.6159  -0.6065
 -0.6006  -0.5947  -0.5879  -0.5760  -0.5697  -0.5610  -0.5536  -0.5483
 -0.5366  -0.5274  -0.5253  -0.5188  -0.5174  -0.5095  -0.5058  -0.4969
 -0.4866  -0.4845  -0.4794  -0.4676  -0.4619  -0.4614  -0.4587  -0.4247
 -0.3985  -0.3859  -0.3597  -0.3509  -0.3258  -0.2847  -0.2473

          Ground-State Mulliken Net Atomic Charges

     Atom                 Charge (a.u.)
  ----------------------------------------
      1 C                    -0.186868
      2 C                    -0.254852
      3 S                    -0.020100
      4 C                    -0.014235
      5 H                     0.196467
      6 C                    -0.028895
      7 C                     0.250088
      8 C                     0.242989
      9 C                    -0.037394
     10 C                    -0.033748
     11 O                    -0.333270
     12 O                    -0.338942
     13 C                    -0.086421
     14 H                     0.124194
     15 H                     0.091536
     16 H                     0.093884
     17 C                    -0.088432
     18 H                     0.126228
     19 H                     0.095224
     20 H                     0.089460
     21 C                    -0.210518
     22 S                    -0.041413
     23 C                    -0.024367
     24 H                     0.209389
     25 H                     0.206847
     26 C                     0.002601
     27 S                     0.096739
     28 C                    -0.245351
     29 C                    -0.087346
     30 C                    -0.016968
     31 C                     0.372608
     32 C                    -0.135446
     33 S                     0.042172
     34 C                     0.460545
     35 O                    -0.451201
     36 O                    -0.298055
     37 F                    -0.215249
     38 C                    -0.054908
     39 H                     0.116716
     40 H                     0.084600
     41 H                     0.084324
     42 H                     0.217369
  ----------------------------------------
  Sum of atomic charges =     0.000000

                    Cartesian Multipole Moments
 -----------------------------------------------------------------
    Charge (ESU x 10^10)
                 0.0000
    Dipole Moment (Debye)
         X       1.1801      Y       1.2691      Z       3.2137
       Tot       3.6512
    Quadrupole Moments (Debye-Ang)
        XX    -196.8388     XY       2.4775     YY    -157.8706
        XZ     -12.1318     YZ      -9.7827     ZZ    -185.0864

 Total job time:  317.66s(wall), 10187.90s(cpu)
        *  Thank you very much for using Q-Chem.  Have a nice day.  *
