 Q-Chem 5.4, Q-Chem, Inc., Pleasanton, CA (2021)
 Q-Chem 5.4.0 for Intel X86 EM64T Linux

User input:
--------------------------------------------------------------
$molecule
0 1
C	-0.092419	-8.519741	-0.255929
C	0.449364	-7.635967	0.666007
S	-0.885736	-7.651740	-1.592708
C	0.254813	-6.261894	0.332317
H	0.980526	-7.954738	1.571741
C	-0.458965	-6.079985	-0.904324
C	-0.767823	-4.798382	-1.385968
C	0.681909	-5.153542	1.118303
C	0.369139	-3.869626	0.638514
C	-0.342916	-3.688927	-0.600871
O	1.368544	-5.481075	2.248132
O	-1.458570	-4.479871	-2.520275
C	-1.405396	-5.356026	-3.639637
H	-1.820940	-4.790496	-4.495304
H	-2.023129	-6.268513	-3.490336
H	-0.361595	-5.658187	-3.873314
C	1.480048	-4.546999	3.314934
H	1.899255	-5.107564	4.171837
H	0.490123	-4.131473	3.601473
H	2.171521	-3.712085	3.068969
C	-0.537642	-2.314326	-0.930308
S	0.785807	-2.295487	1.334769
C	0.000000	-1.435180	0.000000
H	-1.066134	-1.993211	-1.836691
H	-0.091781	-9.615985	-0.249906
C	0.000000	0.000000	0.000000
S	0.234946	0.868203	1.510732
C	0.641630	2.390125	0.727629
C	0.235036	0.877284	-1.064665
C	0.593019	2.219143	-0.678287
C	0.219452	0.812732	-2.486150
C	0.546689	2.034501	-3.106916
S	0.866345	3.240357	-1.965735
C	0.617067	2.279095	-4.559972
O	0.378342	1.376631	-5.350277
O	0.952308	3.517725	-5.004375
F	-0.065123	-0.264443	-3.246290
C	1.054950	3.861577	-6.334976
H	1.341516	4.928732	-6.370268
H	0.093573	3.716085	-6.875609
H	1.822303	3.252232	-6.861878
H	0.879812	3.278780	1.321510
$end

$rem
JOBTYPE		SP
EXCHANGE	HF
CORRELATION	pRIMP2
BASIS		cc-pvtz
METHOD		rimp2
AUX_BASIS	rimp2-cc-pvtz
SOLVENT_METHOD	PCM
PURECART	11111
SYMMETRY	false
MEM_TOTAL	110000
SCF_CONVERGENCE = 6
THRESH=10
GUI = 2
$end

$solvent
dielectric 4.90
$end
--------------------------------------------------------------

             Standard Nuclear Orientation (Angstroms)
    I     Atom           X                Y                Z
 ----------------------------------------------------------------
    1      C      -0.0924190000    -8.5197410000    -0.2559290000
    2      C       0.4493640000    -7.6359670000     0.6660070000
    3      S      -0.8857360000    -7.6517400000    -1.5927080000
    4      C       0.2548130000    -6.2618940000     0.3323170000
    5      H       0.9805260000    -7.9547380000     1.5717410000
    6      C      -0.4589650000    -6.0799850000    -0.9043240000
    7      C      -0.7678230000    -4.7983820000    -1.3859680000
    8      C       0.6819090000    -5.1535420000     1.1183030000
    9      C       0.3691390000    -3.8696260000     0.6385140000
   10      C      -0.3429160000    -3.6889270000    -0.6008710000
   11      O       1.3685440000    -5.4810750000     2.2481320000
   12      O      -1.4585700000    -4.4798710000    -2.5202750000
   13      C      -1.4053960000    -5.3560260000    -3.6396370000
   14      H      -1.8209400000    -4.7904960000    -4.4953040000
   15      H      -2.0231290000    -6.2685130000    -3.4903360000
   16      H      -0.3615950000    -5.6581870000    -3.8733140000
   17      C       1.4800480000    -4.5469990000     3.3149340000
   18      H       1.8992550000    -5.1075640000     4.1718370000
   19      H       0.4901230000    -4.1314730000     3.6014730000
   20      H       2.1715210000    -3.7120850000     3.0689690000
   21      C      -0.5376420000    -2.3143260000    -0.9303080000
   22      S       0.7858070000    -2.2954870000     1.3347690000
   23      C       0.0000000000    -1.4351800000     0.0000000000
   24      H      -1.0661340000    -1.9932110000    -1.8366910000
   25      H      -0.0917810000    -9.6159850000    -0.2499060000
   26      C       0.0000000000     0.0000000000     0.0000000000
   27      S       0.2349460000     0.8682030000     1.5107320000
   28      C       0.6416300000     2.3901250000     0.7276290000
   29      C       0.2350360000     0.8772840000    -1.0646650000
   30      C       0.5930190000     2.2191430000    -0.6782870000
   31      C       0.2194520000     0.8127320000    -2.4861500000
   32      C       0.5466890000     2.0345010000    -3.1069160000
   33      S       0.8663450000     3.2403570000    -1.9657350000
   34      C       0.6170670000     2.2790950000    -4.5599720000
   35      O       0.3783420000     1.3766310000    -5.3502770000
   36      O       0.9523080000     3.5177250000    -5.0043750000
   37      F      -0.0651230000    -0.2644430000    -3.2462900000
   38      C       1.0549500000     3.8615770000    -6.3349760000
   39      H       1.3415160000     4.9287320000    -6.3702680000
   40      H       0.0935730000     3.7160850000    -6.8756090000
   41      H       1.8223030000     3.2522320000    -6.8618780000
   42      H       0.8798120000     3.2787800000     1.3215100000
 ----------------------------------------------------------------

   10   -2754.2941179324      7.80e-07  Convergence criterion met
 Total energy in the final basis set =    -2754.2941179324
        RIMP2         total energy =     -2759.3497144626 a.u.

                    Orbital Energies (a.u.)
 --------------------------------------------------------------

 Alpha MOs
 -- Occupied --
-92.0162 -91.9952 -91.9918 -91.9867 -26.3359 -20.6119 -20.5930 -20.5912
-20.5498 -11.4102 -11.3780 -11.3200 -11.3185 -11.3122 -11.2975 -11.2970
-11.2960 -11.2937 -11.2884 -11.2878 -11.2871 -11.2853 -11.2845 -11.2823
-11.2802 -11.2618 -11.2597 -11.2568 -11.2502  -9.0146  -8.9992  -8.9922
 -8.9866  -6.6954  -6.6948  -6.6943  -6.6805  -6.6798  -6.6785  -6.6732
 -6.6725  -6.6715  -6.6675  -6.6669  -6.6661  -1.6493  -1.4717  -1.4171
 -1.4140  -1.3670  -1.2341  -1.1969  -1.1695  -1.1426  -1.0846  -1.0526
 -1.0482  -1.0282  -1.0033  -0.9937  -0.9723  -0.9612  -0.9507  -0.9383
 -0.8968  -0.8697  -0.8513  -0.8049  -0.7950  -0.7884  -0.7721  -0.7699
 -0.7578  -0.7326  -0.7198  -0.7171  -0.7016  -0.6893  -0.6838  -0.6785
 -0.6721  -0.6618  -0.6595  -0.6525  -0.6297  -0.6201  -0.6164  -0.6064
 -0.6010  -0.5947  -0.5880  -0.5769  -0.5687  -0.5604  -0.5553  -0.5479
 -0.5376  -0.5270  -0.5224  -0.5188  -0.5172  -0.5091  -0.5047  -0.4957
 -0.4865  -0.4846  -0.4784  -0.4691  -0.4620  -0.4613  -0.4599  -0.4209
 -0.3978  -0.3861  -0.3588  -0.3506  -0.3240  -0.2858  -0.2493

          Ground-State Mulliken Net Atomic Charges

     Atom                 Charge (a.u.)
  ----------------------------------------
      1 C                    -0.187300
      2 C                    -0.254981
      3 S                    -0.020691
      4 C                    -0.012938
      5 H                     0.196356
      6 C                    -0.028542
      7 C                     0.246072
      8 C                     0.239952
      9 C                    -0.043914
     10 C                    -0.029186
     11 O                    -0.332998
     12 O                    -0.339143
     13 C                    -0.085721
     14 H                     0.123855
     15 H                     0.090783
     16 H                     0.094209
     17 C                    -0.087942
     18 H                     0.125597
     19 H                     0.094781
     20 H                     0.089676
     21 C                    -0.222129
     22 S                    -0.022697
     23 C                    -0.040074
     24 H                     0.195644
     25 H                     0.206682
     26 C                     0.004807
     27 S                     0.090056
     28 C                    -0.229654
     29 C                    -0.055811
     30 C                    -0.019490
     31 C                     0.371603
     32 C                    -0.140295
     33 S                     0.039933
     34 C                     0.457905
     35 O                    -0.450941
     36 O                    -0.298012
     37 F                    -0.212605
     38 C                    -0.054888
     39 H                     0.116596
     40 H                     0.084430
     41 H                     0.084423
     42 H                     0.216593
  ----------------------------------------
  Sum of atomic charges =     0.000000

                    Cartesian Multipole Moments
 -----------------------------------------------------------------
    Charge (ESU x 10^10)
                -0.0000
    Dipole Moment (Debye)
         X       1.1623      Y       1.3560      Z       3.1298
       Tot       3.6035
    Quadrupole Moments (Debye-Ang)
        XX    -198.7280     XY       2.9249     YY    -158.8329
        XZ       4.2027     YZ      -9.0326     ZZ    -183.2926

 Total job time:  306.92s(wall), 9538.88s(cpu)
        *  Thank you very much for using Q-Chem.  Have a nice day.  *
