 Q-Chem 5.4, Q-Chem, Inc., Pleasanton, CA (2021)
 Q-Chem 5.4.0 for Intel X86 EM64T Linux

User input:
--------------------------------------------------------------
$molecule
0 1
C	-0.272104	-8.519741	-0.000687
C	0.779533	-7.635967	-0.194476
S	-1.799596	-7.651740	0.287581
C	0.399427	-6.261894	-0.125787
H	1.812314	-7.954738	-0.383826
C	-1.006762	-6.079985	0.121989
C	-1.564994	-4.798382	0.247488
C	1.284087	-5.153542	-0.258303
C	0.726260	-3.869626	-0.128493
C	-0.681918	-3.688927	0.116725
O	2.580622	-5.481075	-0.517104
O	-2.867144	-4.479871	0.508622
C	-3.900814	-5.356026	0.075811
H	-4.847002	-4.790496	0.173640
H	-3.971794	-6.268513	0.707354
H	-3.763397	-5.658187	-0.984963
C	3.621225	-4.546999	-0.257016
H	4.569828	-5.107564	-0.357864
H	3.551910	-4.131473	0.771211
H	3.626592	-3.712085	-0.990913
C	-1.058088	-2.314326	0.187034
S	1.523035	-2.295487	-0.281899
C	0.000000	-1.435180	0.000000
H	-2.090565	-1.993211	0.373653
H	-0.266226	-9.615985	0.000773
C	0.000000	0.000000	0.000000
S	0.234946	0.868203	1.510732
C	0.641630	2.390125	0.727629
C	0.235036	0.877284	-1.064665
C	0.593019	2.219143	-0.678287
C	0.219452	0.812732	-2.486150
C	0.546689	2.034501	-3.106916
S	0.866345	3.240357	-1.965735
C	0.617067	2.279095	-4.559972
O	0.378342	1.376631	-5.350277
O	0.952308	3.517725	-5.004375
F	-0.065123	-0.264443	-3.246290
C	1.054950	3.861577	-6.334976
H	1.341516	4.928732	-6.370268
H	0.093573	3.716085	-6.875609
H	1.822303	3.252232	-6.861878
H	0.879812	3.278780	1.321510
$end

$rem
JOBTYPE		SP
EXCHANGE	HF
CORRELATION	pRIMP2
BASIS		cc-pvtz
METHOD		rimp2
AUX_BASIS	rimp2-cc-pvtz
SOLVENT_METHOD	PCM
PURECART	11111
SYMMETRY	false
MEM_TOTAL	110000
SCF_CONVERGENCE = 6
THRESH=10
GUI = 2
$end

$solvent
dielectric 4.90
$end
--------------------------------------------------------------

             Standard Nuclear Orientation (Angstroms)
    I     Atom           X                Y                Z
 ----------------------------------------------------------------
    1      C      -0.2721040000    -8.5197410000    -0.0006870000
    2      C       0.7795330000    -7.6359670000    -0.1944760000
    3      S      -1.7995960000    -7.6517400000     0.2875810000
    4      C       0.3994270000    -6.2618940000    -0.1257870000
    5      H       1.8123140000    -7.9547380000    -0.3838260000
    6      C      -1.0067620000    -6.0799850000     0.1219890000
    7      C      -1.5649940000    -4.7983820000     0.2474880000
    8      C       1.2840870000    -5.1535420000    -0.2583030000
    9      C       0.7262600000    -3.8696260000    -0.1284930000
   10      C      -0.6819180000    -3.6889270000     0.1167250000
   11      O       2.5806220000    -5.4810750000    -0.5171040000
   12      O      -2.8671440000    -4.4798710000     0.5086220000
   13      C      -3.9008140000    -5.3560260000     0.0758110000
   14      H      -4.8470020000    -4.7904960000     0.1736400000
   15      H      -3.9717940000    -6.2685130000     0.7073540000
   16      H      -3.7633970000    -5.6581870000    -0.9849630000
   17      C       3.6212250000    -4.5469990000    -0.2570160000
   18      H       4.5698280000    -5.1075640000    -0.3578640000
   19      H       3.5519100000    -4.1314730000     0.7712110000
   20      H       3.6265920000    -3.7120850000    -0.9909130000
   21      C      -1.0580880000    -2.3143260000     0.1870340000
   22      S       1.5230350000    -2.2954870000    -0.2818990000
   23      C       0.0000000000    -1.4351800000     0.0000000000
   24      H      -2.0905650000    -1.9932110000     0.3736530000
   25      H      -0.2662260000    -9.6159850000     0.0007730000
   26      C       0.0000000000     0.0000000000     0.0000000000
   27      S       0.2349460000     0.8682030000     1.5107320000
   28      C       0.6416300000     2.3901250000     0.7276290000
   29      C       0.2350360000     0.8772840000    -1.0646650000
   30      C       0.5930190000     2.2191430000    -0.6782870000
   31      C       0.2194520000     0.8127320000    -2.4861500000
   32      C       0.5466890000     2.0345010000    -3.1069160000
   33      S       0.8663450000     3.2403570000    -1.9657350000
   34      C       0.6170670000     2.2790950000    -4.5599720000
   35      O       0.3783420000     1.3766310000    -5.3502770000
   36      O       0.9523080000     3.5177250000    -5.0043750000
   37      F      -0.0651230000    -0.2644430000    -3.2462900000
   38      C       1.0549500000     3.8615770000    -6.3349760000
   39      H       1.3415160000     4.9287320000    -6.3702680000
   40      H       0.0935730000     3.7160850000    -6.8756090000
   41      H       1.8223030000     3.2522320000    -6.8618780000
   42      H       0.8798120000     3.2787800000     1.3215100000
 ----------------------------------------------------------------

   10   -2754.2919209042      8.76e-07  Convergence criterion met
 Total energy in the final basis set =    -2754.2919209042
        RIMP2         total energy =     -2759.3453089483 a.u.

                    Orbital Energies (a.u.)
 --------------------------------------------------------------

 Alpha MOs
 -- Occupied --
-92.0161 -91.9948 -91.9898 -91.9866 -26.3337 -20.6121 -20.5923 -20.5918
-20.5502 -11.4104 -11.3770 -11.3192 -11.3187 -11.3073 -11.2978 -11.2962
-11.2947 -11.2926 -11.2884 -11.2870 -11.2866 -11.2862 -11.2841 -11.2829
-11.2803 -11.2606 -11.2597 -11.2587 -11.2501  -9.0142  -8.9988  -8.9901
 -8.9865  -6.6949  -6.6943  -6.6939  -6.6801  -6.6794  -6.6781  -6.6710
 -6.6703  -6.6693  -6.6675  -6.6668  -6.6660  -1.6466  -1.4718  -1.4165
 -1.4146  -1.3672  -1.2333  -1.1959  -1.1682  -1.1417  -1.0839  -1.0522
 -1.0473  -1.0276  -1.0024  -0.9930  -0.9712  -0.9614  -0.9505  -0.9382
 -0.8959  -0.8692  -0.8504  -0.8052  -0.7902  -0.7884  -0.7739  -0.7678
 -0.7582  -0.7328  -0.7178  -0.7149  -0.7011  -0.6887  -0.6831  -0.6785
 -0.6711  -0.6604  -0.6592  -0.6527  -0.6307  -0.6202  -0.6172  -0.6064
 -0.6023  -0.5947  -0.5822  -0.5792  -0.5670  -0.5656  -0.5563  -0.5506
 -0.5353  -0.5263  -0.5244  -0.5160  -0.5140  -0.5081  -0.5011  -0.4946
 -0.4906  -0.4840  -0.4752  -0.4685  -0.4617  -0.4612  -0.4605  -0.4052
 -0.4017  -0.3871  -0.3570  -0.3493  -0.3145  -0.2892  -0.2594

          Ground-State Mulliken Net Atomic Charges

     Atom                 Charge (a.u.)
  ----------------------------------------
      1 C                    -0.186948
      2 C                    -0.254679
      3 S                    -0.021835
      4 C                    -0.012093
      5 H                     0.196545
      6 C                    -0.027972
      7 C                     0.246840
      8 C                     0.239529
      9 C                    -0.041421
     10 C                    -0.027233
     11 O                    -0.333122
     12 O                    -0.339765
     13 C                    -0.085620
     14 H                     0.122652
     15 H                     0.090914
     16 H                     0.094721
     17 C                    -0.086602
     18 H                     0.124914
     19 H                     0.094298
     20 H                     0.090382
     21 C                    -0.219838
     22 S                     0.000543
     23 C                    -0.061052
     24 H                     0.196533
     25 H                     0.206662
     26 C                     0.005518
     27 S                     0.121294
     28 C                    -0.237413
     29 C                    -0.118138
     30 C                     0.000914
     31 C                     0.389528
     32 C                    -0.156984
     33 S                     0.040193
     34 C                     0.460497
     35 O                    -0.449343
     36 O                    -0.297801
     37 F                    -0.210278
     38 C                    -0.054922
     39 H                     0.116537
     40 H                     0.084661
     41 H                     0.084529
     42 H                     0.214858
  ----------------------------------------
  Sum of atomic charges =     0.000000

                    Cartesian Multipole Moments
 -----------------------------------------------------------------
    Charge (ESU x 10^10)
                 0.0000
    Dipole Moment (Debye)
         X       0.9698      Y       1.4926      Z       2.9939
       Tot       3.4831
    Quadrupole Moments (Debye-Ang)
        XX    -175.3939     XY       4.7778     YY    -159.1525
        XZ      -1.4463     YZ      -8.9987     ZZ    -206.3548

 Total job time:  374.29s(wall), 9816.86s(cpu)
        *  Thank you very much for using Q-Chem.  Have a nice day.  *
