 Q-Chem 5.4, Q-Chem, Inc., Pleasanton, CA (2021)
 Q-Chem 5.4.0 for Intel X86 EM64T Linux

User input:
--------------------------------------------------------------
$molecule
0 1
C	-0.174379	-8.519741	-0.208886
C	0.650052	-7.635967	0.472151
S	-1.377058	-7.651740	-1.193717
C	0.353105	-6.261894	0.225125
H	1.458961	-7.954738	1.141594
C	-0.740583	-6.079985	-0.692811
C	-1.195546	-4.798382	-1.039773
C	1.023267	-5.153542	0.817634
C	0.565262	-3.869626	0.473754
C	-0.527745	-3.688927	-0.447350
O	2.054917	-5.481075	1.644483
O	-2.232592	-4.479871	-1.869424
C	-2.565470	-5.356026	-2.939466
H	-3.248608	-4.790496	-3.601405
H	-3.094885	-6.268513	-2.587892
H	-1.664539	-5.658187	-3.516052
C	2.524564	-4.546999	2.608813
H	3.211568	-5.107564	3.270661
H	1.692342	-4.131473	3.216646
H	3.090211	-3.712085	2.141184
C	-0.823402	-2.314326	-0.690319
S	1.194935	-2.295487	0.985511
C	-0.000000	-1.435180	-0.000000
H	-1.630024	-1.993211	-1.361286
H	-0.171719	-9.615985	-0.203444
C	0.000000	0.000000	0.000000
S	0.158383	0.885376	1.510732
C	0.430876	2.436951	0.727629
C	0.157682	0.894430	-1.064665
C	0.397351	2.262384	-0.678287
C	0.147783	0.828765	-2.486150
C	0.367291	2.074406	-3.106916
S	0.580633	3.303533	-1.965735
C	0.416083	2.324204	-4.559972
O	0.256921	1.404367	-5.350277
O	0.642094	3.587338	-5.004375
F	-0.041828	-0.269113	-3.246290
C	0.714377	3.938827	-6.334976
H	0.906844	5.026898	-6.370268
H	-0.230661	3.710099	-6.875609
H	1.531918	3.398681	-6.861878
H	0.590699	3.342984	1.321510
$end

$rem
JOBTYPE		SP
EXCHANGE	HF
CORRELATION	pRIMP2
BASIS		cc-pvtz
METHOD		rimp2
AUX_BASIS	rimp2-cc-pvtz
SOLVENT_METHOD	PCM
PURECART	11111
SYMMETRY	false
MEM_TOTAL	110000
SCF_CONVERGENCE = 6
THRESH=10
GUI = 2
$end

$solvent
dielectric 4.90
$end
--------------------------------------------------------------

             Standard Nuclear Orientation (Angstroms)
    I     Atom           X                Y                Z
 ----------------------------------------------------------------
    1      C      -0.1743790000    -8.5197410000    -0.2088860000
    2      C       0.6500520000    -7.6359670000     0.4721510000
    3      S      -1.3770580000    -7.6517400000    -1.1937170000
    4      C       0.3531050000    -6.2618940000     0.2251250000
    5      H       1.4589610000    -7.9547380000     1.1415940000
    6      C      -0.7405830000    -6.0799850000    -0.6928110000
    7      C      -1.1955460000    -4.7983820000    -1.0397730000
    8      C       1.0232670000    -5.1535420000     0.8176340000
    9      C       0.5652620000    -3.8696260000     0.4737540000
   10      C      -0.5277450000    -3.6889270000    -0.4473500000
   11      O       2.0549170000    -5.4810750000     1.6444830000
   12      O      -2.2325920000    -4.4798710000    -1.8694240000
   13      C      -2.5654700000    -5.3560260000    -2.9394660000
   14      H      -3.2486080000    -4.7904960000    -3.6014050000
   15      H      -3.0948850000    -6.2685130000    -2.5878920000
   16      H      -1.6645390000    -5.6581870000    -3.5160520000
   17      C       2.5245640000    -4.5469990000     2.6088130000
   18      H       3.2115680000    -5.1075640000     3.2706610000
   19      H       1.6923420000    -4.1314730000     3.2166460000
   20      H       3.0902110000    -3.7120850000     2.1411840000
   21      C      -0.8234020000    -2.3143260000    -0.6903190000
   22      S       1.1949350000    -2.2954870000     0.9855110000
   23      C       0.0000000000    -1.4351800000     0.0000000000
   24      H      -1.6300240000    -1.9932110000    -1.3612860000
   25      H      -0.1717190000    -9.6159850000    -0.2034440000
   26      C       0.0000000000     0.0000000000     0.0000000000
   27      S       0.1583830000     0.8853760000     1.5107320000
   28      C       0.4308760000     2.4369510000     0.7276290000
   29      C       0.1576820000     0.8944300000    -1.0646650000
   30      C       0.3973510000     2.2623840000    -0.6782870000
   31      C       0.1477830000     0.8287650000    -2.4861500000
   32      C       0.3672910000     2.0744060000    -3.1069160000
   33      S       0.5806330000     3.3035330000    -1.9657350000
   34      C       0.4160830000     2.3242040000    -4.5599720000
   35      O       0.2569210000     1.4043670000    -5.3502770000
   36      O       0.6420940000     3.5873380000    -5.0043750000
   37      F      -0.0418280000    -0.2691130000    -3.2462900000
   38      C       0.7143770000     3.9388270000    -6.3349760000
   39      H       0.9068440000     5.0268980000    -6.3702680000
   40      H      -0.2306610000     3.7100990000    -6.8756090000
   41      H       1.5319180000     3.3986810000    -6.8618780000
   42      H       0.5906990000     3.3429840000     1.3215100000
 ----------------------------------------------------------------

   10   -2754.2958997314      7.92e-07  Convergence criterion met
 Total energy in the final basis set =    -2754.2958997314
        RIMP2         total energy =     -2759.3493486780 a.u.

                    Orbital Energies (a.u.)
 --------------------------------------------------------------

 Alpha MOs
 -- Occupied --
-92.0160 -91.9945 -91.9917 -91.9867 -26.3342 -20.6118 -20.5929 -20.5915
-20.5497 -11.4100 -11.3774 -11.3198 -11.3187 -11.3114 -11.2966 -11.2966
-11.2948 -11.2933 -11.2883 -11.2877 -11.2871 -11.2856 -11.2844 -11.2824
-11.2803 -11.2616 -11.2598 -11.2583 -11.2502  -9.0143  -8.9985  -8.9920
 -8.9866  -6.6950  -6.6945  -6.6940  -6.6798  -6.6791  -6.6778  -6.6730
 -6.6723  -6.6713  -6.6676  -6.6669  -6.6661  -1.6471  -1.4716  -1.4170
 -1.4142  -1.3668  -1.2333  -1.1966  -1.1690  -1.1421  -1.0844  -1.0526
 -1.0475  -1.0276  -1.0030  -0.9935  -0.9716  -0.9615  -0.9507  -0.9383
 -0.8966  -0.8692  -0.8511  -0.8038  -0.7931  -0.7881  -0.7724  -0.7700
 -0.7582  -0.7328  -0.7185  -0.7153  -0.7017  -0.6888  -0.6833  -0.6783
 -0.6711  -0.6610  -0.6595  -0.6526  -0.6303  -0.6202  -0.6170  -0.6062
 -0.6016  -0.5943  -0.5861  -0.5779  -0.5683  -0.5615  -0.5557  -0.5494
 -0.5375  -0.5262  -0.5232  -0.5167  -0.5165  -0.5083  -0.5032  -0.4946
 -0.4886  -0.4839  -0.4773  -0.4703  -0.4620  -0.4611  -0.4605  -0.4151
 -0.3976  -0.3870  -0.3583  -0.3499  -0.3207  -0.2869  -0.2537

          Ground-State Mulliken Net Atomic Charges

     Atom                 Charge (a.u.)
  ----------------------------------------
      1 C                    -0.187001
      2 C                    -0.254827
      3 S                    -0.021045
      4 C                    -0.012964
      5 H                     0.196470
      6 C                    -0.027085
      7 C                     0.245212
      8 C                     0.239882
      9 C                    -0.044809
     10 C                    -0.028604
     11 O                    -0.332978
     12 O                    -0.339544
     13 C                    -0.085655
     14 H                     0.123296
     15 H                     0.090716
     16 H                     0.094629
     17 C                    -0.087239
     18 H                     0.125240
     19 H                     0.094558
     20 H                     0.089884
     21 C                    -0.222418
     22 S                    -0.008269
     23 C                    -0.044439
     24 H                     0.196028
     25 H                     0.206693
     26 C                    -0.004171
     27 S                     0.104163
     28 C                    -0.235843
     29 C                    -0.072642
     30 C                    -0.009160
     31 C                     0.378986
     32 C                    -0.149802
     33 S                     0.037502
     34 C                     0.459184
     35 O                    -0.450813
     36 O                    -0.297924
     37 F                    -0.211215
     38 C                    -0.054941
     39 H                     0.116527
     40 H                     0.084390
     41 H                     0.084480
     42 H                     0.215548
  ----------------------------------------
  Sum of atomic charges =     0.000000

                    Cartesian Multipole Moments
 -----------------------------------------------------------------
    Charge (ESU x 10^10)
                 0.0000
    Dipole Moment (Debye)
         X       0.8036      Y       1.3539      Z       3.0943
       Tot       3.4718
    Quadrupole Moments (Debye-Ang)
        XX    -192.2718     XY       2.1059     YY    -158.3465
        XZ      10.3367     YZ      -8.9279     ZZ    -190.4239

 Total job time:  277.28s(wall), 9125.36s(cpu)
        *  Thank you very much for using Q-Chem.  Have a nice day.  *
