 Q-Chem 5.4, Q-Chem, Inc., Pleasanton, CA (2021)
 Q-Chem 5.4.0 for Intel X86 EM64T Linux

User input:
--------------------------------------------------------------
$molecule
0 1
C	0.175432	-8.519741	-0.208002
C	-0.352097	-7.635967	0.722164
S	0.936458	-7.651740	-1.563424
C	-0.160388	-6.261894	0.386833
H	-0.870905	-7.954738	1.635031
C	0.553685	-6.079985	-0.849637
C	0.816372	-4.798382	-1.357938
C	-0.627524	-5.153542	1.149702
C	-0.368399	-3.869626	0.638941
C	0.348912	-3.688927	-0.597409
O	-1.262667	-5.481075	2.309260
O	1.453338	-4.479871	-2.523296
C	2.449320	-5.356026	-3.036927
H	2.982577	-4.790496	-3.824632
H	2.011155	-6.268513	-3.497250
H	3.173591	-5.658187	-2.249807
C	-2.130793	-4.546999	2.939226
H	-2.663289	-5.107564	3.730721
H	-2.873906	-4.131473	2.225196
H	-1.572045	-3.712085	3.415077
C	0.536849	-2.314326	-0.930765
S	-0.763041	-2.295487	1.347913
C	0.000000	-1.435180	0.000000
H	1.057554	-1.993211	-1.841645
H	0.170535	-9.615985	-0.204438
C	0.000000	0.000000	0.000000
S	0.780044	0.447780	1.510732
C	2.143774	1.236372	0.727629
C	0.786529	0.454137	-1.064665
C	1.988499	1.149844	-0.678287
C	0.729864	0.419512	-2.486150
C	1.825177	1.052041	-3.106916
S	2.903877	1.678680	-1.965735
C	2.047896	1.175232	-4.559972
O	1.240953	0.705897	-5.350277
O	3.160791	1.814024	-5.004375
F	-0.233039	-0.140940	-3.246290
C	3.476510	1.984585	-6.334976
H	4.433735	2.536545	-6.370268
H	2.693835	2.561503	-6.875609
H	3.588239	1.011113	-6.861878
H	2.940569	1.696327	1.321510
$end

$rem
JOBTYPE		SP
EXCHANGE	HF
CORRELATION	pRIMP2
BASIS		cc-pvtz
METHOD		rimp2
AUX_BASIS	rimp2-cc-pvtz
SOLVENT_METHOD	PCM
PURECART	11111
SYMMETRY	false
MEM_TOTAL	110000
SCF_CONVERGENCE = 6
THRESH=10
GUI = 2
$end

$solvent
dielectric 4.90
$end
--------------------------------------------------------------

             Standard Nuclear Orientation (Angstroms)
    I     Atom           X                Y                Z
 ----------------------------------------------------------------
    1      C       0.1754320000    -8.5197410000    -0.2080020000
    2      C      -0.3520970000    -7.6359670000     0.7221640000
    3      S       0.9364580000    -7.6517400000    -1.5634240000
    4      C      -0.1603880000    -6.2618940000     0.3868330000
    5      H      -0.8709050000    -7.9547380000     1.6350310000
    6      C       0.5536850000    -6.0799850000    -0.8496370000
    7      C       0.8163720000    -4.7983820000    -1.3579380000
    8      C      -0.6275240000    -5.1535420000     1.1497020000
    9      C      -0.3683990000    -3.8696260000     0.6389410000
   10      C       0.3489120000    -3.6889270000    -0.5974090000
   11      O      -1.2626670000    -5.4810750000     2.3092600000
   12      O       1.4533380000    -4.4798710000    -2.5232960000
   13      C       2.4493200000    -5.3560260000    -3.0369270000
   14      H       2.9825770000    -4.7904960000    -3.8246320000
   15      H       2.0111550000    -6.2685130000    -3.4972500000
   16      H       3.1735910000    -5.6581870000    -2.2498070000
   17      C      -2.1307930000    -4.5469990000     2.9392260000
   18      H      -2.6632890000    -5.1075640000     3.7307210000
   19      H      -2.8739060000    -4.1314730000     2.2251960000
   20      H      -1.5720450000    -3.7120850000     3.4150770000
   21      C       0.5368490000    -2.3143260000    -0.9307650000
   22      S      -0.7630410000    -2.2954870000     1.3479130000
   23      C       0.0000000000    -1.4351800000     0.0000000000
   24      H       1.0575540000    -1.9932110000    -1.8416450000
   25      H       0.1705350000    -9.6159850000    -0.2044380000
   26      C       0.0000000000     0.0000000000     0.0000000000
   27      S       0.7800440000     0.4477800000     1.5107320000
   28      C       2.1437740000     1.2363720000     0.7276290000
   29      C       0.7865290000     0.4541370000    -1.0646650000
   30      C       1.9884990000     1.1498440000    -0.6782870000
   31      C       0.7298640000     0.4195120000    -2.4861500000
   32      C       1.8251770000     1.0520410000    -3.1069160000
   33      S       2.9038770000     1.6786800000    -1.9657350000
   34      C       2.0478960000     1.1752320000    -4.5599720000
   35      O       1.2409530000     0.7058970000    -5.3502770000
   36      O       3.1607910000     1.8140240000    -5.0043750000
   37      F      -0.2330390000    -0.1409400000    -3.2462900000
   38      C       3.4765100000     1.9845850000    -6.3349760000
   39      H       4.4337350000     2.5365450000    -6.3702680000
   40      H       2.6938350000     2.5615030000    -6.8756090000
   41      H       3.5882390000     1.0111130000    -6.8618780000
   42      H       2.9405690000     1.6963270000     1.3215100000
 ----------------------------------------------------------------

   11   -2754.2337227603      6.68e-07  Convergence criterion met
 Total energy in the final basis set =    -2754.2337227603
        RIMP2         total energy =     -2759.3062778851 a.u.

                    Orbital Energies (a.u.)
 --------------------------------------------------------------

 Alpha MOs
 -- Occupied --
-92.0191 -92.0083 -91.9829 -91.9807 -26.3353 -20.6166 -20.5903 -20.5867
-20.5578 -11.4171 -11.3774 -11.3297 -11.3160 -11.3136 -11.3099 -11.3034
-11.2967 -11.2964 -11.2909 -11.2856 -11.2835 -11.2805 -11.2787 -11.2769
-11.2745 -11.2568 -11.2521 -11.2472 -11.2392  -9.0182  -9.0117  -8.9829
 -8.9819  -6.6987  -6.6978  -6.6977  -6.6929  -6.6923  -6.6910  -6.6638
 -6.6632  -6.6630  -6.6624  -6.6622  -6.6613  -1.6485  -1.4768  -1.4142
 -1.4096  -1.3730  -1.2461  -1.1925  -1.1711  -1.1449  -1.0852  -1.0532
 -1.0470  -1.0345  -0.9978  -0.9928  -0.9770  -0.9578  -0.9480  -0.9386
 -0.8933  -0.8769  -0.8432  -0.8025  -0.7991  -0.7863  -0.7758  -0.7688
 -0.7531  -0.7304  -0.7212  -0.7162  -0.6990  -0.6939  -0.6825  -0.6789
 -0.6778  -0.6626  -0.6565  -0.6496  -0.6263  -0.6169  -0.6154  -0.6125
 -0.6090  -0.6028  -0.5802  -0.5738  -0.5669  -0.5602  -0.5575  -0.5447
 -0.5341  -0.5250  -0.5234  -0.5171  -0.5137  -0.5078  -0.5062  -0.4965
 -0.4890  -0.4834  -0.4695  -0.4682  -0.4646  -0.4614  -0.4563  -0.4164
 -0.3929  -0.3812  -0.3550  -0.3530  -0.3238  -0.2877  -0.2470

          Ground-State Mulliken Net Atomic Charges

     Atom                 Charge (a.u.)
  ----------------------------------------
      1 C                    -0.198680
      2 C                    -0.253893
      3 S                    -0.028221
      4 C                    -0.022675
      5 H                     0.195001
      6 C                    -0.023087
      7 C                     0.235260
      8 C                     0.247287
      9 C                    -0.046047
     10 C                    -0.022820
     11 O                    -0.334008
     12 O                    -0.342597
     13 C                    -0.085816
     14 H                     0.121351
     15 H                     0.090813
     16 H                     0.092003
     17 C                    -0.086919
     18 H                     0.124881
     19 H                     0.094938
     20 H                     0.088670
     21 C                    -0.265983
     22 S                    -0.054109
     23 C                     0.030971
     24 H                     0.180716
     25 H                     0.204523
     26 C                    -0.168798
     27 S                     0.143986
     28 C                    -0.142977
     29 C                    -0.014555
     30 C                    -0.031799
     31 C                     0.344186
     32 C                    -0.122238
     33 S                     0.080942
     34 C                     0.459707
     35 O                    -0.437341
     36 O                    -0.296723
     37 F                    -0.214348
     38 C                    -0.054632
     39 H                     0.117594
     40 H                     0.086047
     41 H                     0.085828
     42 H                     0.223559
  ----------------------------------------
  Sum of atomic charges =     0.000000

                    Cartesian Multipole Moments
 -----------------------------------------------------------------
    Charge (ESU x 10^10)
                 0.0000
    Dipole Moment (Debye)
         X       5.3571      Y       3.0854      Z       3.1120
       Tot       6.9212
    Quadrupole Moments (Debye-Ang)
        XX    -174.0289     XY       8.8700     YY    -180.8526
        XZ     -23.0522     YZ      -7.7364     ZZ    -189.3925

 Total job time:  307.37s(wall), 9991.02s(cpu)
        *  Thank you very much for using Q-Chem.  Have a nice day.  *
