 Q-Chem 5.4, Q-Chem, Inc., Pleasanton, CA (2021)
 Q-Chem 5.4.0 for Intel X86 EM64T Linux

User input:
--------------------------------------------------------------
$molecule
0 1
C	-0.092419	-8.519741	-0.255929
C	0.449364	-7.635967	0.666007
S	-0.885736	-7.651740	-1.592708
C	0.254813	-6.261894	0.332317
H	0.980526	-7.954738	1.571741
C	-0.458965	-6.079985	-0.904324
C	-0.767823	-4.798382	-1.385968
C	0.681909	-5.153542	1.118303
C	0.369139	-3.869626	0.638514
C	-0.342916	-3.688927	-0.600871
O	1.368544	-5.481075	2.248132
O	-1.458570	-4.479871	-2.520275
C	-1.405396	-5.356026	-3.639637
H	-1.820940	-4.790496	-4.495304
H	-2.023129	-6.268513	-3.490336
H	-0.361595	-5.658187	-3.873314
C	1.480048	-4.546999	3.314934
H	1.899255	-5.107564	4.171837
H	0.490123	-4.131473	3.601473
H	2.171521	-3.712085	3.068969
C	-0.537642	-2.314326	-0.930308
S	0.785807	-2.295487	1.334769
C	-0.000000	-1.435180	-0.000000
H	-1.066134	-1.993211	-1.836691
H	-0.091781	-9.615985	-0.249906
C	0.000000	0.000000	0.000000
S	0.382139	0.814215	1.510732
C	1.046923	2.242395	0.727629
C	0.383804	0.823142	-1.064665
C	0.969360	2.082453	-0.678287
C	0.357247	0.762277	-2.486150
C	0.891671	1.908660	-3.106916
S	1.415865	3.040689	-1.965735
C	1.003453	2.137318	-4.559972
O	0.611644	1.290019	-5.350277
O	1.548687	3.298916	-5.004375
F	-0.110054	-0.249117	-3.246290
C	1.709479	3.619721	-6.334976
H	2.177001	4.620902	-6.370268
H	0.737443	3.643380	-6.875609
H	2.359363	2.886384	-6.861878
H	1.435800	3.076190	1.321510
$end

$rem
JOBTYPE		SP
EXCHANGE	HF
CORRELATION	pRIMP2
BASIS		cc-pvtz
METHOD		rimp2
AUX_BASIS	rimp2-cc-pvtz
SOLVENT_METHOD	PCM
PURECART	11111
SYMMETRY	false
MEM_TOTAL	110000
SCF_CONVERGENCE = 6
THRESH=10
GUI = 2
$end

$solvent
dielectric 4.90
$end
--------------------------------------------------------------

             Standard Nuclear Orientation (Angstroms)
    I     Atom           X                Y                Z
 ----------------------------------------------------------------
    1      C      -0.0924190000    -8.5197410000    -0.2559290000
    2      C       0.4493640000    -7.6359670000     0.6660070000
    3      S      -0.8857360000    -7.6517400000    -1.5927080000
    4      C       0.2548130000    -6.2618940000     0.3323170000
    5      H       0.9805260000    -7.9547380000     1.5717410000
    6      C      -0.4589650000    -6.0799850000    -0.9043240000
    7      C      -0.7678230000    -4.7983820000    -1.3859680000
    8      C       0.6819090000    -5.1535420000     1.1183030000
    9      C       0.3691390000    -3.8696260000     0.6385140000
   10      C      -0.3429160000    -3.6889270000    -0.6008710000
   11      O       1.3685440000    -5.4810750000     2.2481320000
   12      O      -1.4585700000    -4.4798710000    -2.5202750000
   13      C      -1.4053960000    -5.3560260000    -3.6396370000
   14      H      -1.8209400000    -4.7904960000    -4.4953040000
   15      H      -2.0231290000    -6.2685130000    -3.4903360000
   16      H      -0.3615950000    -5.6581870000    -3.8733140000
   17      C       1.4800480000    -4.5469990000     3.3149340000
   18      H       1.8992550000    -5.1075640000     4.1718370000
   19      H       0.4901230000    -4.1314730000     3.6014730000
   20      H       2.1715210000    -3.7120850000     3.0689690000
   21      C      -0.5376420000    -2.3143260000    -0.9303080000
   22      S       0.7858070000    -2.2954870000     1.3347690000
   23      C       0.0000000000    -1.4351800000     0.0000000000
   24      H      -1.0661340000    -1.9932110000    -1.8366910000
   25      H      -0.0917810000    -9.6159850000    -0.2499060000
   26      C       0.0000000000     0.0000000000     0.0000000000
   27      S       0.3821390000     0.8142150000     1.5107320000
   28      C       1.0469230000     2.2423950000     0.7276290000
   29      C       0.3838040000     0.8231420000    -1.0646650000
   30      C       0.9693600000     2.0824530000    -0.6782870000
   31      C       0.3572470000     0.7622770000    -2.4861500000
   32      C       0.8916710000     1.9086600000    -3.1069160000
   33      S       1.4158650000     3.0406890000    -1.9657350000
   34      C       1.0034530000     2.1373180000    -4.5599720000
   35      O       0.6116440000     1.2900190000    -5.3502770000
   36      O       1.5486870000     3.2989160000    -5.0043750000
   37      F      -0.1100540000    -0.2491170000    -3.2462900000
   38      C       1.7094790000     3.6197210000    -6.3349760000
   39      H       2.1770010000     4.6209020000    -6.3702680000
   40      H       0.7374430000     3.6433800000    -6.8756090000
   41      H       2.3593630000     2.8863840000    -6.8618780000
   42      H       1.4358000000     3.0761900000     1.3215100000
 ----------------------------------------------------------------

   10   -2754.2861237725      7.93e-07  Convergence criterion met
 Total energy in the final basis set =    -2754.2861237725
        RIMP2         total energy =     -2759.3447089885 a.u.

                    Orbital Energies (a.u.)
 --------------------------------------------------------------

 Alpha MOs
 -- Occupied --
-92.0163 -91.9967 -91.9911 -91.9860 -26.3360 -20.6125 -20.5926 -20.5903
-20.5508 -11.4110 -11.3779 -11.3194 -11.3169 -11.3085 -11.2991 -11.2985
-11.2973 -11.2957 -11.2887 -11.2876 -11.2853 -11.2848 -11.2844 -11.2838
-11.2792 -11.2609 -11.2584 -11.2532 -11.2497  -9.0149  -9.0006  -8.9916
 -8.9859  -6.6957  -6.6950  -6.6946  -6.6819  -6.6812  -6.6799  -6.6725
 -6.6718  -6.6708  -6.6669  -6.6662  -6.6654  -1.6494  -1.4723  -1.4167
 -1.4131  -1.3677  -1.2354  -1.1959  -1.1693  -1.1430  -1.0841  -1.0518
 -1.0488  -1.0290  -1.0024  -0.9933  -0.9729  -0.9606  -0.9502  -0.9381
 -0.8962  -0.8706  -0.8502  -0.8045  -0.7953  -0.7880  -0.7716  -0.7703
 -0.7571  -0.7317  -0.7202  -0.7173  -0.7010  -0.6898  -0.6831  -0.6790
 -0.6728  -0.6616  -0.6590  -0.6519  -0.6290  -0.6195  -0.6159  -0.6071
 -0.6015  -0.5963  -0.5881  -0.5762  -0.5680  -0.5604  -0.5552  -0.5459
 -0.5374  -0.5276  -0.5218  -0.5182  -0.5170  -0.5090  -0.5048  -0.4953
 -0.4859  -0.4855  -0.4766  -0.4686  -0.4620  -0.4616  -0.4601  -0.4212
 -0.3973  -0.3852  -0.3580  -0.3507  -0.3235  -0.2862  -0.2483

          Ground-State Mulliken Net Atomic Charges

     Atom                 Charge (a.u.)
  ----------------------------------------
      1 C                    -0.189278
      2 C                    -0.254808
      3 S                    -0.021930
      4 C                    -0.014866
      5 H                     0.196088
      6 C                    -0.027854
      7 C                     0.241871
      8 C                     0.240866
      9 C                    -0.047214
     10 C                    -0.024332
     11 O                    -0.333053
     12 O                    -0.339521
     13 C                    -0.085619
     14 H                     0.123569
     15 H                     0.090565
     16 H                     0.093858
     17 C                    -0.088050
     18 H                     0.125583
     19 H                     0.094672
     20 H                     0.089491
     21 C                    -0.235954
     22 S                    -0.020645
     23 C                    -0.035866
     24 H                     0.195732
     25 H                     0.206307
     26 C                     0.001515
     27 S                     0.091748
     28 C                    -0.217175
     29 C                    -0.056185
     30 C                    -0.020996
     31 C                     0.365046
     32 C                    -0.135235
     33 S                     0.045364
     34 C                     0.456519
     35 O                    -0.449127
     36 O                    -0.297900
     37 F                    -0.211537
     38 C                    -0.054774
     39 H                     0.116745
     40 H                     0.084581
     41 H                     0.084614
     42 H                     0.217186
  ----------------------------------------
  Sum of atomic charges =     0.000000

                    Cartesian Multipole Moments
 -----------------------------------------------------------------
    Charge (ESU x 10^10)
                -0.0000
    Dipole Moment (Debye)
         X       1.9203      Y       1.7498      Z       3.1050
       Tot       4.0485
    Quadrupole Moments (Debye-Ang)
        XX    -196.8484     XY       5.1315     YY    -162.3098
        XZ       2.2220     YZ      -8.8901     ZZ    -182.8155

 Total job time:  305.99s(wall), 9717.00s(cpu)
        *  Thank you very much for using Q-Chem.  Have a nice day.  *
