 Q-Chem 5.4, Q-Chem, Inc., Pleasanton, CA (2021)
 Q-Chem 5.4.0 for Intel X86 EM64T Linux

User input:
--------------------------------------------------------------
$molecule
0 1
C	-0.235306	-8.519741	-0.136647
C	0.772334	-7.635967	0.221346
S	-1.702286	-7.651740	-0.650746
C	0.408807	-6.261894	0.090779
H	1.761423	-7.954738	0.573754
C	-0.932876	-6.079985	-0.397735
C	-1.479069	-4.798382	-0.568166
C	1.241204	-5.153542	0.418347
C	0.693206	-3.869626	0.251852
C	-0.648921	-3.688927	-0.239872
O	2.493437	-5.481075	0.842486
O	-2.737331	-4.479871	-0.993092
C	-3.416110	-5.356026	-1.884752
H	-4.284447	-4.790496	-2.273124
H	-3.793352	-6.268513	-1.373310
H	-2.766716	-5.658187	-2.734702
C	3.264581	-4.546999	1.588030
H	4.136519	-5.107564	1.974995
H	2.690439	-4.131473	2.443843
H	3.636177	-3.712085	0.955140
C	-1.009848	-2.314326	-0.367068
S	1.459936	-2.295487	0.517386
C	0.000000	-1.435180	0.000000
H	-1.997308	-1.993211	-0.721689
H	-0.230945	-9.615985	-0.132444
C	0.000000	0.000000	0.000000
S	0.002233	0.899428	1.510732
C	0.001157	2.474749	0.727629
C	-0.000030	0.908223	-1.064665
C	-0.001545	2.297013	-0.678287
C	0.001624	0.841837	-2.486150
C	0.001494	2.106670	-3.106916
S	-0.001841	3.354171	-1.965735
C	0.006168	2.361146	-4.559972
O	0.009152	1.427646	-5.350277
O	0.009405	3.644337	-5.004375
F	0.005539	-0.272288	-3.246290
C	0.019554	4.003038	-6.334976
H	0.020155	5.108000	-6.370268
H	-0.871409	3.613681	-6.875609
H	0.918470	3.613062	-6.861878
H	0.001222	3.394771	1.321510
$end

$rem
JOBTYPE		SP
EXCHANGE	HF
CORRELATION	pRIMP2
BASIS		cc-pvtz
METHOD		rimp2
AUX_BASIS	rimp2-cc-pvtz
SOLVENT_METHOD	PCM
PURECART	11111
SYMMETRY	false
MEM_TOTAL	110000
SCF_CONVERGENCE = 6
THRESH=10
GUI = 2
$end

$solvent
dielectric 4.90
$end
--------------------------------------------------------------

             Standard Nuclear Orientation (Angstroms)
    I     Atom           X                Y                Z
 ----------------------------------------------------------------
    1      C      -0.2353060000    -8.5197410000    -0.1366470000
    2      C       0.7723340000    -7.6359670000     0.2213460000
    3      S      -1.7022860000    -7.6517400000    -0.6507460000
    4      C       0.4088070000    -6.2618940000     0.0907790000
    5      H       1.7614230000    -7.9547380000     0.5737540000
    6      C      -0.9328760000    -6.0799850000    -0.3977350000
    7      C      -1.4790690000    -4.7983820000    -0.5681660000
    8      C       1.2412040000    -5.1535420000     0.4183470000
    9      C       0.6932060000    -3.8696260000     0.2518520000
   10      C      -0.6489210000    -3.6889270000    -0.2398720000
   11      O       2.4934370000    -5.4810750000     0.8424860000
   12      O      -2.7373310000    -4.4798710000    -0.9930920000
   13      C      -3.4161100000    -5.3560260000    -1.8847520000
   14      H      -4.2844470000    -4.7904960000    -2.2731240000
   15      H      -3.7933520000    -6.2685130000    -1.3733100000
   16      H      -2.7667160000    -5.6581870000    -2.7347020000
   17      C       3.2645810000    -4.5469990000     1.5880300000
   18      H       4.1365190000    -5.1075640000     1.9749950000
   19      H       2.6904390000    -4.1314730000     2.4438430000
   20      H       3.6361770000    -3.7120850000     0.9551400000
   21      C      -1.0098480000    -2.3143260000    -0.3670680000
   22      S       1.4599360000    -2.2954870000     0.5173860000
   23      C       0.0000000000    -1.4351800000     0.0000000000
   24      H      -1.9973080000    -1.9932110000    -0.7216890000
   25      H      -0.2309450000    -9.6159850000    -0.1324440000
   26      C       0.0000000000     0.0000000000     0.0000000000
   27      S       0.0022330000     0.8994280000     1.5107320000
   28      C       0.0011570000     2.4747490000     0.7276290000
   29      C      -0.0000300000     0.9082230000    -1.0646650000
   30      C      -0.0015450000     2.2970130000    -0.6782870000
   31      C       0.0016240000     0.8418370000    -2.4861500000
   32      C       0.0014940000     2.1066700000    -3.1069160000
   33      S      -0.0018410000     3.3541710000    -1.9657350000
   34      C       0.0061680000     2.3611460000    -4.5599720000
   35      O       0.0091520000     1.4276460000    -5.3502770000
   36      O       0.0094050000     3.6443370000    -5.0043750000
   37      F       0.0055390000    -0.2722880000    -3.2462900000
   38      C       0.0195540000     4.0030380000    -6.3349760000
   39      H       0.0201550000     5.1080000000    -6.3702680000
   40      H      -0.8714090000     3.6136810000    -6.8756090000
   41      H       0.9184700000     3.6130620000    -6.8618780000
   42      H       0.0012220000     3.3947710000     1.3215100000
 ----------------------------------------------------------------

   10   -2754.2958504344      8.53e-07  Convergence criterion met
 Total energy in the final basis set =    -2754.2958504344
        RIMP2         total energy =     -2759.3479491821 a.u.

                    Orbital Energies (a.u.)
 --------------------------------------------------------------

 Alpha MOs
 -- Occupied --
-92.0158 -91.9941 -91.9906 -91.9867 -26.3337 -20.6119 -20.5927 -20.5918
-20.5498 -11.4101 -11.3771 -11.3196 -11.3191 -11.3103 -11.2968 -11.2959
-11.2936 -11.2932 -11.2883 -11.2874 -11.2871 -11.2860 -11.2843 -11.2825
-11.2805 -11.2613 -11.2600 -11.2597 -11.2502  -9.0140  -8.9981  -8.9909
 -8.9866  -6.6947  -6.6942  -6.6937  -6.6794  -6.6788  -6.6774  -6.6718
 -6.6711  -6.6702  -6.6676  -6.6670  -6.6661  -1.6466  -1.4716  -1.4168
 -1.4146  -1.3669  -1.2328  -1.1964  -1.1685  -1.1416  -1.0842  -1.0525
 -1.0472  -1.0273  -1.0028  -0.9934  -0.9711  -0.9616  -0.9507  -0.9383
 -0.8962  -0.8689  -0.8510  -0.8041  -0.7915  -0.7882  -0.7732  -0.7695
 -0.7585  -0.7330  -0.7180  -0.7148  -0.7017  -0.6886  -0.6834  -0.6783
 -0.6708  -0.6605  -0.6594  -0.6528  -0.6309  -0.6203  -0.6172  -0.6062
 -0.6019  -0.5940  -0.5834  -0.5794  -0.5678  -0.5636  -0.5560  -0.5513
 -0.5362  -0.5259  -0.5239  -0.5163  -0.5153  -0.5080  -0.5018  -0.4936
 -0.4907  -0.4837  -0.4770  -0.4691  -0.4618  -0.4609  -0.4608  -0.4088
 -0.3990  -0.3878  -0.3584  -0.3486  -0.3167  -0.2885  -0.2581

          Ground-State Mulliken Net Atomic Charges

     Atom                 Charge (a.u.)
  ----------------------------------------
      1 C                    -0.186729
      2 C                    -0.254592
      3 S                    -0.020953
      4 C                    -0.013100
      5 H                     0.196501
      6 C                    -0.027430
      7 C                     0.246261
      8 C                     0.240027
      9 C                    -0.048695
     10 C                    -0.030594
     11 O                    -0.333075
     12 O                    -0.339846
     13 C                    -0.085678
     14 H                     0.122917
     15 H                     0.090738
     16 H                     0.094865
     17 C                    -0.086682
     18 H                     0.124925
     19 H                     0.094290
     20 H                     0.090155
     21 C                    -0.212961
     22 S                     0.000888
     23 C                    -0.044409
     24 H                     0.197065
     25 H                     0.206714
     26 C                    -0.026810
     27 S                     0.116576
     28 C                    -0.239660
     29 C                    -0.086558
     30 C                    -0.007063
     31 C                     0.397143
     32 C                    -0.156901
     33 S                     0.036076
     34 C                     0.460678
     35 O                    -0.450587
     36 O                    -0.297815
     37 F                    -0.211323
     38 C                    -0.055011
     39 H                     0.116543
     40 H                     0.084471
     41 H                     0.084514
     42 H                     0.215128
  ----------------------------------------
  Sum of atomic charges =     0.000000

                    Cartesian Multipole Moments
 -----------------------------------------------------------------
    Charge (ESU x 10^10)
                -0.0000
    Dipole Moment (Debye)
         X       0.1024      Y       1.3932      Z       3.0512
       Tot       3.3558
    Quadrupole Moments (Debye-Ang)
        XX    -184.0286     XY       0.0884     YY    -157.8613
        XZ      11.6592     YZ      -9.0067     ZZ    -199.1179

 Total job time:  301.19s(wall), 9293.48s(cpu)
        *  Thank you very much for using Q-Chem.  Have a nice day.  *
