 Q-Chem 5.4, Q-Chem, Inc., Pleasanton, CA (2021)
 Q-Chem 5.4.0 for Intel X86 EM64T Linux

User input:
--------------------------------------------------------------
$molecule
0 1
C	0.136647	-8.519741	-0.235306
C	-0.221346	-7.635967	0.772334
S	0.650746	-7.651740	-1.702286
C	-0.090779	-6.261894	0.408807
H	-0.573754	-7.954738	1.761423
C	0.397735	-6.079985	-0.932876
C	0.568166	-4.798382	-1.479069
C	-0.418347	-5.153542	1.241204
C	-0.251852	-3.869626	0.693206
C	0.239872	-3.688927	-0.648921
O	-0.842486	-5.481075	2.493437
O	0.993092	-4.479871	-2.737331
C	1.884752	-5.356026	-3.416110
H	2.273124	-4.790496	-4.284447
H	1.373310	-6.268513	-3.793352
H	2.734702	-5.658187	-2.766716
C	-1.588030	-4.546999	3.264581
H	-1.974995	-5.107564	4.136519
H	-2.443843	-4.131473	2.690439
H	-0.955140	-3.712085	3.636177
C	0.367068	-2.314326	-1.009848
S	-0.517386	-2.295487	1.459936
C	0.000000	-1.435180	0.000000
H	0.721689	-1.993211	-1.997308
H	0.132444	-9.615985	-0.230945
C	0.000000	0.000000	0.000000
S	0.080615	0.895811	1.510732
C	0.216842	2.465231	0.727629
C	0.079127	0.904769	-1.064665
C	0.198659	2.288406	-0.678287
C	0.074988	0.838492	-2.486150
C	0.185097	2.098524	-3.106916
S	0.290501	3.341568	-1.965735
C	0.211932	2.351623	-4.559972
O	0.133545	1.421416	-5.350277
O	0.326994	3.629649	-5.004375
F	-0.018214	-0.271734	-3.246290
C	0.368367	3.986101	-6.334976
H	0.465270	5.086806	-6.370268
H	-0.553140	3.675878	-6.875609
H	1.229874	3.519263	-6.861878
H	0.297091	3.381746	1.321510
$end

$rem
JOBTYPE		SP
EXCHANGE	HF
CORRELATION	pRIMP2
BASIS		cc-pvtz
METHOD		rimp2
AUX_BASIS	rimp2-cc-pvtz
SOLVENT_METHOD	PCM
PURECART	11111
SYMMETRY	false
MEM_TOTAL	110000
SCF_CONVERGENCE = 6
THRESH=10
GUI = 2
$end

$solvent
dielectric 4.90
$end
--------------------------------------------------------------

             Standard Nuclear Orientation (Angstroms)
    I     Atom           X                Y                Z
 ----------------------------------------------------------------
    1      C       0.1366470000    -8.5197410000    -0.2353060000
    2      C      -0.2213460000    -7.6359670000     0.7723340000
    3      S       0.6507460000    -7.6517400000    -1.7022860000
    4      C      -0.0907790000    -6.2618940000     0.4088070000
    5      H      -0.5737540000    -7.9547380000     1.7614230000
    6      C       0.3977350000    -6.0799850000    -0.9328760000
    7      C       0.5681660000    -4.7983820000    -1.4790690000
    8      C      -0.4183470000    -5.1535420000     1.2412040000
    9      C      -0.2518520000    -3.8696260000     0.6932060000
   10      C       0.2398720000    -3.6889270000    -0.6489210000
   11      O      -0.8424860000    -5.4810750000     2.4934370000
   12      O       0.9930920000    -4.4798710000    -2.7373310000
   13      C       1.8847520000    -5.3560260000    -3.4161100000
   14      H       2.2731240000    -4.7904960000    -4.2844470000
   15      H       1.3733100000    -6.2685130000    -3.7933520000
   16      H       2.7347020000    -5.6581870000    -2.7667160000
   17      C      -1.5880300000    -4.5469990000     3.2645810000
   18      H      -1.9749950000    -5.1075640000     4.1365190000
   19      H      -2.4438430000    -4.1314730000     2.6904390000
   20      H      -0.9551400000    -3.7120850000     3.6361770000
   21      C       0.3670680000    -2.3143260000    -1.0098480000
   22      S      -0.5173860000    -2.2954870000     1.4599360000
   23      C       0.0000000000    -1.4351800000     0.0000000000
   24      H       0.7216890000    -1.9932110000    -1.9973080000
   25      H       0.1324440000    -9.6159850000    -0.2309450000
   26      C       0.0000000000     0.0000000000     0.0000000000
   27      S       0.0806150000     0.8958110000     1.5107320000
   28      C       0.2168420000     2.4652310000     0.7276290000
   29      C       0.0791270000     0.9047690000    -1.0646650000
   30      C       0.1986590000     2.2884060000    -0.6782870000
   31      C       0.0749880000     0.8384920000    -2.4861500000
   32      C       0.1850970000     2.0985240000    -3.1069160000
   33      S       0.2905010000     3.3415680000    -1.9657350000
   34      C       0.2119320000     2.3516230000    -4.5599720000
   35      O       0.1335450000     1.4214160000    -5.3502770000
   36      O       0.3269940000     3.6296490000    -5.0043750000
   37      F      -0.0182140000    -0.2717340000    -3.2462900000
   38      C       0.3683670000     3.9861010000    -6.3349760000
   39      H       0.4652700000     5.0868060000    -6.3702680000
   40      H      -0.5531400000     3.6758780000    -6.8756090000
   41      H       1.2298740000     3.5192630000    -6.8618780000
   42      H       0.2970910000     3.3817460000     1.3215100000
 ----------------------------------------------------------------

   10   -2754.2978229555      8.12e-07  Convergence criterion met
 Total energy in the final basis set =    -2754.2978229555
        RIMP2         total energy =     -2759.3523803311 a.u.

                    Orbital Energies (a.u.)
 --------------------------------------------------------------

 Alpha MOs
 -- Occupied --
-92.0161 -91.9948 -91.9913 -91.9872 -26.3369 -20.6117 -20.5932 -20.5919
-20.5493 -11.4097 -11.3784 -11.3204 -11.3198 -11.3142 -11.2974 -11.2966
-11.2961 -11.2918 -11.2886 -11.2883 -11.2879 -11.2858 -11.2850 -11.2810
-11.2807 -11.2626 -11.2608 -11.2590 -11.2507  -9.0145  -8.9988  -8.9919
 -8.9871  -6.6953  -6.6948  -6.6942  -6.6801  -6.6794  -6.6781  -6.6729
 -6.6723  -6.6713  -6.6681  -6.6675  -6.6666  -1.6508  -1.4714  -1.4173
 -1.4146  -1.3666  -1.2335  -1.1976  -1.1699  -1.1425  -1.0851  -1.0534
 -1.0481  -1.0279  -1.0040  -0.9942  -0.9722  -0.9615  -0.9511  -0.9386
 -0.8974  -0.8694  -0.8521  -0.8061  -0.7958  -0.7889  -0.7727  -0.7696
 -0.7583  -0.7336  -0.7207  -0.7182  -0.7021  -0.6893  -0.6845  -0.6783
 -0.6722  -0.6623  -0.6598  -0.6529  -0.6298  -0.6205  -0.6164  -0.6061
 -0.6005  -0.5938  -0.5882  -0.5761  -0.5701  -0.5620  -0.5528  -0.5494
 -0.5371  -0.5270  -0.5259  -0.5178  -0.5175  -0.5094  -0.5055  -0.4970
 -0.4878  -0.4840  -0.4792  -0.4683  -0.4619  -0.4611  -0.4590  -0.4236
 -0.3985  -0.3864  -0.3597  -0.3508  -0.3255  -0.2848  -0.2486

          Ground-State Mulliken Net Atomic Charges

     Atom                 Charge (a.u.)
  ----------------------------------------
      1 C                    -0.186084
      2 C                    -0.254726
      3 S                    -0.019337
      4 C                    -0.013579
      5 H                     0.196536
      6 C                    -0.030191
      7 C                     0.250901
      8 C                     0.241466
      9 C                    -0.038193
     10 C                    -0.040943
     11 O                    -0.333249
     12 O                    -0.338086
     13 C                    -0.086370
     14 H                     0.123998
     15 H                     0.091493
     16 H                     0.094001
     17 C                    -0.088180
     18 H                     0.126061
     19 H                     0.095370
     20 H                     0.089503
     21 C                    -0.187510
     22 S                    -0.035582
     23 C                    -0.016704
     24 H                     0.200348
     25 H                     0.206965
     26 C                    -0.036134
     27 S                     0.093612
     28 C                    -0.249197
     29 C                    -0.072135
     30 C                    -0.015279
     31 C                     0.392237
     32 C                    -0.141625
     33 S                     0.036398
     34 C                     0.462752
     35 O                    -0.452227
     36 O                    -0.298111
     37 F                    -0.215290
     38 C                    -0.055133
     39 H                     0.116617
     40 H                     0.084569
     41 H                     0.084259
     42 H                     0.216782
  ----------------------------------------
  Sum of atomic charges =     0.000000

                    Cartesian Multipole Moments
 -----------------------------------------------------------------
    Charge (ESU x 10^10)
                 0.0000
    Dipole Moment (Debye)
         X       0.5519      Y       1.0831      Z       3.3063
       Tot       3.5227
    Quadrupole Moments (Debye-Ang)
        XX    -194.1072     XY      -0.2198     YY    -156.4176
        XZ     -12.7508     YZ     -10.1929     ZZ    -189.0638

 Total job time:  281.68s(wall), 9347.83s(cpu)
        *  Thank you very much for using Q-Chem.  Have a nice day.  *
