 Q-Chem 5.4, Q-Chem, Inc., Pleasanton, CA (2021)
 Q-Chem 5.4.0 for Intel X86 EM64T Linux

User input:
--------------------------------------------------------------
$molecule
0 1
C	0.208002	-8.519741	0.175432
C	-0.722164	-7.635967	-0.352097
S	1.563424	-7.651740	0.936458
C	-0.386833	-6.261894	-0.160388
H	-1.635031	-7.954738	-0.870905
C	0.849637	-6.079985	0.553685
C	1.357938	-4.798382	0.816372
C	-1.149702	-5.153542	-0.627524
C	-0.638941	-3.869626	-0.368399
C	0.597409	-3.688927	0.348912
O	-2.309260	-5.481075	-1.262667
O	2.523296	-4.479871	1.453338
C	3.036927	-5.356026	2.449320
H	3.824632	-4.790496	2.982577
H	3.497250	-6.268513	2.011155
H	2.249807	-5.658187	3.173591
C	-2.939226	-4.546999	-2.130793
H	-3.730721	-5.107564	-2.663289
H	-2.225196	-4.131473	-2.873906
H	-3.415077	-3.712085	-1.572045
C	0.930765	-2.314326	0.536849
S	-1.347913	-2.295487	-0.763041
C	-0.000000	-1.435180	-0.000000
H	1.841645	-1.993211	1.057554
H	0.204438	-9.615985	0.170535
C	0.000000	0.000000	0.000000
S	0.690437	0.576430	1.510732
C	1.896512	1.589852	0.727629
C	0.695720	0.583817	-1.064665
C	1.758621	1.477674	-0.678287
C	0.645928	0.539878	-2.486150
C	1.614763	1.352997	-3.106916
S	2.568261	2.157430	-1.965735
C	1.812707	1.512991	-4.559972
O	1.099523	0.910662	-5.350277
O	2.797769	2.335330	-5.004375
F	-0.205024	-0.179266	-3.246290
C	3.079074	2.558124	-6.334976
H	3.925910	3.267919	-6.370268
H	2.208109	2.990367	-6.875609
H	3.358147	1.618843	-6.861878
H	2.601331	2.181180	1.321510
$end

$rem
JOBTYPE		SP
EXCHANGE	HF
CORRELATION	pRIMP2
BASIS		cc-pvtz
METHOD		rimp2
AUX_BASIS	rimp2-cc-pvtz
SOLVENT_METHOD	PCM
PURECART	11111
SYMMETRY	false
MEM_TOTAL	110000
SCF_CONVERGENCE = 6
THRESH=10
GUI = 2
$end

$solvent
dielectric 4.90
$end
--------------------------------------------------------------

             Standard Nuclear Orientation (Angstroms)
    I     Atom           X                Y                Z
 ----------------------------------------------------------------
    1      C       0.2080020000    -8.5197410000     0.1754320000
    2      C      -0.7221640000    -7.6359670000    -0.3520970000
    3      S       1.5634240000    -7.6517400000     0.9364580000
    4      C      -0.3868330000    -6.2618940000    -0.1603880000
    5      H      -1.6350310000    -7.9547380000    -0.8709050000
    6      C       0.8496370000    -6.0799850000     0.5536850000
    7      C       1.3579380000    -4.7983820000     0.8163720000
    8      C      -1.1497020000    -5.1535420000    -0.6275240000
    9      C      -0.6389410000    -3.8696260000    -0.3683990000
   10      C       0.5974090000    -3.6889270000     0.3489120000
   11      O      -2.3092600000    -5.4810750000    -1.2626670000
   12      O       2.5232960000    -4.4798710000     1.4533380000
   13      C       3.0369270000    -5.3560260000     2.4493200000
   14      H       3.8246320000    -4.7904960000     2.9825770000
   15      H       3.4972500000    -6.2685130000     2.0111550000
   16      H       2.2498070000    -5.6581870000     3.1735910000
   17      C      -2.9392260000    -4.5469990000    -2.1307930000
   18      H      -3.7307210000    -5.1075640000    -2.6632890000
   19      H      -2.2251960000    -4.1314730000    -2.8739060000
   20      H      -3.4150770000    -3.7120850000    -1.5720450000
   21      C       0.9307650000    -2.3143260000     0.5368490000
   22      S      -1.3479130000    -2.2954870000    -0.7630410000
   23      C       0.0000000000    -1.4351800000     0.0000000000
   24      H       1.8416450000    -1.9932110000     1.0575540000
   25      H       0.2044380000    -9.6159850000     0.1705350000
   26      C       0.0000000000     0.0000000000     0.0000000000
   27      S       0.6904370000     0.5764300000     1.5107320000
   28      C       1.8965120000     1.5898520000     0.7276290000
   29      C       0.6957200000     0.5838170000    -1.0646650000
   30      C       1.7586210000     1.4776740000    -0.6782870000
   31      C       0.6459280000     0.5398780000    -2.4861500000
   32      C       1.6147630000     1.3529970000    -3.1069160000
   33      S       2.5682610000     2.1574300000    -1.9657350000
   34      C       1.8127070000     1.5129910000    -4.5599720000
   35      O       1.0995230000     0.9106620000    -5.3502770000
   36      O       2.7977690000     2.3353300000    -5.0043750000
   37      F      -0.2050240000    -0.1792660000    -3.2462900000
   38      C       3.0790740000     2.5581240000    -6.3349760000
   39      H       3.9259100000     3.2679190000    -6.3702680000
   40      H       2.2081090000     2.9903670000    -6.8756090000
   41      H       3.3581470000     1.6188430000    -6.8618780000
   42      H       2.6013310000     2.1811800000     1.3215100000
 ----------------------------------------------------------------

   11   -2754.2518238303      6.40e-07  Convergence criterion met
 Total energy in the final basis set =    -2754.2518238303
        RIMP2         total energy =     -2759.3194777373 a.u.

                    Orbital Energies (a.u.)
 --------------------------------------------------------------

 Alpha MOs
 -- Occupied --
-92.0168 -92.0026 -91.9839 -91.9819 -26.3338 -20.6147 -20.5901 -20.5889
-20.5549 -11.4144 -11.3760 -11.3163 -11.3161 -11.3129 -11.3074 -11.2994
-11.2942 -11.2928 -11.2898 -11.2850 -11.2847 -11.2845 -11.2813 -11.2801
-11.2764 -11.2574 -11.2544 -11.2480 -11.2464  -9.0154  -9.0063  -8.9838
 -8.9826  -6.6960  -6.6952  -6.6950  -6.6874  -6.6868  -6.6855  -6.6648
 -6.6642  -6.6636  -6.6633  -6.6628  -6.6619  -1.6470  -1.4748  -1.4141
 -1.4117  -1.3707  -1.2401  -1.1926  -1.1688  -1.1435  -1.0830  -1.0504
 -1.0483  -1.0315  -0.9984  -0.9916  -0.9743  -0.9580  -0.9482  -0.9388
 -0.8923  -0.8740  -0.8441  -0.8071  -0.7925  -0.7855  -0.7766  -0.7657
 -0.7541  -0.7298  -0.7181  -0.7156  -0.6991  -0.6910  -0.6807  -0.6800
 -0.6753  -0.6607  -0.6566  -0.6507  -0.6282  -0.6179  -0.6144  -0.6100
 -0.6045  -0.6013  -0.5878  -0.5718  -0.5676  -0.5648  -0.5530  -0.5509
 -0.5299  -0.5246  -0.5209  -0.5141  -0.5124  -0.5087  -0.5010  -0.4919
 -0.4885  -0.4878  -0.4707  -0.4652  -0.4635  -0.4616  -0.4548  -0.4132
 -0.3939  -0.3834  -0.3595  -0.3432  -0.3157  -0.2925  -0.2520

          Ground-State Mulliken Net Atomic Charges

     Atom                 Charge (a.u.)
  ----------------------------------------
      1 C                    -0.194591
      2 C                    -0.253896
      3 S                    -0.027488
      4 C                    -0.019065
      5 H                     0.195708
      6 C                    -0.027351
      7 C                     0.233921
      8 C                     0.242994
      9 C                    -0.044291
     10 C                    -0.016546
     11 O                    -0.333903
     12 O                    -0.341914
     13 C                    -0.085575
     14 H                     0.121086
     15 H                     0.090756
     16 H                     0.093168
     17 C                    -0.086668
     18 H                     0.124078
     19 H                     0.095379
     20 H                     0.089438
     21 C                    -0.268696
     22 S                    -0.019692
     23 C                    -0.002009
     24 H                     0.194595
     25 H                     0.205199
     26 C                    -0.109127
     27 S                     0.125614
     28 C                    -0.177788
     29 C                    -0.034326
     30 C                    -0.019524
     31 C                     0.353622
     32 C                    -0.129728
     33 S                     0.063900
     34 C                     0.457577
     35 O                    -0.441814
     36 O                    -0.297075
     37 F                    -0.208433
     38 C                    -0.054629
     39 H                     0.117183
     40 H                     0.085258
     41 H                     0.085437
     42 H                     0.219216
  ----------------------------------------
  Sum of atomic charges =     0.000000

                    Cartesian Multipole Moments
 -----------------------------------------------------------------
    Charge (ESU x 10^10)
                 0.0000
    Dipole Moment (Debye)
         X       3.6512      Y       2.6451      Z       2.8634
       Tot       5.3411
    Quadrupole Moments (Debye-Ang)
        XX    -177.7761     XY      10.7204     YY    -174.8928
        XZ       2.9187     YZ      -8.4101     ZZ    -191.8545

 Total job time:  313.68s(wall), 10502.23s(cpu)
        *  Thank you very much for using Q-Chem.  Have a nice day.  *
