 Q-Chem 5.4, Q-Chem, Inc., Pleasanton, CA (2021)
 Q-Chem 5.4.0 for Intel X86 EM64T Linux

User input:
--------------------------------------------------------------
$molecule
0 1
C	0.235993	-8.519741	-0.135457
C	-0.577858	-7.635967	0.558188
S	1.414705	-7.651740	-1.148850
C	-0.283020	-6.261894	0.308648
H	-1.377597	-7.954738	1.238560
C	0.810887	-6.079985	-0.609026
C	1.231581	-4.798382	-0.996828
C	-0.982901	-5.153542	0.865740
C	-0.564713	-3.869626	0.474408
C	0.532196	-3.688927	-0.442046
O	-1.976332	-5.481075	1.738137
O	2.228709	-4.479871	-1.874052
C	3.340298	-5.356026	-2.016062
H	4.110807	-4.790496	-2.573877
H	3.085998	-6.268513	-2.598484
H	3.751679	-5.658187	-1.028695
C	-3.007565	-4.546999	2.033195
H	-3.778655	-5.107564	2.594833
H	-3.461650	-4.131473	1.108067
H	-2.645264	-3.712085	2.671451
C	0.822814	-2.314326	-0.691020
S	-1.178037	-2.295487	1.005649
C	-0.000000	-1.435180	-0.000000
H	1.623656	-1.993211	-1.368875
H	0.230172	-9.615985	-0.133782
C	0.000000	0.000000	0.000000
S	0.690437	0.576430	1.510732
C	1.896512	1.589852	0.727629
C	0.695720	0.583817	-1.064665
C	1.758621	1.477674	-0.678287
C	0.645928	0.539878	-2.486150
C	1.614763	1.352997	-3.106916
S	2.568261	2.157430	-1.965735
C	1.812707	1.512991	-4.559972
O	1.099523	0.910662	-5.350277
O	2.797769	2.335330	-5.004375
F	-0.205024	-0.179266	-3.246290
C	3.079074	2.558124	-6.334976
H	3.925910	3.267919	-6.370268
H	2.208109	2.990367	-6.875609
H	3.358147	1.618843	-6.861878
H	2.601331	2.181180	1.321510
$end

$rem
JOBTYPE		SP
EXCHANGE	HF
CORRELATION	pRIMP2
BASIS		cc-pvtz
METHOD		rimp2
AUX_BASIS	rimp2-cc-pvtz
SOLVENT_METHOD	PCM
PURECART	11111
SYMMETRY	false
MEM_TOTAL	110000
SCF_CONVERGENCE = 6
THRESH=10
GUI = 2
$end

$solvent
dielectric 4.90
$end
--------------------------------------------------------------

             Standard Nuclear Orientation (Angstroms)
    I     Atom           X                Y                Z
 ----------------------------------------------------------------
    1      C       0.2359930000    -8.5197410000    -0.1354570000
    2      C      -0.5778580000    -7.6359670000     0.5581880000
    3      S       1.4147050000    -7.6517400000    -1.1488500000
    4      C      -0.2830200000    -6.2618940000     0.3086480000
    5      H      -1.3775970000    -7.9547380000     1.2385600000
    6      C       0.8108870000    -6.0799850000    -0.6090260000
    7      C       1.2315810000    -4.7983820000    -0.9968280000
    8      C      -0.9829010000    -5.1535420000     0.8657400000
    9      C      -0.5647130000    -3.8696260000     0.4744080000
   10      C       0.5321960000    -3.6889270000    -0.4420460000
   11      O      -1.9763320000    -5.4810750000     1.7381370000
   12      O       2.2287090000    -4.4798710000    -1.8740520000
   13      C       3.3402980000    -5.3560260000    -2.0160620000
   14      H       4.1108070000    -4.7904960000    -2.5738770000
   15      H       3.0859980000    -6.2685130000    -2.5984840000
   16      H       3.7516790000    -5.6581870000    -1.0286950000
   17      C      -3.0075650000    -4.5469990000     2.0331950000
   18      H      -3.7786550000    -5.1075640000     2.5948330000
   19      H      -3.4616500000    -4.1314730000     1.1080670000
   20      H      -2.6452640000    -3.7120850000     2.6714510000
   21      C       0.8228140000    -2.3143260000    -0.6910200000
   22      S      -1.1780370000    -2.2954870000     1.0056490000
   23      C       0.0000000000    -1.4351800000     0.0000000000
   24      H       1.6236560000    -1.9932110000    -1.3688750000
   25      H       0.2301720000    -9.6159850000    -0.1337820000
   26      C       0.0000000000     0.0000000000     0.0000000000
   27      S       0.6904370000     0.5764300000     1.5107320000
   28      C       1.8965120000     1.5898520000     0.7276290000
   29      C       0.6957200000     0.5838170000    -1.0646650000
   30      C       1.7586210000     1.4776740000    -0.6782870000
   31      C       0.6459280000     0.5398780000    -2.4861500000
   32      C       1.6147630000     1.3529970000    -3.1069160000
   33      S       2.5682610000     2.1574300000    -1.9657350000
   34      C       1.8127070000     1.5129910000    -4.5599720000
   35      O       1.0995230000     0.9106620000    -5.3502770000
   36      O       2.7977690000     2.3353300000    -5.0043750000
   37      F      -0.2050240000    -0.1792660000    -3.2462900000
   38      C       3.0790740000     2.5581240000    -6.3349760000
   39      H       3.9259100000     3.2679190000    -6.3702680000
   40      H       2.2081090000     2.9903670000    -6.8756090000
   41      H       3.3581470000     1.6188430000    -6.8618780000
   42      H       2.6013310000     2.1811800000     1.3215100000
 ----------------------------------------------------------------

   11   -2754.2557223820      5.53e-07  Convergence criterion met
 Total energy in the final basis set =    -2754.2557223820
        RIMP2         total energy =     -2759.3221127095 a.u.

                    Orbital Energies (a.u.)
 --------------------------------------------------------------

 Alpha MOs
 -- Occupied --
-92.0168 -92.0028 -91.9843 -91.9832 -26.3343 -20.6149 -20.5909 -20.5888
-20.5550 -11.4146 -11.3774 -11.3178 -11.3170 -11.3135 -11.3076 -11.3005
-11.2948 -11.2917 -11.2900 -11.2859 -11.2857 -11.2847 -11.2819 -11.2813
-11.2768 -11.2583 -11.2550 -11.2483 -11.2472  -9.0156  -9.0065  -8.9842
 -8.9840  -6.6962  -6.6954  -6.6951  -6.6877  -6.6871  -6.6858  -6.6652
 -6.6650  -6.6646  -6.6643  -6.6637  -6.6634  -1.6473  -1.4750  -1.4149
 -1.4116  -1.3708  -1.2410  -1.1932  -1.1692  -1.1443  -1.0839  -1.0514
 -1.0487  -1.0317  -0.9990  -0.9923  -0.9747  -0.9588  -0.9489  -0.9390
 -0.8937  -0.8739  -0.8448  -0.8028  -0.7956  -0.7863  -0.7749  -0.7701
 -0.7544  -0.7308  -0.7190  -0.7158  -0.6999  -0.6921  -0.6810  -0.6802
 -0.6756  -0.6612  -0.6574  -0.6508  -0.6274  -0.6182  -0.6153  -0.6102
 -0.6070  -0.6006  -0.5801  -0.5746  -0.5688  -0.5619  -0.5554  -0.5479
 -0.5325  -0.5264  -0.5235  -0.5152  -0.5138  -0.5077  -0.5034  -0.4958
 -0.4889  -0.4859  -0.4702  -0.4657  -0.4640  -0.4630  -0.4582  -0.4107
 -0.3948  -0.3846  -0.3586  -0.3490  -0.3202  -0.2894  -0.2511

          Ground-State Mulliken Net Atomic Charges

     Atom                 Charge (a.u.)
  ----------------------------------------
      1 C                    -0.193974
      2 C                    -0.254029
      3 S                    -0.025746
      4 C                    -0.019444
      5 H                     0.195649
      6 C                    -0.026068
      7 C                     0.236782
      8 C                     0.245057
      9 C                    -0.043430
     10 C                    -0.023232
     11 O                    -0.333726
     12 O                    -0.341082
     13 C                    -0.085707
     14 H                     0.121648
     15 H                     0.091019
     16 H                     0.092785
     17 C                    -0.087189
     18 H                     0.125040
     19 H                     0.094918
     20 H                     0.089147
     21 C                    -0.256218
     22 S                    -0.039119
     23 C                     0.030498
     24 H                     0.192569
     25 H                     0.205353
     26 C                    -0.129563
     27 S                     0.137210
     28 C                    -0.173514
     29 C                    -0.083476
     30 C                    -0.016417
     31 C                     0.381589
     32 C                    -0.135312
     33 S                     0.063811
     34 C                     0.458970
     35 O                    -0.441405
     36 O                    -0.297220
     37 F                    -0.209575
     38 C                    -0.054621
     39 H                     0.117193
     40 H                     0.085485
     41 H                     0.085431
     42 H                     0.219913
  ----------------------------------------
  Sum of atomic charges =     0.000000

                    Cartesian Multipole Moments
 -----------------------------------------------------------------
    Charge (ESU x 10^10)
                 0.0000
    Dipole Moment (Debye)
         X       4.0287      Y       2.5343      Z       3.1589
       Tot       5.7124
    Quadrupole Moments (Debye-Ang)
        XX    -170.6796     XY       8.9900     YY    -173.3701
        XZ     -18.9790     YZ      -8.8311     ZZ    -198.8623

 Total job time:  323.86s(wall), 10993.17s(cpu)
        *  Thank you very much for using Q-Chem.  Have a nice day.  *
