 Q-Chem 5.4, Q-Chem, Inc., Pleasanton, CA (2021)
 Q-Chem 5.4.0 for Intel X86 EM64T Linux

User input:
--------------------------------------------------------------
$molecule
0 1
C	-0.046574	-8.519741	-0.268090
C	0.326886	-7.635967	0.733920
S	-0.595708	-7.651740	-1.722318
C	0.193236	-6.261894	0.371516
H	0.692700	-7.954738	1.718130
C	-0.294958	-6.079985	-0.970283
C	-0.515487	-4.798382	-1.498243
C	0.477358	-5.153542	1.219725
C	0.252655	-3.869626	0.692914
C	-0.233366	-3.688927	-0.651289
O	0.957369	-5.481075	2.451623
O	-0.998769	-4.479871	-2.735264
C	-0.752029	-5.356026	-3.828387
H	-1.012675	-4.790496	-4.743213
H	-1.386303	-6.268513	-3.788623
H	0.316492	-5.658187	-3.877260
C	0.881930	-4.546999	3.521580
H	1.145969	-5.107564	4.438260
H	-0.142712	-4.131473	3.631868
H	1.605610	-3.712085	3.399425
C	-0.367928	-2.314326	-1.009535
S	0.542088	-2.295487	1.450945
C	0.000000	-1.435180	0.000000
H	-0.730999	-1.993211	-1.993920
H	-0.046991	-9.615985	-0.262047
C	0.000000	0.000000	0.000000
S	0.234946	0.868203	1.510732
C	0.641630	2.390125	0.727629
C	0.235036	0.877284	-1.064665
C	0.593019	2.219143	-0.678287
C	0.219452	0.812732	-2.486150
C	0.546689	2.034501	-3.106916
S	0.866345	3.240357	-1.965735
C	0.617067	2.279095	-4.559972
O	0.378342	1.376631	-5.350277
O	0.952308	3.517725	-5.004375
F	-0.065123	-0.264443	-3.246290
C	1.054950	3.861577	-6.334976
H	1.341516	4.928732	-6.370268
H	0.093573	3.716085	-6.875609
H	1.822303	3.252232	-6.861878
H	0.879812	3.278780	1.321510
$end

$rem
JOBTYPE		SP
EXCHANGE	HF
CORRELATION	pRIMP2
BASIS		cc-pvtz
METHOD		rimp2
AUX_BASIS	rimp2-cc-pvtz
SOLVENT_METHOD	PCM
PURECART	11111
SYMMETRY	false
MEM_TOTAL	110000
SCF_CONVERGENCE = 6
THRESH=10
GUI = 2
$end

$solvent
dielectric 4.90
$end
--------------------------------------------------------------

             Standard Nuclear Orientation (Angstroms)
    I     Atom           X                Y                Z
 ----------------------------------------------------------------
    1      C      -0.0465740000    -8.5197410000    -0.2680900000
    2      C       0.3268860000    -7.6359670000     0.7339200000
    3      S      -0.5957080000    -7.6517400000    -1.7223180000
    4      C       0.1932360000    -6.2618940000     0.3715160000
    5      H       0.6927000000    -7.9547380000     1.7181300000
    6      C      -0.2949580000    -6.0799850000    -0.9702830000
    7      C      -0.5154870000    -4.7983820000    -1.4982430000
    8      C       0.4773580000    -5.1535420000     1.2197250000
    9      C       0.2526550000    -3.8696260000     0.6929140000
   10      C      -0.2333660000    -3.6889270000    -0.6512890000
   11      O       0.9573690000    -5.4810750000     2.4516230000
   12      O      -0.9987690000    -4.4798710000    -2.7352640000
   13      C      -0.7520290000    -5.3560260000    -3.8283870000
   14      H      -1.0126750000    -4.7904960000    -4.7432130000
   15      H      -1.3863030000    -6.2685130000    -3.7886230000
   16      H       0.3164920000    -5.6581870000    -3.8772600000
   17      C       0.8819300000    -4.5469990000     3.5215800000
   18      H       1.1459690000    -5.1075640000     4.4382600000
   19      H      -0.1427120000    -4.1314730000     3.6318680000
   20      H       1.6056100000    -3.7120850000     3.3994250000
   21      C      -0.3679280000    -2.3143260000    -1.0095350000
   22      S       0.5420880000    -2.2954870000     1.4509450000
   23      C       0.0000000000    -1.4351800000     0.0000000000
   24      H      -0.7309990000    -1.9932110000    -1.9939200000
   25      H      -0.0469910000    -9.6159850000    -0.2620470000
   26      C       0.0000000000     0.0000000000     0.0000000000
   27      S       0.2349460000     0.8682030000     1.5107320000
   28      C       0.6416300000     2.3901250000     0.7276290000
   29      C       0.2350360000     0.8772840000    -1.0646650000
   30      C       0.5930190000     2.2191430000    -0.6782870000
   31      C       0.2194520000     0.8127320000    -2.4861500000
   32      C       0.5466890000     2.0345010000    -3.1069160000
   33      S       0.8663450000     3.2403570000    -1.9657350000
   34      C       0.6170670000     2.2790950000    -4.5599720000
   35      O       0.3783420000     1.3766310000    -5.3502770000
   36      O       0.9523080000     3.5177250000    -5.0043750000
   37      F      -0.0651230000    -0.2644430000    -3.2462900000
   38      C       1.0549500000     3.8615770000    -6.3349760000
   39      H       1.3415160000     4.9287320000    -6.3702680000
   40      H       0.0935730000     3.7160850000    -6.8756090000
   41      H       1.8223030000     3.2522320000    -6.8618780000
   42      H       0.8798120000     3.2787800000     1.3215100000
 ----------------------------------------------------------------

   10   -2754.2935039761      7.98e-07  Convergence criterion met
 Total energy in the final basis set =    -2754.2935039761
        RIMP2         total energy =     -2759.3497317279 a.u.

                    Orbital Energies (a.u.)
 --------------------------------------------------------------

 Alpha MOs
 -- Occupied --
-92.0162 -91.9955 -91.9914 -91.9868 -26.3372 -20.6119 -20.5930 -20.5913
-20.5498 -11.4102 -11.3785 -11.3200 -11.3187 -11.3127 -11.2978 -11.2971
-11.2963 -11.2935 -11.2885 -11.2878 -11.2874 -11.2853 -11.2846 -11.2820
-11.2804 -11.2619 -11.2600 -11.2565 -11.2503  -9.0147  -8.9994  -8.9920
 -8.9867  -6.6955  -6.6949  -6.6944  -6.6807  -6.6800  -6.6787  -6.6729
 -6.6723  -6.6713  -6.6677  -6.6670  -6.6662  -1.6511  -1.4717  -1.4171
 -1.4140  -1.3670  -1.2342  -1.1970  -1.1697  -1.1427  -1.0847  -1.0528
 -1.0484  -1.0284  -1.0036  -0.9939  -0.9726  -0.9611  -0.9507  -0.9384
 -0.8970  -0.8699  -0.8517  -0.8061  -0.7959  -0.7887  -0.7722  -0.7698
 -0.7579  -0.7328  -0.7208  -0.7186  -0.7017  -0.6896  -0.6844  -0.6785
 -0.6725  -0.6622  -0.6595  -0.6525  -0.6295  -0.6201  -0.6161  -0.6064
 -0.6005  -0.5947  -0.5885  -0.5765  -0.5690  -0.5601  -0.5549  -0.5477
 -0.5375  -0.5274  -0.5223  -0.5201  -0.5175  -0.5095  -0.5053  -0.4961
 -0.4859  -0.4846  -0.4792  -0.4683  -0.4620  -0.4613  -0.4594  -0.4231
 -0.3982  -0.3860  -0.3593  -0.3507  -0.3251  -0.2853  -0.2478

          Ground-State Mulliken Net Atomic Charges

     Atom                 Charge (a.u.)
  ----------------------------------------
      1 C                    -0.187042
      2 C                    -0.255232
      3 S                    -0.020386
      4 C                    -0.012759
      5 H                     0.196372
      6 C                    -0.029072
      7 C                     0.248207
      8 C                     0.240616
      9 C                    -0.041344
     10 C                    -0.030727
     11 O                    -0.333082
     12 O                    -0.339078
     13 C                    -0.086083
     14 H                     0.124185
     15 H                     0.091114
     16 H                     0.094034
     17 C                    -0.088228
     18 H                     0.125838
     19 H                     0.094899
     20 H                     0.089640
     21 C                    -0.220450
     22 S                    -0.031648
     23 C                    -0.043014
     24 H                     0.201771
     25 H                     0.206739
     26 C                     0.007387
     27 S                     0.086708
     28 C                    -0.231021
     29 C                    -0.056156
     30 C                    -0.022127
     31 C                     0.375966
     32 C                    -0.139005
     33 S                     0.040619
     34 C                     0.457974
     35 O                    -0.451207
     36 O                    -0.298015
     37 F                    -0.214151
     38 C                    -0.054897
     39 H                     0.116637
     40 H                     0.084450
     41 H                     0.084390
     42 H                     0.217179
  ----------------------------------------
  Sum of atomic charges =     0.000000

                    Cartesian Multipole Moments
 -----------------------------------------------------------------
    Charge (ESU x 10^10)
                -0.0000
    Dipole Moment (Debye)
         X       1.1625      Y       1.3135      Z       3.1323
       Tot       3.5900
    Quadrupole Moments (Debye-Ang)
        XX    -200.4953     XY       2.8040     YY    -158.4877
        XZ       0.1341     YZ      -9.1437     ZZ    -181.4923

 Total job time:  304.44s(wall), 9758.61s(cpu)
        *  Thank you very much for using Q-Chem.  Have a nice day.  *
