 Q-Chem 5.4, Q-Chem, Inc., Pleasanton, CA (2021)
 Q-Chem 5.4.0 for Intel X86 EM64T Linux

User input:
--------------------------------------------------------------
$molecule
0 1
C	0.136647	-8.519741	-0.235306
C	-0.221346	-7.635967	0.772334
S	0.650746	-7.651740	-1.702286
C	-0.090779	-6.261894	0.408807
H	-0.573754	-7.954738	1.761423
C	0.397735	-6.079985	-0.932876
C	0.568166	-4.798382	-1.479069
C	-0.418347	-5.153542	1.241204
C	-0.251852	-3.869626	0.693206
C	0.239872	-3.688927	-0.648921
O	-0.842486	-5.481075	2.493437
O	0.993092	-4.479871	-2.737331
C	1.884752	-5.356026	-3.416110
H	2.273124	-4.790496	-4.284447
H	1.373310	-6.268513	-3.793352
H	2.734702	-5.658187	-2.766716
C	-1.588030	-4.546999	3.264581
H	-1.974995	-5.107564	4.136519
H	-2.443843	-4.131473	2.690439
H	-0.955140	-3.712085	3.636177
C	0.367068	-2.314326	-1.009848
S	-0.517386	-2.295487	1.459936
C	0.000000	-1.435180	0.000000
H	0.721689	-1.993211	-1.997308
H	0.132444	-9.615985	-0.230945
C	0.000000	0.000000	0.000000
S	0.234946	0.868203	1.510732
C	0.641630	2.390125	0.727629
C	0.235036	0.877284	-1.064665
C	0.593019	2.219143	-0.678287
C	0.219452	0.812732	-2.486150
C	0.546689	2.034501	-3.106916
S	0.866345	3.240357	-1.965735
C	0.617067	2.279095	-4.559972
O	0.378342	1.376631	-5.350277
O	0.952308	3.517725	-5.004375
F	-0.065123	-0.264443	-3.246290
C	1.054950	3.861577	-6.334976
H	1.341516	4.928732	-6.370268
H	0.093573	3.716085	-6.875609
H	1.822303	3.252232	-6.861878
H	0.879812	3.278780	1.321510
$end

$rem
JOBTYPE		SP
EXCHANGE	HF
CORRELATION	pRIMP2
BASIS		cc-pvtz
METHOD		rimp2
AUX_BASIS	rimp2-cc-pvtz
SOLVENT_METHOD	PCM
PURECART	11111
SYMMETRY	false
MEM_TOTAL	110000
SCF_CONVERGENCE = 6
THRESH=10
GUI = 2
$end

$solvent
dielectric 4.90
$end
--------------------------------------------------------------

             Standard Nuclear Orientation (Angstroms)
    I     Atom           X                Y                Z
 ----------------------------------------------------------------
    1      C       0.1366470000    -8.5197410000    -0.2353060000
    2      C      -0.2213460000    -7.6359670000     0.7723340000
    3      S       0.6507460000    -7.6517400000    -1.7022860000
    4      C      -0.0907790000    -6.2618940000     0.4088070000
    5      H      -0.5737540000    -7.9547380000     1.7614230000
    6      C       0.3977350000    -6.0799850000    -0.9328760000
    7      C       0.5681660000    -4.7983820000    -1.4790690000
    8      C      -0.4183470000    -5.1535420000     1.2412040000
    9      C      -0.2518520000    -3.8696260000     0.6932060000
   10      C       0.2398720000    -3.6889270000    -0.6489210000
   11      O      -0.8424860000    -5.4810750000     2.4934370000
   12      O       0.9930920000    -4.4798710000    -2.7373310000
   13      C       1.8847520000    -5.3560260000    -3.4161100000
   14      H       2.2731240000    -4.7904960000    -4.2844470000
   15      H       1.3733100000    -6.2685130000    -3.7933520000
   16      H       2.7347020000    -5.6581870000    -2.7667160000
   17      C      -1.5880300000    -4.5469990000     3.2645810000
   18      H      -1.9749950000    -5.1075640000     4.1365190000
   19      H      -2.4438430000    -4.1314730000     2.6904390000
   20      H      -0.9551400000    -3.7120850000     3.6361770000
   21      C       0.3670680000    -2.3143260000    -1.0098480000
   22      S      -0.5173860000    -2.2954870000     1.4599360000
   23      C       0.0000000000    -1.4351800000     0.0000000000
   24      H       0.7216890000    -1.9932110000    -1.9973080000
   25      H       0.1324440000    -9.6159850000    -0.2309450000
   26      C       0.0000000000     0.0000000000     0.0000000000
   27      S       0.2349460000     0.8682030000     1.5107320000
   28      C       0.6416300000     2.3901250000     0.7276290000
   29      C       0.2350360000     0.8772840000    -1.0646650000
   30      C       0.5930190000     2.2191430000    -0.6782870000
   31      C       0.2194520000     0.8127320000    -2.4861500000
   32      C       0.5466890000     2.0345010000    -3.1069160000
   33      S       0.8663450000     3.2403570000    -1.9657350000
   34      C       0.6170670000     2.2790950000    -4.5599720000
   35      O       0.3783420000     1.3766310000    -5.3502770000
   36      O       0.9523080000     3.5177250000    -5.0043750000
   37      F      -0.0651230000    -0.2644430000    -3.2462900000
   38      C       1.0549500000     3.8615770000    -6.3349760000
   39      H       1.3415160000     4.9287320000    -6.3702680000
   40      H       0.0935730000     3.7160850000    -6.8756090000
   41      H       1.8223030000     3.2522320000    -6.8618780000
   42      H       0.8798120000     3.2787800000     1.3215100000
 ----------------------------------------------------------------

   10   -2754.2943540285      8.09e-07  Convergence criterion met
 Total energy in the final basis set =    -2754.2943540285
        RIMP2         total energy =     -2759.3503017446 a.u.

                    Orbital Energies (a.u.)
 --------------------------------------------------------------

 Alpha MOs
 -- Occupied --
-92.0162 -91.9956 -91.9905 -91.9870 -26.3368 -20.6119 -20.5930 -20.5916
-20.5498 -11.4102 -11.3782 -11.3201 -11.3192 -11.3122 -11.2978 -11.2972
-11.2965 -11.2939 -11.2884 -11.2880 -11.2877 -11.2856 -11.2847 -11.2815
-11.2806 -11.2623 -11.2603 -11.2580 -11.2504  -9.0147  -8.9996  -8.9912
 -8.9869  -6.6954  -6.6949  -6.6944  -6.6809  -6.6802  -6.6789  -6.6722
 -6.6715  -6.6705  -6.6678  -6.6672  -6.6664  -1.6506  -1.4717  -1.4171
 -1.4143  -1.3670  -1.2341  -1.1972  -1.1698  -1.1427  -1.0850  -1.0530
 -1.0484  -1.0283  -1.0036  -0.9940  -0.9724  -0.9613  -0.9509  -0.9386
 -0.8971  -0.8698  -0.8515  -0.8056  -0.7959  -0.7887  -0.7726  -0.7699
 -0.7580  -0.7335  -0.7209  -0.7181  -0.7019  -0.6894  -0.6839  -0.6785
 -0.6725  -0.6622  -0.6596  -0.6527  -0.6293  -0.6203  -0.6162  -0.6064
 -0.6013  -0.5946  -0.5873  -0.5759  -0.5701  -0.5619  -0.5534  -0.5491
 -0.5364  -0.5270  -0.5257  -0.5177  -0.5172  -0.5092  -0.5056  -0.4971
 -0.4873  -0.4844  -0.4787  -0.4681  -0.4619  -0.4613  -0.4591  -0.4232
 -0.3983  -0.3861  -0.3594  -0.3509  -0.3254  -0.2849  -0.2484

          Ground-State Mulliken Net Atomic Charges

     Atom                 Charge (a.u.)
  ----------------------------------------
      1 C                    -0.186972
      2 C                    -0.254638
      3 S                    -0.019884
      4 C                    -0.014721
      5 H                     0.196443
      6 C                    -0.029295
      7 C                     0.247566
      8 C                     0.242987
      9 C                    -0.038633
     10 C                    -0.034136
     11 O                    -0.333294
     12 O                    -0.338413
     13 C                    -0.086279
     14 H                     0.123873
     15 H                     0.091409
     16 H                     0.093884
     17 C                    -0.088025
     18 H                     0.126056
     19 H                     0.095346
     20 H                     0.089366
     21 C                    -0.198961
     22 S                    -0.035750
     23 C                    -0.012549
     24 H                     0.199585
     25 H                     0.206826
     26 C                    -0.011686
     27 S                     0.103873
     28 C                    -0.247436
     29 C                    -0.095608
     30 C                    -0.013029
     31 C                     0.373346
     32 C                    -0.139214
     33 S                     0.041753
     34 C                     0.461800
     35 O                    -0.451047
     36 O                    -0.298112
     37 F                    -0.213852
     38 C                    -0.054910
     39 H                     0.116666
     40 H                     0.084636
     41 H                     0.084320
     42 H                     0.216709
  ----------------------------------------
  Sum of atomic charges =     0.000000

                    Cartesian Multipole Moments
 -----------------------------------------------------------------
    Charge (ESU x 10^10)
                 0.0000
    Dipole Moment (Debye)
         X       1.1716      Y       1.2722      Z       3.2889
       Tot       3.7159
    Quadrupole Moments (Debye-Ang)
        XX    -193.1311     XY       2.4426     YY    -157.8977
        XZ     -14.5891     YZ     -10.0919     ZZ    -188.8541

 Total job time:  296.06s(wall), 9698.80s(cpu)
        *  Thank you very much for using Q-Chem.  Have a nice day.  *
