 Q-Chem 5.4, Q-Chem, Inc., Pleasanton, CA (2021)
 Q-Chem 5.4.0 for Intel X86 EM64T Linux

User input:
--------------------------------------------------------------
$molecule
0 1
C	-0.272104	-8.519741	-0.000687
C	0.779533	-7.635967	-0.194476
S	-1.799596	-7.651740	0.287581
C	0.399427	-6.261894	-0.125787
H	1.812314	-7.954738	-0.383826
C	-1.006762	-6.079985	0.121989
C	-1.564994	-4.798382	0.247488
C	1.284087	-5.153542	-0.258303
C	0.726260	-3.869626	-0.128493
C	-0.681918	-3.688927	0.116725
O	2.580622	-5.481075	-0.517104
O	-2.867144	-4.479871	0.508622
C	-3.900814	-5.356026	0.075811
H	-4.847002	-4.790496	0.173640
H	-3.971794	-6.268513	0.707354
H	-3.763397	-5.658187	-0.984963
C	3.621225	-4.546999	-0.257016
H	4.569828	-5.107564	-0.357864
H	3.551910	-4.131473	0.771211
H	3.626592	-3.712085	-0.990913
C	-1.058088	-2.314326	0.187034
S	1.523035	-2.295487	-0.281899
C	0.000000	-1.435180	0.000000
H	-2.090565	-1.993211	0.373653
H	-0.266226	-9.615985	0.000773
C	0.000000	0.000000	0.000000
S	0.309721	0.844422	1.510732
C	0.847502	2.325108	0.727629
C	0.310602	0.853460	-1.064665
C	0.784173	2.159014	-0.678287
C	0.289451	0.790512	-2.486150
C	0.721927	1.979112	-3.106916
S	1.145464	3.152519	-1.965735
C	0.813355	2.216642	-4.559972
O	0.496884	1.338418	-5.350277
O	1.255274	3.421340	-5.004375
F	-0.087923	-0.257761	-3.246290
C	1.387494	3.754937	-6.334976
H	1.765978	4.793056	-6.370268
H	0.417095	3.693789	-6.875609
H	2.098820	3.081033	-6.861878
H	1.162229	3.189623	1.321510
$end

$rem
JOBTYPE		SP
EXCHANGE	HF
CORRELATION	pRIMP2
BASIS		cc-pvtz
METHOD		rimp2
AUX_BASIS	rimp2-cc-pvtz
SOLVENT_METHOD	PCM
PURECART	11111
SYMMETRY	false
MEM_TOTAL	110000
SCF_CONVERGENCE = 6
THRESH=10
GUI = 2
$end

$solvent
dielectric 4.90
$end
--------------------------------------------------------------

             Standard Nuclear Orientation (Angstroms)
    I     Atom           X                Y                Z
 ----------------------------------------------------------------
    1      C      -0.2721040000    -8.5197410000    -0.0006870000
    2      C       0.7795330000    -7.6359670000    -0.1944760000
    3      S      -1.7995960000    -7.6517400000     0.2875810000
    4      C       0.3994270000    -6.2618940000    -0.1257870000
    5      H       1.8123140000    -7.9547380000    -0.3838260000
    6      C      -1.0067620000    -6.0799850000     0.1219890000
    7      C      -1.5649940000    -4.7983820000     0.2474880000
    8      C       1.2840870000    -5.1535420000    -0.2583030000
    9      C       0.7262600000    -3.8696260000    -0.1284930000
   10      C      -0.6819180000    -3.6889270000     0.1167250000
   11      O       2.5806220000    -5.4810750000    -0.5171040000
   12      O      -2.8671440000    -4.4798710000     0.5086220000
   13      C      -3.9008140000    -5.3560260000     0.0758110000
   14      H      -4.8470020000    -4.7904960000     0.1736400000
   15      H      -3.9717940000    -6.2685130000     0.7073540000
   16      H      -3.7633970000    -5.6581870000    -0.9849630000
   17      C       3.6212250000    -4.5469990000    -0.2570160000
   18      H       4.5698280000    -5.1075640000    -0.3578640000
   19      H       3.5519100000    -4.1314730000     0.7712110000
   20      H       3.6265920000    -3.7120850000    -0.9909130000
   21      C      -1.0580880000    -2.3143260000     0.1870340000
   22      S       1.5230350000    -2.2954870000    -0.2818990000
   23      C       0.0000000000    -1.4351800000     0.0000000000
   24      H      -2.0905650000    -1.9932110000     0.3736530000
   25      H      -0.2662260000    -9.6159850000     0.0007730000
   26      C       0.0000000000     0.0000000000     0.0000000000
   27      S       0.3097210000     0.8444220000     1.5107320000
   28      C       0.8475020000     2.3251080000     0.7276290000
   29      C       0.3106020000     0.8534600000    -1.0646650000
   30      C       0.7841730000     2.1590140000    -0.6782870000
   31      C       0.2894510000     0.7905120000    -2.4861500000
   32      C       0.7219270000     1.9791120000    -3.1069160000
   33      S       1.1454640000     3.1525190000    -1.9657350000
   34      C       0.8133550000     2.2166420000    -4.5599720000
   35      O       0.4968840000     1.3384180000    -5.3502770000
   36      O       1.2552740000     3.4213400000    -5.0043750000
   37      F      -0.0879230000    -0.2577610000    -3.2462900000
   38      C       1.3874940000     3.7549370000    -6.3349760000
   39      H       1.7659780000     4.7930560000    -6.3702680000
   40      H       0.4170950000     3.6937890000    -6.8756090000
   41      H       2.0988200000     3.0810330000    -6.8618780000
   42      H       1.1622290000     3.1896230000     1.3215100000
 ----------------------------------------------------------------

   10   -2754.2890272677      8.71e-07  Convergence criterion met
 Total energy in the final basis set =    -2754.2890272677
        RIMP2         total energy =     -2759.3435148269 a.u.

                    Orbital Energies (a.u.)
 --------------------------------------------------------------

 Alpha MOs
 -- Occupied --
-92.0160 -91.9953 -91.9894 -91.9864 -26.3338 -20.6123 -20.5922 -20.5916
-20.5506 -11.4107 -11.3769 -11.3191 -11.3184 -11.3055 -11.2985 -11.2969
-11.2958 -11.2921 -11.2885 -11.2870 -11.2863 -11.2860 -11.2839 -11.2834
-11.2801 -11.2602 -11.2594 -11.2578 -11.2500  -9.0142  -8.9993  -8.9897
 -8.9863  -6.6948  -6.6942  -6.6938  -6.6806  -6.6799  -6.6786  -6.6707
 -6.6700  -6.6690  -6.6673  -6.6667  -6.6658  -1.6466  -1.4721  -1.4164
 -1.4144  -1.3674  -1.2338  -1.1957  -1.1681  -1.1419  -1.0837  -1.0520
 -1.0475  -1.0278  -1.0021  -0.9929  -0.9714  -0.9612  -0.9504  -0.9382
 -0.8957  -0.8695  -0.8499  -0.8052  -0.7904  -0.7882  -0.7739  -0.7678
 -0.7579  -0.7326  -0.7178  -0.7149  -0.7010  -0.6889  -0.6829  -0.6786
 -0.6714  -0.6604  -0.6591  -0.6526  -0.6305  -0.6200  -0.6171  -0.6067
 -0.6025  -0.5952  -0.5820  -0.5791  -0.5667  -0.5653  -0.5561  -0.5499
 -0.5354  -0.5264  -0.5242  -0.5159  -0.5139  -0.5082  -0.5012  -0.4945
 -0.4905  -0.4843  -0.4745  -0.4685  -0.4619  -0.4614  -0.4606  -0.4048
 -0.4017  -0.3869  -0.3567  -0.3496  -0.3141  -0.2896  -0.2592

          Ground-State Mulliken Net Atomic Charges

     Atom                 Charge (a.u.)
  ----------------------------------------
      1 C                    -0.187259
      2 C                    -0.254749
      3 S                    -0.022070
      4 C                    -0.012334
      5 H                     0.196472
      6 C                    -0.028023
      7 C                     0.245274
      8 C                     0.240053
      9 C                    -0.041293
     10 C                    -0.024302
     11 O                    -0.333178
     12 O                    -0.339744
     13 C                    -0.085596
     14 H                     0.122596
     15 H                     0.090865
     16 H                     0.094668
     17 C                    -0.086674
     18 H                     0.124954
     19 H                     0.094274
     20 H                     0.090321
     21 C                    -0.220653
     22 S                    -0.000186
     23 C                    -0.064115
     24 H                     0.196607
     25 H                     0.206594
     26 C                     0.009678
     27 S                     0.122508
     28 C                    -0.233392
     29 C                    -0.127266
     30 C                     0.003098
     31 C                     0.385864
     32 C                    -0.155170
     33 S                     0.042388
     34 C                     0.460050
     35 O                    -0.448639
     36 O                    -0.297779
     37 F                    -0.209952
     38 C                    -0.054857
     39 H                     0.116589
     40 H                     0.084736
     41 H                     0.084572
     42 H                     0.215068
  ----------------------------------------
  Sum of atomic charges =     0.000000

                    Cartesian Multipole Moments
 -----------------------------------------------------------------
    Charge (ESU x 10^10)
                -0.0000
    Dipole Moment (Debye)
         X       1.3243      Y       1.5632      Z       2.9604
       Tot       3.6002
    Quadrupole Moments (Debye-Ang)
        XX    -174.6120     XY       5.9474     YY    -160.1490
        XZ      -2.3854     YZ      -8.7963     ZZ    -206.1271

 Total job time:  330.78s(wall), 10855.74s(cpu)
        *  Thank you very much for using Q-Chem.  Have a nice day.  *
