 Q-Chem 5.4, Q-Chem, Inc., Pleasanton, CA (2021)
 Q-Chem 5.4.0 for Intel X86 EM64T Linux

User input:
--------------------------------------------------------------
$molecule
0 1
C	0.694800	-8.491498	0.267851
C	0.609575	-7.611804	-0.801461
S	0.637720	-7.625175	1.822194
C	0.491451	-6.242817	-0.415201
H	0.630252	-7.929984	-1.851431
C	0.475427	-6.061615	1.012650
C	0.390283	-4.782565	1.584194
C	0.417881	-5.136668	-1.309433
C	0.336834	-3.854939	-0.737539
C	0.318062	-3.675191	0.691828
O	0.416812	-5.465546	-2.631211
O	0.393456	-4.462560	2.911907
C	-0.133608	-5.388174	3.854716
H	-0.250600	-4.830719	4.803517
H	0.553224	-6.244057	4.034285
H	-1.124185	-5.778154	3.535185
C	0.770575	-4.496951	-3.610841
H	0.884590	-5.049682	-4.562544
H	1.731122	-3.995801	-3.364029
H	-0.021261	-3.728125	-3.743566
C	0.202163	-2.305480	1.074491
S	0.186971	-2.287897	-1.548848
C	0.125084	-1.429719	0.000000
H	0.178654	-1.985194	2.123688
H	0.792793	-9.583356	0.262315
C	0.000000	0.000000	0.000000
S	0.158383	0.885376	1.510732
C	0.430876	2.436951	0.727629
C	0.157682	0.894430	-1.064665
C	0.397351	2.262384	-0.678287
C	0.147783	0.828765	-2.486150
C	0.367291	2.074406	-3.106916
S	0.580633	3.303533	-1.965735
C	0.416083	2.324204	-4.559972
O	0.256921	1.404367	-5.350277
O	0.642094	3.587338	-5.004375
F	-0.041828	-0.269113	-3.246290
C	0.714377	3.938827	-6.334976
H	0.906844	5.026898	-6.370268
H	-0.230661	3.710099	-6.875609
H	1.531918	3.398681	-6.861878
H	0.590699	3.342984	1.321510
$end

$rem
JOBTYPE		SP
EXCHANGE	HF
CORRELATION	pRIMP2
BASIS		cc-pvtz
METHOD		rimp2
AUX_BASIS	rimp2-cc-pvtz
SOLVENT_METHOD	PCM
PURECART	11111
SYMMETRY	false
MEM_TOTAL	110000
SCF_CONVERGENCE = 6
THRESH=10
GUI = 2
$end

$solvent
dielectric 4.90
$end
--------------------------------------------------------------

             Standard Nuclear Orientation (Angstroms)
    I     Atom           X                Y                Z
 ----------------------------------------------------------------
    1      C       0.6948000000    -8.4914980000     0.2678510000
    2      C       0.6095750000    -7.6118040000    -0.8014610000
    3      S       0.6377200000    -7.6251750000     1.8221940000
    4      C       0.4914510000    -6.2428170000    -0.4152010000
    5      H       0.6302520000    -7.9299840000    -1.8514310000
    6      C       0.4754270000    -6.0616150000     1.0126500000
    7      C       0.3902830000    -4.7825650000     1.5841940000
    8      C       0.4178810000    -5.1366680000    -1.3094330000
    9      C       0.3368340000    -3.8549390000    -0.7375390000
   10      C       0.3180620000    -3.6751910000     0.6918280000
   11      O       0.4168120000    -5.4655460000    -2.6312110000
   12      O       0.3934560000    -4.4625600000     2.9119070000
   13      C      -0.1336080000    -5.3881740000     3.8547160000
   14      H      -0.2506000000    -4.8307190000     4.8035170000
   15      H       0.5532240000    -6.2440570000     4.0342850000
   16      H      -1.1241850000    -5.7781540000     3.5351850000
   17      C       0.7705750000    -4.4969510000    -3.6108410000
   18      H       0.8845900000    -5.0496820000    -4.5625440000
   19      H       1.7311220000    -3.9958010000    -3.3640290000
   20      H      -0.0212610000    -3.7281250000    -3.7435660000
   21      C       0.2021630000    -2.3054800000     1.0744910000
   22      S       0.1869710000    -2.2878970000    -1.5488480000
   23      C       0.1250840000    -1.4297190000     0.0000000000
   24      H       0.1786540000    -1.9851940000     2.1236880000
   25      H       0.7927930000    -9.5833560000     0.2623150000
   26      C       0.0000000000     0.0000000000     0.0000000000
   27      S       0.1583830000     0.8853760000     1.5107320000
   28      C       0.4308760000     2.4369510000     0.7276290000
   29      C       0.1576820000     0.8944300000    -1.0646650000
   30      C       0.3973510000     2.2623840000    -0.6782870000
   31      C       0.1477830000     0.8287650000    -2.4861500000
   32      C       0.3672910000     2.0744060000    -3.1069160000
   33      S       0.5806330000     3.3035330000    -1.9657350000
   34      C       0.4160830000     2.3242040000    -4.5599720000
   35      O       0.2569210000     1.4043670000    -5.3502770000
   36      O       0.6420940000     3.5873380000    -5.0043750000
   37      F      -0.0418280000    -0.2691130000    -3.2462900000
   38      C       0.7143770000     3.9388270000    -6.3349760000
   39      H       0.9068440000     5.0268980000    -6.3702680000
   40      H      -0.2306610000     3.7100990000    -6.8756090000
   41      H       1.5319180000     3.3986810000    -6.8618780000
   42      H       0.5906990000     3.3429840000     1.3215100000
 ----------------------------------------------------------------

   10   -2754.2882724846      8.46e-07  Convergence criterion met
 Total energy in the final basis set =    -2754.2882724846
        RIMP2         total energy =     -2759.3462489362 a.u.

                    Orbital Energies (a.u.)
 --------------------------------------------------------------

 Alpha MOs
 -- Occupied --
-92.0145 -91.9957 -91.9862 -91.9849 -26.3365 -20.6124 -20.5917 -20.5911
-20.5504 -11.4108 -11.3791 -11.3183 -11.3177 -11.3127 -11.2982 -11.2978
-11.2972 -11.2948 -11.2887 -11.2863 -11.2854 -11.2837 -11.2837 -11.2834
-11.2796 -11.2613 -11.2587 -11.2580 -11.2497  -9.0131  -8.9997  -8.9861
 -8.9859  -6.6938  -6.6933  -6.6927  -6.6809  -6.6803  -6.6789  -6.6671
 -6.6667  -6.6665  -6.6660  -6.6656  -6.6649  -1.6525  -1.4722  -1.4155
 -1.4142  -1.3676  -1.2350  -1.1959  -1.1690  -1.1423  -1.0846  -1.0519
 -1.0485  -1.0292  -1.0020  -0.9938  -0.9729  -0.9604  -0.9497  -0.9382
 -0.8957  -0.8702  -0.8520  -0.8103  -0.7965  -0.7871  -0.7751  -0.7631
 -0.7580  -0.7323  -0.7215  -0.7194  -0.7004  -0.6890  -0.6841  -0.6789
 -0.6744  -0.6622  -0.6583  -0.6522  -0.6284  -0.6194  -0.6160  -0.6070
 -0.6022  -0.5963  -0.5885  -0.5705  -0.5690  -0.5649  -0.5593  -0.5527
 -0.5303  -0.5265  -0.5237  -0.5191  -0.5146  -0.5087  -0.5018  -0.4950
 -0.4859  -0.4829  -0.4802  -0.4641  -0.4617  -0.4612  -0.4571  -0.4250
 -0.3952  -0.3865  -0.3606  -0.3499  -0.3251  -0.2837  -0.2462

          Ground-State Mulliken Net Atomic Charges

     Atom                 Charge (a.u.)
  ----------------------------------------
      1 C                    -0.188400
      2 C                    -0.254550
      3 S                    -0.023558
      4 C                    -0.014440
      5 H                     0.196639
      6 C                    -0.028903
      7 C                     0.241619
      8 C                     0.242786
      9 C                    -0.040032
     10 C                    -0.023068
     11 O                    -0.333687
     12 O                    -0.340619
     13 C                    -0.085615
     14 H                     0.122260
     15 H                     0.091134
     16 H                     0.094159
     17 C                    -0.088942
     18 H                     0.125585
     19 H                     0.094329
     20 H                     0.091630
     21 C                    -0.246953
     22 S                    -0.026493
     23 C                     0.000032
     24 H                     0.186769
     25 H                     0.206462
     26 C                     0.038119
     27 S                     0.094036
     28 C                    -0.231050
     29 C                    -0.094914
     30 C                    -0.028625
     31 C                     0.363497
     32 C                    -0.129525
     33 S                     0.041133
     34 C                     0.458585
     35 O                    -0.450537
     36 O                    -0.297762
     37 F                    -0.209117
     38 C                    -0.054894
     39 H                     0.116823
     40 H                     0.084562
     41 H                     0.084434
     42 H                     0.217094
  ----------------------------------------
  Sum of atomic charges =     0.000000

                    Cartesian Multipole Moments
 -----------------------------------------------------------------
    Charge (ESU x 10^10)
                 0.0000
    Dipole Moment (Debye)
         X       0.5294      Y       1.7977      Z       2.8743
       Tot       3.4313
    Quadrupole Moments (Debye-Ang)
        XX    -200.2115     XY       2.1424     YY    -160.3149
        XZ      -7.5760     YZ     -11.0298     ZZ    -181.9746

 Total job time:  319.71s(wall), 10535.84s(cpu)
        *  Thank you very much for using Q-Chem.  Have a nice day.  *
