 Q-Chem 5.4, Q-Chem, Inc., Pleasanton, CA (2021)
 Q-Chem 5.4.0 for Intel X86 EM64T Linux

User input:
--------------------------------------------------------------
$molecule
0 1
C	0.272104	-8.519741	0.000687
C	-0.779533	-7.635967	0.194476
S	1.799596	-7.651740	-0.287581
C	-0.399427	-6.261894	0.125787
H	-1.812314	-7.954738	0.383826
C	1.006762	-6.079985	-0.121989
C	1.564994	-4.798382	-0.247488
C	-1.284087	-5.153542	0.258303
C	-0.726260	-3.869626	0.128493
C	0.681918	-3.688927	-0.116725
O	-2.580622	-5.481075	0.517104
O	2.867144	-4.479871	-0.508622
C	3.900814	-5.356026	-0.075811
H	4.847002	-4.790496	-0.173640
H	3.971794	-6.268513	-0.707354
H	3.763397	-5.658187	0.984963
C	-3.621225	-4.546999	0.257016
H	-4.569828	-5.107564	0.357864
H	-3.551910	-4.131473	-0.771211
H	-3.626592	-3.712085	0.990913
C	1.058088	-2.314326	-0.187034
S	-1.523035	-2.295487	0.281899
C	0.000000	-1.435180	0.000000
H	2.090565	-1.993211	-0.373653
H	0.266226	-9.615985	-0.000773
C	0.000000	0.000000	0.000000
S	0.002233	0.899428	1.510732
C	0.001157	2.474749	0.727629
C	-0.000030	0.908223	-1.064665
C	-0.001545	2.297013	-0.678287
C	0.001624	0.841837	-2.486150
C	0.001494	2.106670	-3.106916
S	-0.001841	3.354171	-1.965735
C	0.006168	2.361146	-4.559972
O	0.009152	1.427646	-5.350277
O	0.009405	3.644337	-5.004375
F	0.005539	-0.272288	-3.246290
C	0.019554	4.003038	-6.334976
H	0.020155	5.108000	-6.370268
H	-0.871409	3.613681	-6.875609
H	0.918470	3.613062	-6.861878
H	0.001222	3.394771	1.321510
$end

$rem
JOBTYPE		SP
EXCHANGE	HF
CORRELATION	pRIMP2
BASIS		cc-pvtz
METHOD		rimp2
AUX_BASIS	rimp2-cc-pvtz
SOLVENT_METHOD	PCM
PURECART	11111
SYMMETRY	false
MEM_TOTAL	110000
SCF_CONVERGENCE = 6
THRESH=10
GUI = 2
$end

$solvent
dielectric 4.90
$end
--------------------------------------------------------------

             Standard Nuclear Orientation (Angstroms)
    I     Atom           X                Y                Z
 ----------------------------------------------------------------
    1      C       0.2721040000    -8.5197410000     0.0006870000
    2      C      -0.7795330000    -7.6359670000     0.1944760000
    3      S       1.7995960000    -7.6517400000    -0.2875810000
    4      C      -0.3994270000    -6.2618940000     0.1257870000
    5      H      -1.8123140000    -7.9547380000     0.3838260000
    6      C       1.0067620000    -6.0799850000    -0.1219890000
    7      C       1.5649940000    -4.7983820000    -0.2474880000
    8      C      -1.2840870000    -5.1535420000     0.2583030000
    9      C      -0.7262600000    -3.8696260000     0.1284930000
   10      C       0.6819180000    -3.6889270000    -0.1167250000
   11      O      -2.5806220000    -5.4810750000     0.5171040000
   12      O       2.8671440000    -4.4798710000    -0.5086220000
   13      C       3.9008140000    -5.3560260000    -0.0758110000
   14      H       4.8470020000    -4.7904960000    -0.1736400000
   15      H       3.9717940000    -6.2685130000    -0.7073540000
   16      H       3.7633970000    -5.6581870000     0.9849630000
   17      C      -3.6212250000    -4.5469990000     0.2570160000
   18      H      -4.5698280000    -5.1075640000     0.3578640000
   19      H      -3.5519100000    -4.1314730000    -0.7712110000
   20      H      -3.6265920000    -3.7120850000     0.9909130000
   21      C       1.0580880000    -2.3143260000    -0.1870340000
   22      S      -1.5230350000    -2.2954870000     0.2818990000
   23      C       0.0000000000    -1.4351800000     0.0000000000
   24      H       2.0905650000    -1.9932110000    -0.3736530000
   25      H       0.2662260000    -9.6159850000    -0.0007730000
   26      C       0.0000000000     0.0000000000     0.0000000000
   27      S       0.0022330000     0.8994280000     1.5107320000
   28      C       0.0011570000     2.4747490000     0.7276290000
   29      C      -0.0000300000     0.9082230000    -1.0646650000
   30      C      -0.0015450000     2.2970130000    -0.6782870000
   31      C       0.0016240000     0.8418370000    -2.4861500000
   32      C       0.0014940000     2.1066700000    -3.1069160000
   33      S      -0.0018410000     3.3541710000    -1.9657350000
   34      C       0.0061680000     2.3611460000    -4.5599720000
   35      O       0.0091520000     1.4276460000    -5.3502770000
   36      O       0.0094050000     3.6443370000    -5.0043750000
   37      F       0.0055390000    -0.2722880000    -3.2462900000
   38      C       0.0195540000     4.0030380000    -6.3349760000
   39      H       0.0201550000     5.1080000000    -6.3702680000
   40      H      -0.8714090000     3.6136810000    -6.8756090000
   41      H       0.9184700000     3.6130620000    -6.8618780000
   42      H       0.0012220000     3.3947710000     1.3215100000
 ----------------------------------------------------------------

   10   -2754.2951358415      8.72e-07  Convergence criterion met
 Total energy in the final basis set =    -2754.2951358415
        RIMP2         total energy =     -2759.3471611954 a.u.

                    Orbital Energies (a.u.)
 --------------------------------------------------------------

 Alpha MOs
 -- Occupied --
-92.0159 -91.9941 -91.9901 -91.9867 -26.3336 -20.6119 -20.5925 -20.5919
-20.5498 -11.4101 -11.3770 -11.3194 -11.3190 -11.3096 -11.2969 -11.2957
-11.2932 -11.2931 -11.2883 -11.2871 -11.2869 -11.2863 -11.2843 -11.2826
-11.2804 -11.2611 -11.2599 -11.2598 -11.2502  -9.0141  -8.9981  -8.9905
 -8.9866  -6.6948  -6.6942  -6.6938  -6.6794  -6.6787  -6.6774  -6.6714
 -6.6707  -6.6697  -6.6676  -6.6669  -6.6661  -1.6464  -1.4716  -1.4166
 -1.4147  -1.3669  -1.2327  -1.1962  -1.1683  -1.1415  -1.0840  -1.0524
 -1.0471  -1.0273  -1.0026  -0.9933  -0.9710  -0.9616  -0.9506  -0.9383
 -0.8961  -0.8688  -0.8509  -0.8043  -0.7909  -0.7882  -0.7734  -0.7691
 -0.7584  -0.7330  -0.7179  -0.7147  -0.7016  -0.6885  -0.6834  -0.6783
 -0.6707  -0.6607  -0.6589  -0.6529  -0.6309  -0.6203  -0.6172  -0.6062
 -0.6017  -0.5940  -0.5830  -0.5775  -0.5709  -0.5658  -0.5543  -0.5505
 -0.5355  -0.5262  -0.5245  -0.5165  -0.5142  -0.5074  -0.5013  -0.4946
 -0.4908  -0.4837  -0.4763  -0.4687  -0.4616  -0.4610  -0.4605  -0.4072
 -0.3996  -0.3878  -0.3581  -0.3483  -0.3151  -0.2889  -0.2595

          Ground-State Mulliken Net Atomic Charges

     Atom                 Charge (a.u.)
  ----------------------------------------
      1 C                    -0.186831
      2 C                    -0.254394
      3 S                    -0.021166
      4 C                    -0.012386
      5 H                     0.196562
      6 C                    -0.027924
      7 C                     0.246768
      8 C                     0.238768
      9 C                    -0.047797
     10 C                    -0.033172
     11 O                    -0.333244
     12 O                    -0.339479
     13 C                    -0.085740
     14 H                     0.122834
     15 H                     0.091377
     16 H                     0.093920
     17 C                    -0.086648
     18 H                     0.124707
     19 H                     0.095587
     20 H                     0.089464
     21 C                    -0.209000
     22 S                     0.002046
     23 C                    -0.048341
     24 H                     0.196902
     25 H                     0.206701
     26 C                    -0.026234
     27 S                     0.118801
     28 C                    -0.239850
     29 C                    -0.087344
     30 C                    -0.006592
     31 C                     0.396984
     32 C                    -0.158934
     33 S                     0.036407
     34 C                     0.460741
     35 O                    -0.450222
     36 O                    -0.297803
     37 F                    -0.211003
     38 C                    -0.055002
     39 H                     0.116508
     40 H                     0.084578
     41 H                     0.084479
     42 H                     0.214970
  ----------------------------------------
  Sum of atomic charges =     0.000000

                    Cartesian Multipole Moments
 -----------------------------------------------------------------
    Charge (ESU x 10^10)
                -0.0000
    Dipole Moment (Debye)
         X       0.0277      Y       1.4267      Z       3.5210
       Tot       3.7992
    Quadrupole Moments (Debye-Ang)
        XX    -176.4485     XY      -0.7531     YY    -157.9833
        XZ       1.4440     YZ     -12.0091     ZZ    -206.6446

 Total job time:  310.76s(wall), 9717.19s(cpu)
        *  Thank you very much for using Q-Chem.  Have a nice day.  *
