 Q-Chem 5.4, Q-Chem, Inc., Pleasanton, CA (2021)
 Q-Chem 5.4.0 for Intel X86 EM64T Linux

User input:
--------------------------------------------------------------
$molecule
0 1
C	0.235993	-8.519741	-0.135457
C	-0.577858	-7.635967	0.558188
S	1.414705	-7.651740	-1.148850
C	-0.283020	-6.261894	0.308648
H	-1.377597	-7.954738	1.238560
C	0.810887	-6.079985	-0.609026
C	1.231581	-4.798382	-0.996828
C	-0.982901	-5.153542	0.865740
C	-0.564713	-3.869626	0.474408
C	0.532196	-3.688927	-0.442046
O	-1.976332	-5.481075	1.738137
O	2.228709	-4.479871	-1.874052
C	3.340298	-5.356026	-2.016062
H	4.110807	-4.790496	-2.573877
H	3.085998	-6.268513	-2.598484
H	3.751679	-5.658187	-1.028695
C	-3.007565	-4.546999	2.033195
H	-3.778655	-5.107564	2.594833
H	-3.461650	-4.131473	1.108067
H	-2.645264	-3.712085	2.671451
C	0.822814	-2.314326	-0.691020
S	-1.178037	-2.295487	1.005649
C	0.000000	-1.435180	0.000000
H	1.623656	-1.993211	-1.368875
H	0.230172	-9.615985	-0.133782
C	0.000000	0.000000	0.000000
S	0.234946	0.868203	1.510732
C	0.641630	2.390125	0.727629
C	0.235036	0.877284	-1.064665
C	0.593019	2.219143	-0.678287
C	0.219452	0.812732	-2.486150
C	0.546689	2.034501	-3.106916
S	0.866345	3.240357	-1.965735
C	0.617067	2.279095	-4.559972
O	0.378342	1.376631	-5.350277
O	0.952308	3.517725	-5.004375
F	-0.065123	-0.264443	-3.246290
C	1.054950	3.861577	-6.334976
H	1.341516	4.928732	-6.370268
H	0.093573	3.716085	-6.875609
H	1.822303	3.252232	-6.861878
H	0.879812	3.278780	1.321510
$end

$rem
JOBTYPE		SP
EXCHANGE	HF
CORRELATION	pRIMP2
BASIS		cc-pvtz
METHOD		rimp2
AUX_BASIS	rimp2-cc-pvtz
SOLVENT_METHOD	PCM
PURECART	11111
SYMMETRY	false
MEM_TOTAL	110000
SCF_CONVERGENCE = 6
THRESH=10
GUI = 2
$end

$solvent
dielectric 4.90
$end
--------------------------------------------------------------

             Standard Nuclear Orientation (Angstroms)
    I     Atom           X                Y                Z
 ----------------------------------------------------------------
    1      C       0.2359930000    -8.5197410000    -0.1354570000
    2      C      -0.5778580000    -7.6359670000     0.5581880000
    3      S       1.4147050000    -7.6517400000    -1.1488500000
    4      C      -0.2830200000    -6.2618940000     0.3086480000
    5      H      -1.3775970000    -7.9547380000     1.2385600000
    6      C       0.8108870000    -6.0799850000    -0.6090260000
    7      C       1.2315810000    -4.7983820000    -0.9968280000
    8      C      -0.9829010000    -5.1535420000     0.8657400000
    9      C      -0.5647130000    -3.8696260000     0.4744080000
   10      C       0.5321960000    -3.6889270000    -0.4420460000
   11      O      -1.9763320000    -5.4810750000     1.7381370000
   12      O       2.2287090000    -4.4798710000    -1.8740520000
   13      C       3.3402980000    -5.3560260000    -2.0160620000
   14      H       4.1108070000    -4.7904960000    -2.5738770000
   15      H       3.0859980000    -6.2685130000    -2.5984840000
   16      H       3.7516790000    -5.6581870000    -1.0286950000
   17      C      -3.0075650000    -4.5469990000     2.0331950000
   18      H      -3.7786550000    -5.1075640000     2.5948330000
   19      H      -3.4616500000    -4.1314730000     1.1080670000
   20      H      -2.6452640000    -3.7120850000     2.6714510000
   21      C       0.8228140000    -2.3143260000    -0.6910200000
   22      S      -1.1780370000    -2.2954870000     1.0056490000
   23      C       0.0000000000    -1.4351800000     0.0000000000
   24      H       1.6236560000    -1.9932110000    -1.3688750000
   25      H       0.2301720000    -9.6159850000    -0.1337820000
   26      C       0.0000000000     0.0000000000     0.0000000000
   27      S       0.2349460000     0.8682030000     1.5107320000
   28      C       0.6416300000     2.3901250000     0.7276290000
   29      C       0.2350360000     0.8772840000    -1.0646650000
   30      C       0.5930190000     2.2191430000    -0.6782870000
   31      C       0.2194520000     0.8127320000    -2.4861500000
   32      C       0.5466890000     2.0345010000    -3.1069160000
   33      S       0.8663450000     3.2403570000    -1.9657350000
   34      C       0.6170670000     2.2790950000    -4.5599720000
   35      O       0.3783420000     1.3766310000    -5.3502770000
   36      O       0.9523080000     3.5177250000    -5.0043750000
   37      F      -0.0651230000    -0.2644430000    -3.2462900000
   38      C       1.0549500000     3.8615770000    -6.3349760000
   39      H       1.3415160000     4.9287320000    -6.3702680000
   40      H       0.0935730000     3.7160850000    -6.8756090000
   41      H       1.8223030000     3.2522320000    -6.8618780000
   42      H       0.8798120000     3.2787800000     1.3215100000
 ----------------------------------------------------------------

   10   -2754.2944216967      8.03e-07  Convergence criterion met
 Total energy in the final basis set =    -2754.2944216967
        RIMP2         total energy =     -2759.3484168459 a.u.

                    Orbital Energies (a.u.)
 --------------------------------------------------------------

 Alpha MOs
 -- Occupied --
-92.0159 -91.9949 -91.9902 -91.9867 -26.3339 -20.6119 -20.5927 -20.5916
-20.5498 -11.4101 -11.3774 -11.3197 -11.3188 -11.3097 -11.2971 -11.2968
-11.2951 -11.2948 -11.2884 -11.2874 -11.2871 -11.2859 -11.2844 -11.2826
-11.2803 -11.2617 -11.2597 -11.2589 -11.2502  -9.0143  -8.9989  -8.9907
 -8.9866  -6.6950  -6.6944  -6.6939  -6.6802  -6.6795  -6.6782  -6.6717
 -6.6710  -6.6700  -6.6675  -6.6669  -6.6661  -1.6468  -1.4716  -1.4168
 -1.4144  -1.3669  -1.2336  -1.1965  -1.1689  -1.1422  -1.0844  -1.0525
 -1.0477  -1.0277  -1.0028  -0.9935  -0.9716  -0.9614  -0.9506  -0.9386
 -0.8964  -0.8693  -0.8506  -0.8036  -0.7932  -0.7881  -0.7728  -0.7702
 -0.7580  -0.7329  -0.7185  -0.7151  -0.7018  -0.6889  -0.6833  -0.6783
 -0.6712  -0.6611  -0.6593  -0.6527  -0.6298  -0.6202  -0.6168  -0.6063
 -0.6023  -0.5945  -0.5840  -0.5764  -0.5710  -0.5641  -0.5528  -0.5512
 -0.5356  -0.5262  -0.5254  -0.5165  -0.5148  -0.5081  -0.5029  -0.4967
 -0.4891  -0.4843  -0.4761  -0.4689  -0.4616  -0.4612  -0.4601  -0.4149
 -0.3977  -0.3871  -0.3589  -0.3494  -0.3212  -0.2863  -0.2540

          Ground-State Mulliken Net Atomic Charges

     Atom                 Charge (a.u.)
  ----------------------------------------
      1 C                    -0.187363
      2 C                    -0.254202
      3 S                    -0.020629
      4 C                    -0.014651
      5 H                     0.196466
      6 C                    -0.029290
      7 C                     0.244232
      8 C                     0.242982
      9 C                    -0.047124
     10 C                    -0.028079
     11 O                    -0.333332
     12 O                    -0.338897
     13 C                    -0.085845
     14 H                     0.123016
     15 H                     0.091396
     16 H                     0.093735
     17 C                    -0.086908
     18 H                     0.125290
     19 H                     0.095348
     20 H                     0.089202
     21 C                    -0.202421
     22 S                    -0.013062
     23 C                    -0.008596
     24 H                     0.199042
     25 H                     0.206653
     26 C                    -0.048326
     27 S                     0.116631
     28 C                    -0.239126
     29 C                    -0.110857
     30 C                    -0.006740
     31 C                     0.396285
     32 C                    -0.152192
     33 S                     0.038994
     34 C                     0.461638
     35 O                    -0.450199
     36 O                    -0.298015
     37 F                    -0.211261
     38 C                    -0.054960
     39 H                     0.116537
     40 H                     0.084683
     41 H                     0.084416
     42 H                     0.215529
  ----------------------------------------
  Sum of atomic charges =     0.000000

                    Cartesian Multipole Moments
 -----------------------------------------------------------------
    Charge (ESU x 10^10)
                 0.0000
    Dipole Moment (Debye)
         X       1.1005      Y       1.4075      Z       3.4453
       Tot       3.8810
    Quadrupole Moments (Debye-Ang)
        XX    -180.4422     XY       2.6573     YY    -158.8245
        XZ     -13.0900     YZ     -11.0180     ZZ    -201.5836

 Total job time:  306.98s(wall), 9973.81s(cpu)
        *  Thank you very much for using Q-Chem.  Have a nice day.  *
