 Q-Chem 5.4, Q-Chem, Inc., Pleasanton, CA (2021)
 Q-Chem 5.4.0 for Intel X86 EM64T Linux

User input:
--------------------------------------------------------------
$molecule
0 1
C	0.000687	-8.519741	-0.272104
C	0.194476	-7.635967	0.779533
S	-0.287581	-7.651740	-1.799596
C	0.125787	-6.261894	0.399427
H	0.383826	-7.954738	1.812314
C	-0.121989	-6.079985	-1.006762
C	-0.247488	-4.798382	-1.564994
C	0.258303	-5.153542	1.284087
C	0.128493	-3.869626	0.726260
C	-0.116725	-3.688927	-0.681918
O	0.517104	-5.481075	2.580622
O	-0.508622	-4.479871	-2.867144
C	-0.075811	-5.356026	-3.900814
H	-0.173640	-4.790496	-4.847002
H	-0.707354	-6.268513	-3.971794
H	0.984963	-5.658187	-3.763397
C	0.257016	-4.546999	3.621225
H	0.357864	-5.107564	4.569828
H	-0.771211	-4.131473	3.551910
H	0.990913	-3.712085	3.626592
C	-0.187034	-2.314326	-1.058088
S	0.281899	-2.295487	1.523035
C	0.000000	-1.435180	0.000000
H	-0.373653	-1.993211	-2.090565
H	-0.000773	-9.615985	-0.266226
C	0.000000	0.000000	0.000000
S	0.002233	0.899428	1.510732
C	0.001157	2.474749	0.727629
C	-0.000030	0.908223	-1.064665
C	-0.001545	2.297013	-0.678287
C	0.001624	0.841837	-2.486150
C	0.001494	2.106670	-3.106916
S	-0.001841	3.354171	-1.965735
C	0.006168	2.361146	-4.559972
O	0.009152	1.427646	-5.350277
O	0.009405	3.644337	-5.004375
F	0.005539	-0.272288	-3.246290
C	0.019554	4.003038	-6.334976
H	0.020155	5.108000	-6.370268
H	-0.871409	3.613681	-6.875609
H	0.918470	3.613062	-6.861878
H	0.001222	3.394771	1.321510
$end

$rem
JOBTYPE		SP
EXCHANGE	HF
CORRELATION	pRIMP2
BASIS		cc-pvtz
METHOD		rimp2
AUX_BASIS	rimp2-cc-pvtz
SOLVENT_METHOD	PCM
PURECART	11111
SYMMETRY	false
MEM_TOTAL	110000
SCF_CONVERGENCE = 6
THRESH=10
GUI = 2
$end

$solvent
dielectric 4.90
$end
--------------------------------------------------------------

             Standard Nuclear Orientation (Angstroms)
    I     Atom           X                Y                Z
 ----------------------------------------------------------------
    1      C       0.0006870000    -8.5197410000    -0.2721040000
    2      C       0.1944760000    -7.6359670000     0.7795330000
    3      S      -0.2875810000    -7.6517400000    -1.7995960000
    4      C       0.1257870000    -6.2618940000     0.3994270000
    5      H       0.3838260000    -7.9547380000     1.8123140000
    6      C      -0.1219890000    -6.0799850000    -1.0067620000
    7      C      -0.2474880000    -4.7983820000    -1.5649940000
    8      C       0.2583030000    -5.1535420000     1.2840870000
    9      C       0.1284930000    -3.8696260000     0.7262600000
   10      C      -0.1167250000    -3.6889270000    -0.6819180000
   11      O       0.5171040000    -5.4810750000     2.5806220000
   12      O      -0.5086220000    -4.4798710000    -2.8671440000
   13      C      -0.0758110000    -5.3560260000    -3.9008140000
   14      H      -0.1736400000    -4.7904960000    -4.8470020000
   15      H      -0.7073540000    -6.2685130000    -3.9717940000
   16      H       0.9849630000    -5.6581870000    -3.7633970000
   17      C       0.2570160000    -4.5469990000     3.6212250000
   18      H       0.3578640000    -5.1075640000     4.5698280000
   19      H      -0.7712110000    -4.1314730000     3.5519100000
   20      H       0.9909130000    -3.7120850000     3.6265920000
   21      C      -0.1870340000    -2.3143260000    -1.0580880000
   22      S       0.2818990000    -2.2954870000     1.5230350000
   23      C       0.0000000000    -1.4351800000     0.0000000000
   24      H      -0.3736530000    -1.9932110000    -2.0905650000
   25      H      -0.0007730000    -9.6159850000    -0.2662260000
   26      C       0.0000000000     0.0000000000     0.0000000000
   27      S       0.0022330000     0.8994280000     1.5107320000
   28      C       0.0011570000     2.4747490000     0.7276290000
   29      C      -0.0000300000     0.9082230000    -1.0646650000
   30      C      -0.0015450000     2.2970130000    -0.6782870000
   31      C       0.0016240000     0.8418370000    -2.4861500000
   32      C       0.0014940000     2.1066700000    -3.1069160000
   33      S      -0.0018410000     3.3541710000    -1.9657350000
   34      C       0.0061680000     2.3611460000    -4.5599720000
   35      O       0.0091520000     1.4276460000    -5.3502770000
   36      O       0.0094050000     3.6443370000    -5.0043750000
   37      F       0.0055390000    -0.2722880000    -3.2462900000
   38      C       0.0195540000     4.0030380000    -6.3349760000
   39      H       0.0201550000     5.1080000000    -6.3702680000
   40      H      -0.8714090000     3.6136810000    -6.8756090000
   41      H       0.9184700000     3.6130620000    -6.8618780000
   42      H       0.0012220000     3.3947710000     1.3215100000
 ----------------------------------------------------------------

   10   -2754.2972892046      8.38e-07  Convergence criterion met
 Total energy in the final basis set =    -2754.2972892046
        RIMP2         total energy =     -2759.3521560263 a.u.

                    Orbital Energies (a.u.)
 --------------------------------------------------------------

 Alpha MOs
 -- Occupied --
-92.0160 -91.9949 -91.9912 -91.9873 -26.3384 -20.6117 -20.5932 -20.5919
-20.5493 -11.4098 -11.3789 -11.3204 -11.3199 -11.3149 -11.2975 -11.2966
-11.2960 -11.2913 -11.2887 -11.2883 -11.2879 -11.2856 -11.2850 -11.2811
-11.2805 -11.2624 -11.2609 -11.2583 -11.2507  -9.0145  -8.9989  -8.9919
 -8.9872  -6.6953  -6.6948  -6.6942  -6.6802  -6.6795  -6.6781  -6.6729
 -6.6722  -6.6712  -6.6681  -6.6675  -6.6667  -1.6528  -1.4714  -1.4173
 -1.4146  -1.3667  -1.2336  -1.1977  -1.1700  -1.1425  -1.0851  -1.0534
 -1.0482  -1.0280  -1.0042  -0.9943  -0.9724  -0.9614  -0.9510  -0.9385
 -0.8974  -0.8695  -0.8526  -0.8075  -0.7965  -0.7891  -0.7726  -0.7697
 -0.7583  -0.7335  -0.7215  -0.7198  -0.7020  -0.6898  -0.6851  -0.6784
 -0.6725  -0.6625  -0.6598  -0.6528  -0.6298  -0.6205  -0.6161  -0.6061
 -0.5998  -0.5938  -0.5888  -0.5767  -0.5695  -0.5601  -0.5535  -0.5496
 -0.5373  -0.5273  -0.5237  -0.5205  -0.5177  -0.5099  -0.5054  -0.4964
 -0.4862  -0.4844  -0.4805  -0.4680  -0.4620  -0.4612  -0.4588  -0.4244
 -0.3988  -0.3864  -0.3601  -0.3508  -0.3259  -0.2847  -0.2475

          Ground-State Mulliken Net Atomic Charges

     Atom                 Charge (a.u.)
  ----------------------------------------
      1 C                    -0.185709
      2 C                    -0.255216
      3 S                    -0.019536
      4 C                    -0.012361
      5 H                     0.196561
      6 C                    -0.029349
      7 C                     0.253748
      8 C                     0.241642
      9 C                    -0.036191
     10 C                    -0.042429
     11 O                    -0.333223
     12 O                    -0.339063
     13 C                    -0.086461
     14 H                     0.124537
     15 H                     0.091517
     16 H                     0.094206
     17 C                    -0.088357
     18 H                     0.126051
     19 H                     0.095100
     20 H                     0.089681
     21 C                    -0.193410
     22 S                    -0.041746
     23 C                    -0.026581
     24 H                     0.210201
     25 H                     0.207015
     26 C                    -0.042280
     27 S                     0.083602
     28 C                    -0.245839
     29 C                    -0.054156
     30 C                    -0.018782
     31 C                     0.400478
     32 C                    -0.140525
     33 S                     0.034890
     34 C                     0.462665
     35 O                    -0.452748
     36 O                    -0.298045
     37 F                    -0.217616
     38 C                    -0.055117
     39 H                     0.116685
     40 H                     0.084421
     41 H                     0.084314
     42 H                     0.217425
  ----------------------------------------
  Sum of atomic charges =     0.000000

                    Cartesian Multipole Moments
 -----------------------------------------------------------------
    Charge (ESU x 10^10)
                 0.0000
    Dipole Moment (Debye)
         X       0.2364      Y       1.0378      Z       3.1500
       Tot       3.3250
    Quadrupole Moments (Debye-Ang)
        XX    -201.8741     XY      -1.2846     YY    -156.1239
        XZ      -1.4710     YZ      -9.3489     ZZ    -181.4211

 Total job time:  302.98s(wall), 9443.58s(cpu)
        *  Thank you very much for using Q-Chem.  Have a nice day.  *
