 Q-Chem 5.4, Q-Chem, Inc., Pleasanton, CA (2021)
 Q-Chem 5.4.0 for Intel X86 EM64T Linux

User input:
--------------------------------------------------------------
$molecule
0 1
C	0.235306	-8.519741	0.136647
C	-0.772334	-7.635967	-0.221346
S	1.702286	-7.651740	0.650746
C	-0.408807	-6.261894	-0.090779
H	-1.761423	-7.954738	-0.573754
C	0.932876	-6.079985	0.397735
C	1.479069	-4.798382	0.568166
C	-1.241204	-5.153542	-0.418347
C	-0.693206	-3.869626	-0.251852
C	0.648921	-3.688927	0.239872
O	-2.493437	-5.481075	-0.842486
O	2.737331	-4.479871	0.993092
C	3.416110	-5.356026	1.884752
H	4.284447	-4.790496	2.273124
H	3.793352	-6.268513	1.373310
H	2.766716	-5.658187	2.734702
C	-3.264581	-4.546999	-1.588030
H	-4.136519	-5.107564	-1.974995
H	-2.690439	-4.131473	-2.443843
H	-3.636177	-3.712085	-0.955140
C	1.009848	-2.314326	0.367068
S	-1.459936	-2.295487	-0.517386
C	-0.000000	-1.435180	-0.000000
H	1.997308	-1.993211	0.721689
H	0.230945	-9.615985	0.132444
C	0.000000	0.000000	0.000000
S	0.158383	0.885376	1.510732
C	0.430876	2.436951	0.727629
C	0.157682	0.894430	-1.064665
C	0.397351	2.262384	-0.678287
C	0.147783	0.828765	-2.486150
C	0.367291	2.074406	-3.106916
S	0.580633	3.303533	-1.965735
C	0.416083	2.324204	-4.559972
O	0.256921	1.404367	-5.350277
O	0.642094	3.587338	-5.004375
F	-0.041828	-0.269113	-3.246290
C	0.714377	3.938827	-6.334976
H	0.906844	5.026898	-6.370268
H	-0.230661	3.710099	-6.875609
H	1.531918	3.398681	-6.861878
H	0.590699	3.342984	1.321510
$end

$rem
JOBTYPE		SP
EXCHANGE	HF
CORRELATION	pRIMP2
BASIS		cc-pvtz
METHOD		rimp2
AUX_BASIS	rimp2-cc-pvtz
SOLVENT_METHOD	PCM
PURECART	11111
SYMMETRY	false
MEM_TOTAL	110000
SCF_CONVERGENCE = 6
THRESH=10
GUI = 2
$end

$solvent
dielectric 4.90
$end
--------------------------------------------------------------

             Standard Nuclear Orientation (Angstroms)
    I     Atom           X                Y                Z
 ----------------------------------------------------------------
    1      C       0.2353060000    -8.5197410000     0.1366470000
    2      C      -0.7723340000    -7.6359670000    -0.2213460000
    3      S       1.7022860000    -7.6517400000     0.6507460000
    4      C      -0.4088070000    -6.2618940000    -0.0907790000
    5      H      -1.7614230000    -7.9547380000    -0.5737540000
    6      C       0.9328760000    -6.0799850000     0.3977350000
    7      C       1.4790690000    -4.7983820000     0.5681660000
    8      C      -1.2412040000    -5.1535420000    -0.4183470000
    9      C      -0.6932060000    -3.8696260000    -0.2518520000
   10      C       0.6489210000    -3.6889270000     0.2398720000
   11      O      -2.4934370000    -5.4810750000    -0.8424860000
   12      O       2.7373310000    -4.4798710000     0.9930920000
   13      C       3.4161100000    -5.3560260000     1.8847520000
   14      H       4.2844470000    -4.7904960000     2.2731240000
   15      H       3.7933520000    -6.2685130000     1.3733100000
   16      H       2.7667160000    -5.6581870000     2.7347020000
   17      C      -3.2645810000    -4.5469990000    -1.5880300000
   18      H      -4.1365190000    -5.1075640000    -1.9749950000
   19      H      -2.6904390000    -4.1314730000    -2.4438430000
   20      H      -3.6361770000    -3.7120850000    -0.9551400000
   21      C       1.0098480000    -2.3143260000     0.3670680000
   22      S      -1.4599360000    -2.2954870000    -0.5173860000
   23      C       0.0000000000    -1.4351800000     0.0000000000
   24      H       1.9973080000    -1.9932110000     0.7216890000
   25      H       0.2309450000    -9.6159850000     0.1324440000
   26      C       0.0000000000     0.0000000000     0.0000000000
   27      S       0.1583830000     0.8853760000     1.5107320000
   28      C       0.4308760000     2.4369510000     0.7276290000
   29      C       0.1576820000     0.8944300000    -1.0646650000
   30      C       0.3973510000     2.2623840000    -0.6782870000
   31      C       0.1477830000     0.8287650000    -2.4861500000
   32      C       0.3672910000     2.0744060000    -3.1069160000
   33      S       0.5806330000     3.3035330000    -1.9657350000
   34      C       0.4160830000     2.3242040000    -4.5599720000
   35      O       0.2569210000     1.4043670000    -5.3502770000
   36      O       0.6420940000     3.5873380000    -5.0043750000
   37      F      -0.0418280000    -0.2691130000    -3.2462900000
   38      C       0.7143770000     3.9388270000    -6.3349760000
   39      H       0.9068440000     5.0268980000    -6.3702680000
   40      H      -0.2306610000     3.7100990000    -6.8756090000
   41      H       1.5319180000     3.3986810000    -6.8618780000
   42      H       0.5906990000     3.3429840000     1.3215100000
 ----------------------------------------------------------------

   10   -2754.2940799546      8.84e-07  Convergence criterion met
 Total energy in the final basis set =    -2754.2940799546
        RIMP2         total energy =     -2759.3472400395 a.u.

                    Orbital Energies (a.u.)
 --------------------------------------------------------------

 Alpha MOs
 -- Occupied --
-92.0168 -91.9945 -91.9892 -91.9866 -26.3339 -20.6119 -20.5921 -20.5920
-20.5499 -11.4102 -11.3770 -11.3192 -11.3188 -11.3093 -11.2972 -11.2962
-11.2942 -11.2936 -11.2883 -11.2865 -11.2865 -11.2865 -11.2842 -11.2827
-11.2803 -11.2612 -11.2596 -11.2596 -11.2501  -9.0148  -8.9986  -8.9896
 -8.9865  -6.6955  -6.6949  -6.6944  -6.6798  -6.6792  -6.6778  -6.6705
 -6.6698  -6.6689  -6.6675  -6.6669  -6.6660  -1.6468  -1.4717  -1.4163
 -1.4147  -1.3670  -1.2331  -1.1961  -1.1683  -1.1417  -1.0841  -1.0522
 -1.0473  -1.0276  -1.0024  -0.9933  -0.9712  -0.9613  -0.9504  -0.9385
 -0.8957  -0.8690  -0.8507  -0.8061  -0.7900  -0.7884  -0.7746  -0.7673
 -0.7584  -0.7328  -0.7180  -0.7150  -0.7012  -0.6885  -0.6833  -0.6783
 -0.6710  -0.6608  -0.6587  -0.6528  -0.6308  -0.6202  -0.6169  -0.6063
 -0.6016  -0.5945  -0.5841  -0.5763  -0.5708  -0.5671  -0.5553  -0.5520
 -0.5323  -0.5265  -0.5237  -0.5166  -0.5145  -0.5076  -0.5015  -0.4932
 -0.4908  -0.4841  -0.4774  -0.4674  -0.4616  -0.4609  -0.4605  -0.4084
 -0.3999  -0.3872  -0.3580  -0.3484  -0.3164  -0.2887  -0.2580

          Ground-State Mulliken Net Atomic Charges

     Atom                 Charge (a.u.)
  ----------------------------------------
      1 C                    -0.187273
      2 C                    -0.254194
      3 S                    -0.021688
      4 C                    -0.013822
      5 H                     0.196581
      6 C                    -0.028532
      7 C                     0.244324
      8 C                     0.242422
      9 C                    -0.049790
     10 C                    -0.030902
     11 O                    -0.333512
     12 O                    -0.339962
     13 C                    -0.085731
     14 H                     0.122636
     15 H                     0.091284
     16 H                     0.094016
     17 C                    -0.086693
     18 H                     0.124534
     19 H                     0.096152
     20 H                     0.089395
     21 C                    -0.212137
     22 S                     0.003104
     23 C                    -0.034033
     24 H                     0.199315
     25 H                     0.206633
     26 C                    -0.033159
     27 S                     0.118948
     28 C                    -0.239118
     29 C                    -0.091462
     30 C                    -0.006382
     31 C                     0.389748
     32 C                    -0.156136
     33 S                     0.038701
     34 C                     0.460013
     35 O                    -0.450137
     36 O                    -0.297801
     37 F                    -0.210726
     38 C                    -0.054957
     39 H                     0.116499
     40 H                     0.084479
     41 H                     0.084538
     42 H                     0.214821
  ----------------------------------------
  Sum of atomic charges =     0.000000

                    Cartesian Multipole Moments
 -----------------------------------------------------------------
    Charge (ESU x 10^10)
                -0.0000
    Dipole Moment (Debye)
         X       0.4775      Y       1.5066      Z       3.4719
       Tot       3.8147
    Quadrupole Moments (Debye-Ang)
        XX    -183.6268     XY       2.8323     YY    -158.9109
        XZ       9.7700     YZ     -12.0001     ZZ    -198.9598

 Total job time:  280.67s(wall), 9180.22s(cpu)
        *  Thank you very much for using Q-Chem.  Have a nice day.  *
