 Q-Chem 5.4, Q-Chem, Inc., Pleasanton, CA (2021)
 Q-Chem 5.4.0 for Intel X86 EM64T Linux

User input:
--------------------------------------------------------------
$molecule
0 1
C	0.174379	-8.519741	0.208886
C	-0.650052	-7.635967	-0.472151
S	1.377058	-7.651740	1.193717
C	-0.353105	-6.261894	-0.225125
H	-1.458961	-7.954738	-1.141594
C	0.740583	-6.079985	0.692811
C	1.195546	-4.798382	1.039773
C	-1.023267	-5.153542	-0.817634
C	-0.565262	-3.869626	-0.473754
C	0.527745	-3.688927	0.447350
O	-2.054917	-5.481075	-1.644483
O	2.232592	-4.479871	1.869424
C	2.565470	-5.356026	2.939466
H	3.248608	-4.790496	3.601405
H	3.094885	-6.268513	2.587892
H	1.664539	-5.658187	3.516052
C	-2.524564	-4.546999	-2.608813
H	-3.211568	-5.107564	-3.270661
H	-1.692342	-4.131473	-3.216646
H	-3.090211	-3.712085	-2.141184
C	0.823402	-2.314326	0.690319
S	-1.194935	-2.295487	-0.985511
C	-0.000000	-1.435180	-0.000000
H	1.630024	-1.993211	1.361286
H	0.171719	-9.615985	0.203444
C	0.000000	0.000000	0.000000
S	0.382139	0.814215	1.510732
C	1.046923	2.242395	0.727629
C	0.383804	0.823142	-1.064665
C	0.969360	2.082453	-0.678287
C	0.357247	0.762277	-2.486150
C	0.891671	1.908660	-3.106916
S	1.415865	3.040689	-1.965735
C	1.003453	2.137318	-4.559972
O	0.611644	1.290019	-5.350277
O	1.548687	3.298916	-5.004375
F	-0.110054	-0.249117	-3.246290
C	1.709479	3.619721	-6.334976
H	2.177001	4.620902	-6.370268
H	0.737443	3.643380	-6.875609
H	2.359363	2.886384	-6.861878
H	1.435800	3.076190	1.321510
$end

$rem
JOBTYPE		SP
EXCHANGE	HF
CORRELATION	pRIMP2
BASIS		cc-pvtz
METHOD		rimp2
AUX_BASIS	rimp2-cc-pvtz
SOLVENT_METHOD	PCM
PURECART	11111
SYMMETRY	false
MEM_TOTAL	110000
SCF_CONVERGENCE = 6
THRESH=10
GUI = 2
$end

$solvent
dielectric 4.90
$end
--------------------------------------------------------------

             Standard Nuclear Orientation (Angstroms)
    I     Atom           X                Y                Z
 ----------------------------------------------------------------
    1      C       0.1743790000    -8.5197410000     0.2088860000
    2      C      -0.6500520000    -7.6359670000    -0.4721510000
    3      S       1.3770580000    -7.6517400000     1.1937170000
    4      C      -0.3531050000    -6.2618940000    -0.2251250000
    5      H      -1.4589610000    -7.9547380000    -1.1415940000
    6      C       0.7405830000    -6.0799850000     0.6928110000
    7      C       1.1955460000    -4.7983820000     1.0397730000
    8      C      -1.0232670000    -5.1535420000    -0.8176340000
    9      C      -0.5652620000    -3.8696260000    -0.4737540000
   10      C       0.5277450000    -3.6889270000     0.4473500000
   11      O      -2.0549170000    -5.4810750000    -1.6444830000
   12      O       2.2325920000    -4.4798710000     1.8694240000
   13      C       2.5654700000    -5.3560260000     2.9394660000
   14      H       3.2486080000    -4.7904960000     3.6014050000
   15      H       3.0948850000    -6.2685130000     2.5878920000
   16      H       1.6645390000    -5.6581870000     3.5160520000
   17      C      -2.5245640000    -4.5469990000    -2.6088130000
   18      H      -3.2115680000    -5.1075640000    -3.2706610000
   19      H      -1.6923420000    -4.1314730000    -3.2166460000
   20      H      -3.0902110000    -3.7120850000    -2.1411840000
   21      C       0.8234020000    -2.3143260000     0.6903190000
   22      S      -1.1949350000    -2.2954870000    -0.9855110000
   23      C       0.0000000000    -1.4351800000     0.0000000000
   24      H       1.6300240000    -1.9932110000     1.3612860000
   25      H       0.1717190000    -9.6159850000     0.2034440000
   26      C       0.0000000000     0.0000000000     0.0000000000
   27      S       0.3821390000     0.8142150000     1.5107320000
   28      C       1.0469230000     2.2423950000     0.7276290000
   29      C       0.3838040000     0.8231420000    -1.0646650000
   30      C       0.9693600000     2.0824530000    -0.6782870000
   31      C       0.3572470000     0.7622770000    -2.4861500000
   32      C       0.8916710000     1.9086600000    -3.1069160000
   33      S       1.4158650000     3.0406890000    -1.9657350000
   34      C       1.0034530000     2.1373180000    -4.5599720000
   35      O       0.6116440000     1.2900190000    -5.3502770000
   36      O       1.5486870000     3.2989160000    -5.0043750000
   37      F      -0.1100540000    -0.2491170000    -3.2462900000
   38      C       1.7094790000     3.6197210000    -6.3349760000
   39      H       2.1770010000     4.6209020000    -6.3702680000
   40      H       0.7374430000     3.6433800000    -6.8756090000
   41      H       2.3593630000     2.8863840000    -6.8618780000
   42      H       1.4358000000     3.0761900000     1.3215100000
 ----------------------------------------------------------------

   10   -2754.2860149030      8.63e-07  Convergence criterion met
 Total energy in the final basis set =    -2754.2860149030
        RIMP2         total energy =     -2759.3436081829 a.u.

                    Orbital Energies (a.u.)
 --------------------------------------------------------------

 Alpha MOs
 -- Occupied --
-92.0168 -91.9963 -91.9867 -91.9859 -26.3337 -20.6124 -20.5914 -20.5912
-20.5508 -11.4110 -11.3770 -11.3183 -11.3172 -11.3060 -11.2990 -11.2984
-11.2971 -11.2959 -11.2887 -11.2861 -11.2857 -11.2849 -11.2848 -11.2834
-11.2792 -11.2604 -11.2582 -11.2561 -11.2495  -9.0150  -9.0002  -8.9873
 -8.9858  -6.6957  -6.6951  -6.6947  -6.6815  -6.6808  -6.6795  -6.6682
 -6.6675  -6.6668  -6.6666  -6.6662  -6.6653  -1.6471  -1.4722  -1.4156
 -1.4139  -1.3677  -1.2348  -1.1953  -1.1684  -1.1423  -1.0839  -1.0513
 -1.0482  -1.0287  -1.0013  -0.9929  -0.9721  -0.9603  -0.9497  -0.9386
 -0.8948  -0.8702  -0.8494  -0.8074  -0.7912  -0.7873  -0.7750  -0.7657
 -0.7573  -0.7318  -0.7184  -0.7153  -0.7003  -0.6889  -0.6826  -0.6788
 -0.6722  -0.6608  -0.6582  -0.6522  -0.6295  -0.6195  -0.6160  -0.6070
 -0.6019  -0.5966  -0.5872  -0.5730  -0.5697  -0.5669  -0.5551  -0.5525
 -0.5289  -0.5275  -0.5223  -0.5164  -0.5141  -0.5082  -0.5018  -0.4935
 -0.4886  -0.4852  -0.4766  -0.4657  -0.4618  -0.4616  -0.4592  -0.4157
 -0.3965  -0.3857  -0.3576  -0.3491  -0.3197  -0.2871  -0.2532

          Ground-State Mulliken Net Atomic Charges

     Atom                 Charge (a.u.)
  ----------------------------------------
      1 C                    -0.189344
      2 C                    -0.253981
      3 S                    -0.023677
      4 C                    -0.015521
      5 H                     0.196448
      6 C                    -0.029517
      7 C                     0.241332
      8 C                     0.244029
      9 C                    -0.046683
     10 C                    -0.023934
     11 O                    -0.333834
     12 O                    -0.340419
     13 C                    -0.085581
     14 H                     0.122231
     15 H                     0.091084
     16 H                     0.093831
     17 C                    -0.086989
     18 H                     0.124455
     19 H                     0.096096
     20 H                     0.089391
     21 C                    -0.238334
     22 S                    -0.002901
     23 C                    -0.021202
     24 H                     0.200223
     25 H                     0.206267
     26 C                    -0.035103
     27 S                     0.108318
     28 C                    -0.220108
     29 C                    -0.072684
     30 C                    -0.013062
     31 C                     0.366939
     32 C                    -0.142026
     33 S                     0.044821
     34 C                     0.457574
     35 O                    -0.448736
     36 O                    -0.297841
     37 F                    -0.208424
     38 C                    -0.054821
     39 H                     0.116674
     40 H                     0.084563
     41 H                     0.084665
     42 H                     0.215780
  ----------------------------------------
  Sum of atomic charges =     0.000000

                    Cartesian Multipole Moments
 -----------------------------------------------------------------
    Charge (ESU x 10^10)
                -0.0000
    Dipole Moment (Debye)
         X       1.3685      Y       1.8728      Z       3.1905
       Tot       3.9445
    Quadrupole Moments (Debye-Ang)
        XX    -189.9993     XY       7.2114     YY    -163.1711
        XZ       7.3800     YZ     -10.8108     ZZ    -189.7570

 Total job time:  295.41s(wall), 9188.39s(cpu)
        *  Thank you very much for using Q-Chem.  Have a nice day.  *
