 Q-Chem 5.4, Q-Chem, Inc., Pleasanton, CA (2021)
 Q-Chem 5.4.0 for Intel X86 EM64T Linux

User input:
--------------------------------------------------------------
$molecule
0 1
C	-0.136647	-8.519741	0.235306
C	0.221346	-7.635967	-0.772334
S	-0.650746	-7.651740	1.702286
C	0.090779	-6.261894	-0.408807
H	0.573754	-7.954738	-1.761423
C	-0.397735	-6.079985	0.932876
C	-0.568166	-4.798382	1.479069
C	0.418347	-5.153542	-1.241204
C	0.251852	-3.869626	-0.693206
C	-0.239872	-3.688927	0.648921
O	0.842486	-5.481075	-2.493437
O	-0.993092	-4.479871	2.737331
C	-1.884752	-5.356026	3.416110
H	-2.273124	-4.790496	4.284447
H	-1.373310	-6.268513	3.793352
H	-2.734702	-5.658187	2.766716
C	1.588030	-4.546999	-3.264581
H	1.974995	-5.107564	-4.136519
H	2.443843	-4.131473	-2.690439
H	0.955140	-3.712085	-3.636177
C	-0.367068	-2.314326	1.009848
S	0.517386	-2.295487	-1.459936
C	0.000000	-1.435180	0.000000
H	-0.721689	-1.993211	1.997308
H	-0.132444	-9.615985	0.230945
C	0.000000	0.000000	0.000000
S	0.002233	0.899428	1.510732
C	0.001157	2.474749	0.727629
C	-0.000030	0.908223	-1.064665
C	-0.001545	2.297013	-0.678287
C	0.001624	0.841837	-2.486150
C	0.001494	2.106670	-3.106916
S	-0.001841	3.354171	-1.965735
C	0.006168	2.361146	-4.559972
O	0.009152	1.427646	-5.350277
O	0.009405	3.644337	-5.004375
F	0.005539	-0.272288	-3.246290
C	0.019554	4.003038	-6.334976
H	0.020155	5.108000	-6.370268
H	-0.871409	3.613681	-6.875609
H	0.918470	3.613062	-6.861878
H	0.001222	3.394771	1.321510
$end

$rem
JOBTYPE		SP
EXCHANGE	HF
CORRELATION	pRIMP2
BASIS		cc-pvtz
METHOD		rimp2
AUX_BASIS	rimp2-cc-pvtz
SOLVENT_METHOD	PCM
PURECART	11111
SYMMETRY	false
MEM_TOTAL	110000
SCF_CONVERGENCE = 6
THRESH=10
GUI = 2
$end

$solvent
dielectric 4.90
$end
--------------------------------------------------------------

             Standard Nuclear Orientation (Angstroms)
    I     Atom           X                Y                Z
 ----------------------------------------------------------------
    1      C      -0.1366470000    -8.5197410000     0.2353060000
    2      C       0.2213460000    -7.6359670000    -0.7723340000
    3      S      -0.6507460000    -7.6517400000     1.7022860000
    4      C       0.0907790000    -6.2618940000    -0.4088070000
    5      H       0.5737540000    -7.9547380000    -1.7614230000
    6      C      -0.3977350000    -6.0799850000     0.9328760000
    7      C      -0.5681660000    -4.7983820000     1.4790690000
    8      C       0.4183470000    -5.1535420000    -1.2412040000
    9      C       0.2518520000    -3.8696260000    -0.6932060000
   10      C      -0.2398720000    -3.6889270000     0.6489210000
   11      O       0.8424860000    -5.4810750000    -2.4934370000
   12      O      -0.9930920000    -4.4798710000     2.7373310000
   13      C      -1.8847520000    -5.3560260000     3.4161100000
   14      H      -2.2731240000    -4.7904960000     4.2844470000
   15      H      -1.3733100000    -6.2685130000     3.7933520000
   16      H      -2.7347020000    -5.6581870000     2.7667160000
   17      C       1.5880300000    -4.5469990000    -3.2645810000
   18      H       1.9749950000    -5.1075640000    -4.1365190000
   19      H       2.4438430000    -4.1314730000    -2.6904390000
   20      H       0.9551400000    -3.7120850000    -3.6361770000
   21      C      -0.3670680000    -2.3143260000     1.0098480000
   22      S       0.5173860000    -2.2954870000    -1.4599360000
   23      C       0.0000000000    -1.4351800000     0.0000000000
   24      H      -0.7216890000    -1.9932110000     1.9973080000
   25      H      -0.1324440000    -9.6159850000     0.2309450000
   26      C       0.0000000000     0.0000000000     0.0000000000
   27      S       0.0022330000     0.8994280000     1.5107320000
   28      C       0.0011570000     2.4747490000     0.7276290000
   29      C      -0.0000300000     0.9082230000    -1.0646650000
   30      C      -0.0015450000     2.2970130000    -0.6782870000
   31      C       0.0016240000     0.8418370000    -2.4861500000
   32      C       0.0014940000     2.1066700000    -3.1069160000
   33      S      -0.0018410000     3.3541710000    -1.9657350000
   34      C       0.0061680000     2.3611460000    -4.5599720000
   35      O       0.0091520000     1.4276460000    -5.3502770000
   36      O       0.0094050000     3.6443370000    -5.0043750000
   37      F       0.0055390000    -0.2722880000    -3.2462900000
   38      C       0.0195540000     4.0030380000    -6.3349760000
   39      H       0.0201550000     5.1080000000    -6.3702680000
   40      H      -0.8714090000     3.6136810000    -6.8756090000
   41      H       0.9184700000     3.6130620000    -6.8618780000
   42      H       0.0012220000     3.3947710000     1.3215100000
 ----------------------------------------------------------------

   10   -2754.2943115581      8.32e-07  Convergence criterion met
 Total energy in the final basis set =    -2754.2943115581
        RIMP2         total energy =     -2759.3500771482 a.u.

                    Orbital Energies (a.u.)
 --------------------------------------------------------------

 Alpha MOs
 -- Occupied --
-92.0150 -91.9947 -91.9866 -91.9865 -26.3353 -20.6119 -20.5922 -20.5915
-20.5496 -11.4101 -11.3786 -11.3187 -11.3187 -11.3144 -11.2972 -11.2972
-11.2966 -11.2924 -11.2884 -11.2866 -11.2858 -11.2856 -11.2841 -11.2820
-11.2802 -11.2618 -11.2596 -11.2595 -11.2501  -9.0134  -8.9987  -8.9874
 -8.9865  -6.6942  -6.6936  -6.6931  -6.6800  -6.6793  -6.6780  -6.6682
 -6.6675  -6.6675  -6.6668  -6.6664  -6.6660  -1.6506  -1.4716  -1.4159
 -1.4147  -1.3669  -1.2340  -1.1965  -1.1691  -1.1420  -1.0848  -1.0524
 -1.0480  -1.0285  -1.0025  -0.9939  -0.9723  -0.9609  -0.9501  -0.9382
 -0.8961  -0.8694  -0.8523  -0.8096  -0.7949  -0.7871  -0.7752  -0.7636
 -0.7584  -0.7328  -0.7202  -0.7179  -0.7007  -0.6886  -0.6842  -0.6785
 -0.6731  -0.6620  -0.6587  -0.6526  -0.6291  -0.6199  -0.6165  -0.6064
 -0.6015  -0.5949  -0.5885  -0.5716  -0.5706  -0.5645  -0.5591  -0.5527
 -0.5303  -0.5264  -0.5253  -0.5173  -0.5152  -0.5085  -0.5017  -0.4957
 -0.4871  -0.4832  -0.4790  -0.4655  -0.4613  -0.4609  -0.4591  -0.4235
 -0.3955  -0.3869  -0.3601  -0.3501  -0.3246  -0.2837  -0.2481

          Ground-State Mulliken Net Atomic Charges

     Atom                 Charge (a.u.)
  ----------------------------------------
      1 C                    -0.187159
      2 C                    -0.254425
      3 S                    -0.022673
      4 C                    -0.014804
      5 H                     0.196716
      6 C                    -0.030395
      7 C                     0.247261
      8 C                     0.242357
      9 C                    -0.041997
     10 C                    -0.024346
     11 O                    -0.333486
     12 O                    -0.340099
     13 C                    -0.085794
     14 H                     0.122455
     15 H                     0.091299
     16 H                     0.094470
     17 C                    -0.089279
     18 H                     0.125555
     19 H                     0.094128
     20 H                     0.092284
     21 C                    -0.250347
     22 S                    -0.016328
     23 C                     0.019393
     24 H                     0.189230
     25 H                     0.206669
     26 C                     0.004996
     27 S                     0.096141
     28 C                    -0.239612
     29 C                    -0.099769
     30 C                    -0.018312
     31 C                     0.382387
     32 C                    -0.140178
     33 S                     0.035242
     34 C                     0.461094
     35 O                    -0.451801
     36 O                    -0.297929
     37 F                    -0.209392
     38 C                    -0.055067
     39 H                     0.116679
     40 H                     0.084560
     41 H                     0.084265
     42 H                     0.216009
  ----------------------------------------
  Sum of atomic charges =     0.000000

                    Cartesian Multipole Moments
 -----------------------------------------------------------------
    Charge (ESU x 10^10)
                -0.0000
    Dipole Moment (Debye)
         X      -0.2067      Y       1.4667      Z       2.9172
       Tot       3.2717
    Quadrupole Moments (Debye-Ang)
        XX    -194.3574     XY       1.5871     YY    -158.9295
        XZ     -11.7127     YZ     -10.0922     ZZ    -188.6292

 Total job time:  291.16s(wall), 9402.24s(cpu)
        *  Thank you very much for using Q-Chem.  Have a nice day.  *
