 Q-Chem 5.4, Q-Chem, Inc., Pleasanton, CA (2021)
 Q-Chem 5.4.0 for Intel X86 EM64T Linux

User input:
--------------------------------------------------------------
$molecule
0 1
C	0.174379	-8.519741	0.208886
C	-0.650052	-7.635967	-0.472151
S	1.377058	-7.651740	1.193717
C	-0.353105	-6.261894	-0.225125
H	-1.458961	-7.954738	-1.141594
C	0.740583	-6.079985	0.692811
C	1.195546	-4.798382	1.039773
C	-1.023267	-5.153542	-0.817634
C	-0.565262	-3.869626	-0.473754
C	0.527745	-3.688927	0.447350
O	-2.054917	-5.481075	-1.644483
O	2.232592	-4.479871	1.869424
C	2.565470	-5.356026	2.939466
H	3.248608	-4.790496	3.601405
H	3.094885	-6.268513	2.587892
H	1.664539	-5.658187	3.516052
C	-2.524564	-4.546999	-2.608813
H	-3.211568	-5.107564	-3.270661
H	-1.692342	-4.131473	-3.216646
H	-3.090211	-3.712085	-2.141184
C	0.823402	-2.314326	0.690319
S	-1.194935	-2.295487	-0.985511
C	-0.000000	-1.435180	-0.000000
H	1.630024	-1.993211	1.361286
H	0.171719	-9.615985	0.203444
C	0.000000	0.000000	0.000000
S	0.579852	0.687566	1.510732
C	1.591625	1.895024	0.727629
C	0.583771	0.695758	-1.064665
C	1.475308	1.760606	-0.678287
C	0.542366	0.643841	-2.486150
C	1.355286	1.612843	-3.106916
S	2.154609	2.570627	-1.965735
C	1.522440	1.804778	-4.559972
O	0.924684	1.087757	-5.350277
O	2.349739	2.785679	-5.004375
F	-0.170780	-0.212144	-3.246290
C	2.588082	3.053936	-6.334976
H	3.298799	3.899999	-6.370268
H	1.655291	3.328371	-6.875609
H	3.026021	2.177385	-6.861878
H	2.183053	2.599759	1.321510
$end

$rem
JOBTYPE		SP
EXCHANGE	HF
CORRELATION	pRIMP2
BASIS		cc-pvtz
METHOD		rimp2
AUX_BASIS	rimp2-cc-pvtz
SOLVENT_METHOD	PCM
PURECART	11111
SYMMETRY	false
MEM_TOTAL	110000
SCF_CONVERGENCE = 6
THRESH=10
GUI = 2
$end

$solvent
dielectric 4.90
$end
--------------------------------------------------------------

             Standard Nuclear Orientation (Angstroms)
    I     Atom           X                Y                Z
 ----------------------------------------------------------------
    1      C       0.1743790000    -8.5197410000     0.2088860000
    2      C      -0.6500520000    -7.6359670000    -0.4721510000
    3      S       1.3770580000    -7.6517400000     1.1937170000
    4      C      -0.3531050000    -6.2618940000    -0.2251250000
    5      H      -1.4589610000    -7.9547380000    -1.1415940000
    6      C       0.7405830000    -6.0799850000     0.6928110000
    7      C       1.1955460000    -4.7983820000     1.0397730000
    8      C      -1.0232670000    -5.1535420000    -0.8176340000
    9      C      -0.5652620000    -3.8696260000    -0.4737540000
   10      C       0.5277450000    -3.6889270000     0.4473500000
   11      O      -2.0549170000    -5.4810750000    -1.6444830000
   12      O       2.2325920000    -4.4798710000     1.8694240000
   13      C       2.5654700000    -5.3560260000     2.9394660000
   14      H       3.2486080000    -4.7904960000     3.6014050000
   15      H       3.0948850000    -6.2685130000     2.5878920000
   16      H       1.6645390000    -5.6581870000     3.5160520000
   17      C      -2.5245640000    -4.5469990000    -2.6088130000
   18      H      -3.2115680000    -5.1075640000    -3.2706610000
   19      H      -1.6923420000    -4.1314730000    -3.2166460000
   20      H      -3.0902110000    -3.7120850000    -2.1411840000
   21      C       0.8234020000    -2.3143260000     0.6903190000
   22      S      -1.1949350000    -2.2954870000    -0.9855110000
   23      C       0.0000000000    -1.4351800000     0.0000000000
   24      H       1.6300240000    -1.9932110000     1.3612860000
   25      H       0.1717190000    -9.6159850000     0.2034440000
   26      C       0.0000000000     0.0000000000     0.0000000000
   27      S       0.5798520000     0.6875660000     1.5107320000
   28      C       1.5916250000     1.8950240000     0.7276290000
   29      C       0.5837710000     0.6957580000    -1.0646650000
   30      C       1.4753080000     1.7606060000    -0.6782870000
   31      C       0.5423660000     0.6438410000    -2.4861500000
   32      C       1.3552860000     1.6128430000    -3.1069160000
   33      S       2.1546090000     2.5706270000    -1.9657350000
   34      C       1.5224400000     1.8047780000    -4.5599720000
   35      O       0.9246840000     1.0877570000    -5.3502770000
   36      O       2.3497390000     2.7856790000    -5.0043750000
   37      F      -0.1707800000    -0.2121440000    -3.2462900000
   38      C       2.5880820000     3.0539360000    -6.3349760000
   39      H       3.2987990000     3.8999990000    -6.3702680000
   40      H       1.6552910000     3.3283710000    -6.8756090000
   41      H       3.0260210000     2.1773850000    -6.8618780000
   42      H       2.1830530000     2.5997590000     1.3215100000
 ----------------------------------------------------------------

   11   -2754.2685967520      5.13e-07  Convergence criterion met
 Total energy in the final basis set =    -2754.2685967520
        RIMP2         total energy =     -2759.3320435746 a.u.

                    Orbital Energies (a.u.)
 --------------------------------------------------------------

 Alpha MOs
 -- Occupied --
-92.0168 -91.9996 -91.9847 -91.9839 -26.3337 -20.6137 -20.5906 -20.5898
-20.5530 -11.4129 -11.3767 -11.3171 -11.3146 -11.3076 -11.3035 -11.2988
-11.2962 -11.2953 -11.2893 -11.2892 -11.2854 -11.2851 -11.2822 -11.2822
-11.2775 -11.2586 -11.2559 -11.2502 -11.2486  -9.0152  -9.0034  -8.9846
 -8.9846  -6.6958  -6.6951  -6.6948  -6.6846  -6.6840  -6.6827  -6.6656
 -6.6655  -6.6650  -6.6648  -6.6642  -6.6639  -1.6472  -1.4737  -1.4147
 -1.4126  -1.3693  -1.2377  -1.1937  -1.1684  -1.1431  -1.0833  -1.0501
 -1.0490  -1.0304  -0.9996  -0.9922  -0.9734  -0.9589  -0.9488  -0.9387
 -0.8934  -0.8723  -0.8466  -0.8076  -0.7920  -0.7864  -0.7757  -0.7654
 -0.7555  -0.7305  -0.7185  -0.7157  -0.6995  -0.6901  -0.6811  -0.6799
 -0.6740  -0.6608  -0.6573  -0.6513  -0.6284  -0.6185  -0.6150  -0.6086
 -0.6030  -0.5999  -0.5879  -0.5717  -0.5684  -0.5659  -0.5538  -0.5521
 -0.5289  -0.5264  -0.5212  -0.5152  -0.5131  -0.5084  -0.5017  -0.4928
 -0.4879  -0.4867  -0.4736  -0.4642  -0.4630  -0.4624  -0.4567  -0.4166
 -0.3947  -0.3841  -0.3576  -0.3475  -0.3188  -0.2886  -0.2519

          Ground-State Mulliken Net Atomic Charges

     Atom                 Charge (a.u.)
  ----------------------------------------
      1 C                    -0.192598
      2 C                    -0.253815
      3 S                    -0.026042
      4 C                    -0.017724
      5 H                     0.196043
      6 C                    -0.028293
      7 C                     0.237337
      8 C                     0.243516
      9 C                    -0.044696
     10 C                    -0.016426
     11 O                    -0.333911
     12 O                    -0.341209
     13 C                    -0.085588
     14 H                     0.121618
     15 H                     0.090823
     16 H                     0.093429
     17 C                    -0.086965
     18 H                     0.124255
     19 H                     0.095685
     20 H                     0.089445
     21 C                    -0.264424
     22 S                    -0.012513
     23 C                    -0.009138
     24 H                     0.197749
     25 H                     0.205638
     26 C                    -0.066258
     27 S                     0.112199
     28 C                    -0.194802
     29 C                    -0.050422
     30 C                    -0.018033
     31 C                     0.355548
     32 C                    -0.132327
     33 S                     0.055171
     34 C                     0.457128
     35 O                    -0.445159
     36 O                    -0.297498
     37 F                    -0.207627
     38 C                    -0.054679
     39 H                     0.116974
     40 H                     0.084970
     41 H                     0.085018
     42 H                     0.217600
  ----------------------------------------
  Sum of atomic charges =     0.000000

                    Cartesian Multipole Moments
 -----------------------------------------------------------------
    Charge (ESU x 10^10)
                 0.0000
    Dipole Moment (Debye)
         X       2.6083      Y       2.4386      Z       2.9341
       Tot       4.6216
    Quadrupole Moments (Debye-Ang)
        XX    -185.7207     XY      10.0611     YY    -169.9030
        XZ       4.3703     YZ      -9.3676     ZZ    -188.6467

 Total job time:  306.77s(wall), 10142.72s(cpu)
        *  Thank you very much for using Q-Chem.  Have a nice day.  *
