 Q-Chem 5.4, Q-Chem, Inc., Pleasanton, CA (2021)
 Q-Chem 5.4.0 for Intel X86 EM64T Linux

User input:
--------------------------------------------------------------
$molecule
0 1
C	-0.267851	-8.519741	-0.047927
C	0.801461	-7.635967	-0.056157
S	-1.822194	-7.651740	-0.029285
C	0.415201	-6.261894	-0.054516
H	1.851431	-7.954738	-0.063290
C	-1.012650	-6.079985	-0.054687
C	-1.584194	-4.798382	-0.028030
C	1.309433	-5.153542	-0.031399
C	0.737539	-3.869626	-0.000427
C	-0.691828	-3.688927	-0.003462
O	2.631211	-5.481075	-0.061128
O	-2.911907	-4.479871	0.003021
C	-3.854716	-5.356026	-0.602710
H	-4.803517	-4.790496	-0.670671
H	-4.034285	-6.268513	0.006913
H	-3.535185	-5.658187	-1.623507
C	3.610841	-4.546999	0.375708
H	4.562544	-5.107564	0.441115
H	3.364029	-4.131473	1.376277
H	3.743566	-3.712085	-0.346107
C	-1.074491	-2.314326	0.000458
S	1.548848	-2.295487	-0.013144
C	-0.000000	-1.435180	-0.000000
H	-2.123688	-1.993211	0.004953
H	-0.262315	-9.615985	-0.045468
C	0.000000	0.000000	0.000000
S	0.451648	0.777811	1.510732
C	1.238377	2.142617	0.727629
C	0.454085	0.786559	-1.064665
C	1.147169	1.990043	-0.678287
C	0.422325	0.728240	-2.486150
C	1.054629	1.823683	-3.106916
S	1.675491	2.905718	-1.965735
C	1.185914	2.041729	-4.559972
O	0.721749	1.231802	-5.350277
O	1.830313	3.151386	-5.004375
F	-0.131347	-0.238577	-3.246290
C	2.018453	3.456956	-6.334976
H	2.571455	4.413580	-6.370268
H	1.052178	3.565244	-6.875609
H	2.601950	2.669768	-6.861878
H	1.698444	2.939346	1.321510
$end

$rem
JOBTYPE		SP
EXCHANGE	HF
CORRELATION	pRIMP2
BASIS		cc-pvtz
METHOD		rimp2
AUX_BASIS	rimp2-cc-pvtz
SOLVENT_METHOD	PCM
PURECART	11111
SYMMETRY	false
MEM_TOTAL	110000
SCF_CONVERGENCE = 6
THRESH=10
GUI = 2
$end

$solvent
dielectric 4.90
$end
--------------------------------------------------------------

             Standard Nuclear Orientation (Angstroms)
    I     Atom           X                Y                Z
 ----------------------------------------------------------------
    1      C      -0.2678510000    -8.5197410000    -0.0479270000
    2      C       0.8014610000    -7.6359670000    -0.0561570000
    3      S      -1.8221940000    -7.6517400000    -0.0292850000
    4      C       0.4152010000    -6.2618940000    -0.0545160000
    5      H       1.8514310000    -7.9547380000    -0.0632900000
    6      C      -1.0126500000    -6.0799850000    -0.0546870000
    7      C      -1.5841940000    -4.7983820000    -0.0280300000
    8      C       1.3094330000    -5.1535420000    -0.0313990000
    9      C       0.7375390000    -3.8696260000    -0.0004270000
   10      C      -0.6918280000    -3.6889270000    -0.0034620000
   11      O       2.6312110000    -5.4810750000    -0.0611280000
   12      O      -2.9119070000    -4.4798710000     0.0030210000
   13      C      -3.8547160000    -5.3560260000    -0.6027100000
   14      H      -4.8035170000    -4.7904960000    -0.6706710000
   15      H      -4.0342850000    -6.2685130000     0.0069130000
   16      H      -3.5351850000    -5.6581870000    -1.6235070000
   17      C       3.6108410000    -4.5469990000     0.3757080000
   18      H       4.5625440000    -5.1075640000     0.4411150000
   19      H       3.3640290000    -4.1314730000     1.3762770000
   20      H       3.7435660000    -3.7120850000    -0.3461070000
   21      C      -1.0744910000    -2.3143260000     0.0004580000
   22      S       1.5488480000    -2.2954870000    -0.0131440000
   23      C       0.0000000000    -1.4351800000     0.0000000000
   24      H      -2.1236880000    -1.9932110000     0.0049530000
   25      H      -0.2623150000    -9.6159850000    -0.0454680000
   26      C       0.0000000000     0.0000000000     0.0000000000
   27      S       0.4516480000     0.7778110000     1.5107320000
   28      C       1.2383770000     2.1426170000     0.7276290000
   29      C       0.4540850000     0.7865590000    -1.0646650000
   30      C       1.1471690000     1.9900430000    -0.6782870000
   31      C       0.4223250000     0.7282400000    -2.4861500000
   32      C       1.0546290000     1.8236830000    -3.1069160000
   33      S       1.6754910000     2.9057180000    -1.9657350000
   34      C       1.1859140000     2.0417290000    -4.5599720000
   35      O       0.7217490000     1.2318020000    -5.3502770000
   36      O       1.8303130000     3.1513860000    -5.0043750000
   37      F      -0.1313470000    -0.2385770000    -3.2462900000
   38      C       2.0184530000     3.4569560000    -6.3349760000
   39      H       2.5714550000     4.4135800000    -6.3702680000
   40      H       1.0521780000     3.5652440000    -6.8756090000
   41      H       2.6019500000     2.6697680000    -6.8618780000
   42      H       1.6984440000     2.9393460000     1.3215100000
 ----------------------------------------------------------------

   10   -2754.2799665485      8.79e-07  Convergence criterion met
 Total energy in the final basis set =    -2754.2799665485
        RIMP2         total energy =     -2759.3375414271 a.u.

                    Orbital Energies (a.u.)
 --------------------------------------------------------------

 Alpha MOs
 -- Occupied --
-92.0156 -91.9969 -91.9879 -91.9860 -26.3337 -20.6129 -20.5920 -20.5910
-20.5517 -11.4117 -11.3766 -11.3185 -11.3175 -11.3012 -11.3008 -11.2996
-11.2966 -11.2907 -11.2888 -11.2869 -11.2856 -11.2854 -11.2852 -11.2833
-11.2795 -11.2591 -11.2587 -11.2552 -11.2496  -9.0139  -9.0008  -8.9884
 -8.9859  -6.6946  -6.6939  -6.6935  -6.6821  -6.6814  -6.6801  -6.6693
 -6.6686  -6.6677  -6.6669  -6.6663  -6.6654  -1.6466  -1.4728  -1.4161
 -1.4137  -1.3683  -1.2351  -1.1949  -1.1680  -1.1424  -1.0832  -1.0513
 -1.0481  -1.0285  -1.0013  -0.9923  -0.9720  -0.9608  -0.9501  -0.9380
 -0.8952  -0.8704  -0.8485  -0.8044  -0.7911  -0.7875  -0.7737  -0.7684
 -0.7570  -0.7320  -0.7179  -0.7150  -0.7006  -0.6896  -0.6821  -0.6791
 -0.6722  -0.6603  -0.6587  -0.6522  -0.6300  -0.6196  -0.6169  -0.6074
 -0.6029  -0.5966  -0.5829  -0.5783  -0.5663  -0.5640  -0.5555  -0.5475
 -0.5360  -0.5268  -0.5234  -0.5154  -0.5137  -0.5081  -0.5013  -0.4934
 -0.4905  -0.4850  -0.4721  -0.4686  -0.4625  -0.4618  -0.4609  -0.4058
 -0.3992  -0.3864  -0.3559  -0.3499  -0.3115  -0.2918  -0.2590

          Ground-State Mulliken Net Atomic Charges

     Atom                 Charge (a.u.)
  ----------------------------------------
      1 C                    -0.188126
      2 C                    -0.255020
      3 S                    -0.022683
      4 C                    -0.013103
      5 H                     0.196348
      6 C                    -0.028689
      7 C                     0.243493
      8 C                     0.240545
      9 C                    -0.041900
     10 C                    -0.024220
     11 O                    -0.333273
     12 O                    -0.339635
     13 C                    -0.085530
     14 H                     0.122524
     15 H                     0.090566
     16 H                     0.094475
     17 C                    -0.086596
     18 H                     0.124971
     19 H                     0.094050
     20 H                     0.090001
     21 C                    -0.212847
     22 S                    -0.003328
     23 C                    -0.079602
     24 H                     0.196848
     25 H                     0.206371
     26 C                    -0.000255
     27 S                     0.124872
     28 C                    -0.219574
     29 C                    -0.117952
     30 C                     0.003833
     31 C                     0.372921
     32 C                    -0.150313
     33 S                     0.047799
     34 C                     0.458985
     35 O                    -0.446733
     36 O                    -0.297601
     37 F                    -0.209140
     38 C                    -0.054886
     39 H                     0.116764
     40 H                     0.084852
     41 H                     0.084887
     42 H                     0.215905
  ----------------------------------------
  Sum of atomic charges =     0.000000

                    Cartesian Multipole Moments
 -----------------------------------------------------------------
    Charge (ESU x 10^10)
                -0.0000
    Dipole Moment (Debye)
         X       2.1482      Y       1.7701      Z       2.8620
       Tot       3.9924
    Quadrupole Moments (Debye-Ang)
        XX    -173.6998     XY       7.7400     YY    -163.0549
        XZ      -0.0403     YZ      -8.1150     ZZ    -204.1878

 Total job time:  461.81s(wall), 10705.30s(cpu)
        *  Thank you very much for using Q-Chem.  Have a nice day.  *
