 Q-Chem 5.4, Q-Chem, Inc., Pleasanton, CA (2021)
 Q-Chem 5.4.0 for Intel X86 EM64T Linux

User input:
--------------------------------------------------------------
$molecule
0 1
C	0.135457	-8.519741	0.235993
C	-0.558188	-7.635967	-0.577858
S	1.148850	-7.651740	1.414705
C	-0.308648	-6.261894	-0.283020
H	-1.238560	-7.954738	-1.377597
C	0.609026	-6.079985	0.810887
C	0.996828	-4.798382	1.231581
C	-0.865740	-5.153542	-0.982901
C	-0.474408	-3.869626	-0.564713
C	0.442046	-3.688927	0.532196
O	-1.738137	-5.481075	-1.976332
O	1.874052	-4.479871	2.228709
C	2.016062	-5.356026	3.340298
H	2.573877	-4.790496	4.110807
H	2.598484	-6.268513	3.085998
H	1.028695	-5.658187	3.751679
C	-2.033195	-4.546999	-3.007565
H	-2.594833	-5.107564	-3.778655
H	-1.108067	-4.131473	-3.461650
H	-2.671451	-3.712085	-2.645264
C	0.691020	-2.314326	0.822814
S	-1.005649	-2.295487	-1.178037
C	-0.000000	-1.435180	-0.000000
H	1.368875	-1.993211	1.623656
H	0.133782	-9.615985	0.230172
C	0.000000	0.000000	0.000000
S	0.382139	0.814215	1.510732
C	1.046923	2.242395	0.727629
C	0.383804	0.823142	-1.064665
C	0.969360	2.082453	-0.678287
C	0.357247	0.762277	-2.486150
C	0.891671	1.908660	-3.106916
S	1.415865	3.040689	-1.965735
C	1.003453	2.137318	-4.559972
O	0.611644	1.290019	-5.350277
O	1.548687	3.298916	-5.004375
F	-0.110054	-0.249117	-3.246290
C	1.709479	3.619721	-6.334976
H	2.177001	4.620902	-6.370268
H	0.737443	3.643380	-6.875609
H	2.359363	2.886384	-6.861878
H	1.435800	3.076190	1.321510
$end

$rem
JOBTYPE		SP
EXCHANGE	HF
CORRELATION	pRIMP2
BASIS		cc-pvtz
METHOD		rimp2
AUX_BASIS	rimp2-cc-pvtz
SOLVENT_METHOD	PCM
PURECART	11111
SYMMETRY	false
MEM_TOTAL	110000
SCF_CONVERGENCE = 6
THRESH=10
GUI = 2
$end

$solvent
dielectric 4.90
$end
--------------------------------------------------------------

             Standard Nuclear Orientation (Angstroms)
    I     Atom           X                Y                Z
 ----------------------------------------------------------------
    1      C       0.1354570000    -8.5197410000     0.2359930000
    2      C      -0.5581880000    -7.6359670000    -0.5778580000
    3      S       1.1488500000    -7.6517400000     1.4147050000
    4      C      -0.3086480000    -6.2618940000    -0.2830200000
    5      H      -1.2385600000    -7.9547380000    -1.3775970000
    6      C       0.6090260000    -6.0799850000     0.8108870000
    7      C       0.9968280000    -4.7983820000     1.2315810000
    8      C      -0.8657400000    -5.1535420000    -0.9829010000
    9      C      -0.4744080000    -3.8696260000    -0.5647130000
   10      C       0.4420460000    -3.6889270000     0.5321960000
   11      O      -1.7381370000    -5.4810750000    -1.9763320000
   12      O       1.8740520000    -4.4798710000     2.2287090000
   13      C       2.0160620000    -5.3560260000     3.3402980000
   14      H       2.5738770000    -4.7904960000     4.1108070000
   15      H       2.5984840000    -6.2685130000     3.0859980000
   16      H       1.0286950000    -5.6581870000     3.7516790000
   17      C      -2.0331950000    -4.5469990000    -3.0075650000
   18      H      -2.5948330000    -5.1075640000    -3.7786550000
   19      H      -1.1080670000    -4.1314730000    -3.4616500000
   20      H      -2.6714510000    -3.7120850000    -2.6452640000
   21      C       0.6910200000    -2.3143260000     0.8228140000
   22      S      -1.0056490000    -2.2954870000    -1.1780370000
   23      C       0.0000000000    -1.4351800000     0.0000000000
   24      H       1.3688750000    -1.9932110000     1.6236560000
   25      H       0.1337820000    -9.6159850000     0.2301720000
   26      C       0.0000000000     0.0000000000     0.0000000000
   27      S       0.3821390000     0.8142150000     1.5107320000
   28      C       1.0469230000     2.2423950000     0.7276290000
   29      C       0.3838040000     0.8231420000    -1.0646650000
   30      C       0.9693600000     2.0824530000    -0.6782870000
   31      C       0.3572470000     0.7622770000    -2.4861500000
   32      C       0.8916710000     1.9086600000    -3.1069160000
   33      S       1.4158650000     3.0406890000    -1.9657350000
   34      C       1.0034530000     2.1373180000    -4.5599720000
   35      O       0.6116440000     1.2900190000    -5.3502770000
   36      O       1.5486870000     3.2989160000    -5.0043750000
   37      F      -0.1100540000    -0.2491170000    -3.2462900000
   38      C       1.7094790000     3.6197210000    -6.3349760000
   39      H       2.1770010000     4.6209020000    -6.3702680000
   40      H       0.7374430000     3.6433800000    -6.8756090000
   41      H       2.3593630000     2.8863840000    -6.8618780000
   42      H       1.4358000000     3.0761900000     1.3215100000
 ----------------------------------------------------------------

   10   -2754.2857734161      8.34e-07  Convergence criterion met
 Total energy in the final basis set =    -2754.2857734161
        RIMP2         total energy =     -2759.3440367983 a.u.

                    Orbital Energies (a.u.)
 --------------------------------------------------------------

 Alpha MOs
 -- Occupied --
-92.0164 -91.9964 -91.9861 -91.9857 -26.3339 -20.6125 -20.5912 -20.5911
-20.5508 -11.4110 -11.3774 -11.3181 -11.3170 -11.3071 -11.2990 -11.2986
-11.2974 -11.2967 -11.2887 -11.2860 -11.2856 -11.2849 -11.2846 -11.2832
-11.2790 -11.2603 -11.2579 -11.2556 -11.2494  -9.0147  -9.0003  -8.9868
 -8.9857  -6.6954  -6.6948  -6.6943  -6.6816  -6.6809  -6.6796  -6.6677
 -6.6670  -6.6666  -6.6660  -6.6660  -6.6652  -1.6477  -1.4723  -1.4154
 -1.4138  -1.3677  -1.2352  -1.1953  -1.1685  -1.1424  -1.0840  -1.0512
 -1.0483  -1.0290  -1.0012  -0.9930  -0.9724  -0.9601  -0.9495  -0.9385
 -0.8948  -0.8704  -0.8496  -0.8081  -0.7922  -0.7870  -0.7750  -0.7649
 -0.7572  -0.7317  -0.7188  -0.7158  -0.7001  -0.6890  -0.6827  -0.6789
 -0.6727  -0.6611  -0.6581  -0.6520  -0.6290  -0.6193  -0.6159  -0.6071
 -0.6019  -0.5969  -0.5881  -0.5721  -0.5691  -0.5670  -0.5555  -0.5525
 -0.5290  -0.5274  -0.5218  -0.5169  -0.5141  -0.5085  -0.5019  -0.4940
 -0.4875  -0.4849  -0.4772  -0.4654  -0.4619  -0.4616  -0.4587  -0.4189
 -0.3957  -0.3855  -0.3574  -0.3502  -0.3215  -0.2858  -0.2511

          Ground-State Mulliken Net Atomic Charges

     Atom                 Charge (a.u.)
  ----------------------------------------
      1 C                    -0.189651
      2 C                    -0.253998
      3 S                    -0.023861
      4 C                    -0.015304
      5 H                     0.196422
      6 C                    -0.029451
      7 C                     0.240826
      8 C                     0.243451
      9 C                    -0.045880
     10 C                    -0.024913
     11 O                    -0.333857
     12 O                    -0.340538
     13 C                    -0.085605
     14 H                     0.122119
     15 H                     0.091182
     16 H                     0.093784
     17 C                    -0.087330
     18 H                     0.124536
     19 H                     0.095943
     20 H                     0.089476
     21 C                    -0.244888
     22 S                    -0.004684
     23 C                    -0.018623
     24 H                     0.197920
     25 H                     0.206194
     26 C                    -0.025211
     27 S                     0.102031
     28 C                    -0.215998
     29 C                    -0.069178
     30 C                    -0.019188
     31 C                     0.367550
     32 C                    -0.138108
     33 S                     0.044790
     34 C                     0.457056
     35 O                    -0.448922
     36 O                    -0.297851
     37 F                    -0.207601
     38 C                    -0.054815
     39 H                     0.116718
     40 H                     0.084550
     41 H                     0.084638
     42 H                     0.216268
  ----------------------------------------
  Sum of atomic charges =     0.000000

                    Cartesian Multipole Moments
 -----------------------------------------------------------------
    Charge (ESU x 10^10)
                -0.0000
    Dipole Moment (Debye)
         X       1.3452      Y       1.9231      Z       3.0710
       Tot       3.8651
    Quadrupole Moments (Debye-Ang)
        XX    -193.9175     XY       7.4403     YY    -163.5333
        XZ       5.4127     YZ     -10.5327     ZZ    -185.7761

 Total job time:  303.35s(wall), 9406.21s(cpu)
        *  Thank you very much for using Q-Chem.  Have a nice day.  *
