 Q-Chem 5.4, Q-Chem, Inc., Pleasanton, CA (2021)
 Q-Chem 5.4.0 for Intel X86 EM64T Linux

User input:
--------------------------------------------------------------
$molecule
0 1
C	-0.255459	-8.519741	-0.093711
C	0.799036	-7.635967	0.083869
S	-1.789425	-7.651740	-0.345260
C	0.418360	-6.261894	0.018411
H	1.834294	-7.954738	0.259169
C	-0.987769	-6.079985	-0.229701
C	-1.555260	-4.798382	-0.302697
C	1.294992	-5.153542	0.196459
C	0.726408	-3.869626	0.127651
C	-0.680716	-3.688927	-0.123544
O	2.601852	-5.481075	0.396706
O	-2.868193	-4.479871	-0.502673
C	-3.691495	-5.356026	-1.262918
H	-4.614080	-4.790496	-1.494604
H	-3.974195	-6.268513	-0.693738
H	-3.199559	-5.658187	-2.212720
C	3.490743	-4.546999	0.997016
H	4.416630	-5.107564	1.226691
H	3.073934	-4.131473	1.939526
H	3.746794	-3.712085	0.309214
C	-1.058247	-2.314326	-0.186133
S	1.527599	-2.295487	0.256010
C	-0.000000	-1.435180	-0.000000
H	-2.092285	-1.993211	-0.363896
H	-0.250435	-9.615985	-0.090328
C	0.000000	0.000000	0.000000
S	0.690437	0.576430	1.510732
C	1.896512	1.589852	0.727629
C	0.695720	0.583817	-1.064665
C	1.758621	1.477674	-0.678287
C	0.645928	0.539878	-2.486150
C	1.614763	1.352997	-3.106916
S	2.568261	2.157430	-1.965735
C	1.812707	1.512991	-4.559972
O	1.099523	0.910662	-5.350277
O	2.797769	2.335330	-5.004375
F	-0.205024	-0.179266	-3.246290
C	3.079074	2.558124	-6.334976
H	3.925910	3.267919	-6.370268
H	2.208109	2.990367	-6.875609
H	3.358147	1.618843	-6.861878
H	2.601331	2.181180	1.321510
$end

$rem
JOBTYPE		SP
EXCHANGE	HF
CORRELATION	pRIMP2
BASIS		cc-pvtz
METHOD		rimp2
AUX_BASIS	rimp2-cc-pvtz
SOLVENT_METHOD	PCM
PURECART	11111
SYMMETRY	false
MEM_TOTAL	110000
SCF_CONVERGENCE = 6
THRESH=10
GUI = 2
$end

$solvent
dielectric 4.90
$end
--------------------------------------------------------------

             Standard Nuclear Orientation (Angstroms)
    I     Atom           X                Y                Z
 ----------------------------------------------------------------
    1      C      -0.2554590000    -8.5197410000    -0.0937110000
    2      C       0.7990360000    -7.6359670000     0.0838690000
    3      S      -1.7894250000    -7.6517400000    -0.3452600000
    4      C       0.4183600000    -6.2618940000     0.0184110000
    5      H       1.8342940000    -7.9547380000     0.2591690000
    6      C      -0.9877690000    -6.0799850000    -0.2297010000
    7      C      -1.5552600000    -4.7983820000    -0.3026970000
    8      C       1.2949920000    -5.1535420000     0.1964590000
    9      C       0.7264080000    -3.8696260000     0.1276510000
   10      C      -0.6807160000    -3.6889270000    -0.1235440000
   11      O       2.6018520000    -5.4810750000     0.3967060000
   12      O      -2.8681930000    -4.4798710000    -0.5026730000
   13      C      -3.6914950000    -5.3560260000    -1.2629180000
   14      H      -4.6140800000    -4.7904960000    -1.4946040000
   15      H      -3.9741950000    -6.2685130000    -0.6937380000
   16      H      -3.1995590000    -5.6581870000    -2.2127200000
   17      C       3.4907430000    -4.5469990000     0.9970160000
   18      H       4.4166300000    -5.1075640000     1.2266910000
   19      H       3.0739340000    -4.1314730000     1.9395260000
   20      H       3.7467940000    -3.7120850000     0.3092140000
   21      C      -1.0582470000    -2.3143260000    -0.1861330000
   22      S       1.5275990000    -2.2954870000     0.2560100000
   23      C       0.0000000000    -1.4351800000     0.0000000000
   24      H      -2.0922850000    -1.9932110000    -0.3638960000
   25      H      -0.2504350000    -9.6159850000    -0.0903280000
   26      C       0.0000000000     0.0000000000     0.0000000000
   27      S       0.6904370000     0.5764300000     1.5107320000
   28      C       1.8965120000     1.5898520000     0.7276290000
   29      C       0.6957200000     0.5838170000    -1.0646650000
   30      C       1.7586210000     1.4776740000    -0.6782870000
   31      C       0.6459280000     0.5398780000    -2.4861500000
   32      C       1.6147630000     1.3529970000    -3.1069160000
   33      S       2.5682610000     2.1574300000    -1.9657350000
   34      C       1.8127070000     1.5129910000    -4.5599720000
   35      O       1.0995230000     0.9106620000    -5.3502770000
   36      O       2.7977690000     2.3353300000    -5.0043750000
   37      F      -0.2050240000    -0.1792660000    -3.2462900000
   38      C       3.0790740000     2.5581240000    -6.3349760000
   39      H       3.9259100000     3.2679190000    -6.3702680000
   40      H       2.2081090000     2.9903670000    -6.8756090000
   41      H       3.3581470000     1.6188430000    -6.8618780000
   42      H       2.6013310000     2.1811800000     1.3215100000
 ----------------------------------------------------------------

   11   -2754.2502244819      5.37e-07  Convergence criterion met
 Total energy in the final basis set =    -2754.2502244819
        RIMP2         total energy =     -2759.3172882412 a.u.

                    Orbital Energies (a.u.)
 --------------------------------------------------------------

 Alpha MOs
 -- Occupied --
-92.0151 -92.0025 -91.9845 -91.9829 -26.3338 -20.6149 -20.5911 -20.5890
-20.5552 -11.4147 -11.3762 -11.3168 -11.3162 -11.3143 -11.3080 -11.2990
-11.2916 -11.2899 -11.2886 -11.2865 -11.2844 -11.2823 -11.2819 -11.2816
-11.2776 -11.2564 -11.2561 -11.2485 -11.2472  -9.0139  -9.0062  -8.9844
 -8.9839  -6.6945  -6.6937  -6.6935  -6.6873  -6.6867  -6.6854  -6.6654
 -6.6648  -6.6648  -6.6641  -6.6639  -6.6631  -1.6467  -1.4750  -1.4151
 -1.4118  -1.3709  -1.2402  -1.1929  -1.1690  -1.1436  -1.0826  -1.0503
 -1.0490  -1.0312  -0.9990  -0.9915  -0.9742  -0.9594  -0.9492  -0.9375
 -0.8937  -0.8738  -0.8448  -0.8035  -0.7934  -0.7858  -0.7757  -0.7674
 -0.7543  -0.7306  -0.7178  -0.7154  -0.6993  -0.6916  -0.6808  -0.6799
 -0.6752  -0.6611  -0.6576  -0.6509  -0.6290  -0.6181  -0.6161  -0.6101
 -0.6052  -0.5993  -0.5855  -0.5760  -0.5648  -0.5634  -0.5539  -0.5415
 -0.5358  -0.5280  -0.5216  -0.5142  -0.5131  -0.5085  -0.5015  -0.4916
 -0.4901  -0.4868  -0.4703  -0.4655  -0.4642  -0.4620  -0.4602  -0.4085
 -0.3942  -0.3843  -0.3539  -0.3510  -0.3064  -0.2971  -0.2563

          Ground-State Mulliken Net Atomic Charges

     Atom                 Charge (a.u.)
  ----------------------------------------
      1 C                    -0.192003
      2 C                    -0.254500
      3 S                    -0.024793
      4 C                    -0.017171
      5 H                     0.195636
      6 C                    -0.028120
      7 C                     0.240723
      8 C                     0.240577
      9 C                    -0.042775
     10 C                    -0.020327
     11 O                    -0.333774
     12 O                    -0.339883
     13 C                    -0.085474
     14 H                     0.122069
     15 H                     0.090158
     16 H                     0.093820
     17 C                    -0.086476
     18 H                     0.124764
     19 H                     0.093640
     20 H                     0.089211
     21 C                    -0.227350
     22 S                    -0.023292
     23 C                    -0.072248
     24 H                     0.194661
     25 H                     0.205640
     26 C                    -0.082853
     27 S                     0.134373
     28 C                    -0.176166
     29 C                    -0.063738
     30 C                    -0.012070
     31 C                     0.364954
     32 C                    -0.134742
     33 S                     0.063718
     34 C                     0.458145
     35 O                    -0.440939
     36 O                    -0.296944
     37 F                    -0.208618
     38 C                    -0.054626
     39 H                     0.117190
     40 H                     0.085407
     41 H                     0.085498
     42 H                     0.218701
  ----------------------------------------
  Sum of atomic charges =     0.000000

                    Cartesian Multipole Moments
 -----------------------------------------------------------------
    Charge (ESU x 10^10)
                 0.0000
    Dipole Moment (Debye)
         X       4.2225      Y       2.2747      Z       2.5873
       Tot       5.4496
    Quadrupole Moments (Debye-Ang)
        XX    -169.7750     XY       9.4797     YY    -172.1398
        XZ      -0.2849     YZ      -6.2112     ZZ    -199.2950

 Total job time:  320.02s(wall), 10822.53s(cpu)
        *  Thank you very much for using Q-Chem.  Have a nice day.  *
