 Q-Chem 5.4, Q-Chem, Inc., Pleasanton, CA (2021)
 Q-Chem 5.4.0 for Intel X86 EM64T Linux

User input:
--------------------------------------------------------------
$molecule
0 1
C	-0.255929	-8.519741	0.092419
C	0.666007	-7.635967	-0.449364
S	-1.592708	-7.651740	0.885736
C	0.332317	-6.261894	-0.254813
H	1.571741	-7.954738	-0.980526
C	-0.904324	-6.079985	0.458965
C	-1.385968	-4.798382	0.767823
C	1.118303	-5.153542	-0.681909
C	0.638514	-3.869626	-0.369139
C	-0.600871	-3.688927	0.342916
O	2.248132	-5.481075	-1.368544
O	-2.520275	-4.479871	1.458570
C	-3.639637	-5.356026	1.405396
H	-4.495304	-4.790496	1.820940
H	-3.490336	-6.268513	2.023129
H	-3.873314	-5.658187	0.361595
C	3.314934	-4.546999	-1.480048
H	4.171837	-5.107564	-1.899255
H	3.601473	-4.131473	-0.490123
H	3.068969	-3.712085	-2.171521
C	-0.930308	-2.314326	0.537642
S	1.334769	-2.295487	-0.785807
C	-0.000000	-1.435180	-0.000000
H	-1.836691	-1.993211	1.066134
H	-0.249906	-9.615985	0.091781
C	0.000000	0.000000	0.000000
S	0.382139	0.814215	1.510732
C	1.046923	2.242395	0.727629
C	0.383804	0.823142	-1.064665
C	0.969360	2.082453	-0.678287
C	0.357247	0.762277	-2.486150
C	0.891671	1.908660	-3.106916
S	1.415865	3.040689	-1.965735
C	1.003453	2.137318	-4.559972
O	0.611644	1.290019	-5.350277
O	1.548687	3.298916	-5.004375
F	-0.110054	-0.249117	-3.246290
C	1.709479	3.619721	-6.334976
H	2.177001	4.620902	-6.370268
H	0.737443	3.643380	-6.875609
H	2.359363	2.886384	-6.861878
H	1.435800	3.076190	1.321510
$end

$rem
JOBTYPE		SP
EXCHANGE	HF
CORRELATION	pRIMP2
BASIS		cc-pvtz
METHOD		rimp2
AUX_BASIS	rimp2-cc-pvtz
SOLVENT_METHOD	PCM
PURECART	11111
SYMMETRY	false
MEM_TOTAL	110000
SCF_CONVERGENCE = 6
THRESH=10
GUI = 2
$end

$solvent
dielectric 4.90
$end
--------------------------------------------------------------

             Standard Nuclear Orientation (Angstroms)
    I     Atom           X                Y                Z
 ----------------------------------------------------------------
    1      C      -0.2559290000    -8.5197410000     0.0924190000
    2      C       0.6660070000    -7.6359670000    -0.4493640000
    3      S      -1.5927080000    -7.6517400000     0.8857360000
    4      C       0.3323170000    -6.2618940000    -0.2548130000
    5      H       1.5717410000    -7.9547380000    -0.9805260000
    6      C      -0.9043240000    -6.0799850000     0.4589650000
    7      C      -1.3859680000    -4.7983820000     0.7678230000
    8      C       1.1183030000    -5.1535420000    -0.6819090000
    9      C       0.6385140000    -3.8696260000    -0.3691390000
   10      C      -0.6008710000    -3.6889270000     0.3429160000
   11      O       2.2481320000    -5.4810750000    -1.3685440000
   12      O      -2.5202750000    -4.4798710000     1.4585700000
   13      C      -3.6396370000    -5.3560260000     1.4053960000
   14      H      -4.4953040000    -4.7904960000     1.8209400000
   15      H      -3.4903360000    -6.2685130000     2.0231290000
   16      H      -3.8733140000    -5.6581870000     0.3615950000
   17      C       3.3149340000    -4.5469990000    -1.4800480000
   18      H       4.1718370000    -5.1075640000    -1.8992550000
   19      H       3.6014730000    -4.1314730000    -0.4901230000
   20      H       3.0689690000    -3.7120850000    -2.1715210000
   21      C      -0.9303080000    -2.3143260000     0.5376420000
   22      S       1.3347690000    -2.2954870000    -0.7858070000
   23      C       0.0000000000    -1.4351800000     0.0000000000
   24      H      -1.8366910000    -1.9932110000     1.0661340000
   25      H      -0.2499060000    -9.6159850000     0.0917810000
   26      C       0.0000000000     0.0000000000     0.0000000000
   27      S       0.3821390000     0.8142150000     1.5107320000
   28      C       1.0469230000     2.2423950000     0.7276290000
   29      C       0.3838040000     0.8231420000    -1.0646650000
   30      C       0.9693600000     2.0824530000    -0.6782870000
   31      C       0.3572470000     0.7622770000    -2.4861500000
   32      C       0.8916710000     1.9086600000    -3.1069160000
   33      S       1.4158650000     3.0406890000    -1.9657350000
   34      C       1.0034530000     2.1373180000    -4.5599720000
   35      O       0.6116440000     1.2900190000    -5.3502770000
   36      O       1.5486870000     3.2989160000    -5.0043750000
   37      F      -0.1100540000    -0.2491170000    -3.2462900000
   38      C       1.7094790000     3.6197210000    -6.3349760000
   39      H       2.1770010000     4.6209020000    -6.3702680000
   40      H       0.7374430000     3.6433800000    -6.8756090000
   41      H       2.3593630000     2.8863840000    -6.8618780000
   42      H       1.4358000000     3.0761900000     1.3215100000
 ----------------------------------------------------------------

   10   -2754.2864800518      8.57e-07  Convergence criterion met
 Total energy in the final basis set =    -2754.2864800518
        RIMP2         total energy =     -2759.3431577102 a.u.

                    Orbital Energies (a.u.)
 --------------------------------------------------------------

 Alpha MOs
 -- Occupied --
-92.0164 -91.9963 -91.9895 -91.9862 -26.3339 -20.6125 -20.5921 -20.5914
-20.5509 -11.4110 -11.3773 -11.3190 -11.3177 -11.3049 -11.2992 -11.2984
-11.2969 -11.2934 -11.2887 -11.2868 -11.2860 -11.2858 -11.2838 -11.2838
-11.2796 -11.2604 -11.2588 -11.2559 -11.2498  -9.0146  -9.0003  -8.9899
 -8.9861  -6.6953  -6.6947  -6.6943  -6.6815  -6.6809  -6.6795  -6.6708
 -6.6701  -6.6691  -6.6671  -6.6665  -6.6656  -1.6469  -1.4723  -1.4162
 -1.4141  -1.3677  -1.2349  -1.1956  -1.1684  -1.1424  -1.0840  -1.0519
 -1.0480  -1.0285  -1.0020  -0.9928  -0.9720  -0.9609  -0.9502  -0.9386
 -0.8956  -0.8701  -0.8496  -0.8064  -0.7909  -0.7878  -0.7748  -0.7664
 -0.7576  -0.7324  -0.7181  -0.7153  -0.7005  -0.6890  -0.6827  -0.6788
 -0.6719  -0.6610  -0.6589  -0.6525  -0.6297  -0.6198  -0.6169  -0.6070
 -0.6033  -0.5958  -0.5822  -0.5776  -0.5669  -0.5653  -0.5565  -0.5506
 -0.5339  -0.5271  -0.5243  -0.5159  -0.5140  -0.5085  -0.5015  -0.4959
 -0.4893  -0.4848  -0.4750  -0.4682  -0.4621  -0.4616  -0.4600  -0.4099
 -0.4000  -0.3863  -0.3573  -0.3501  -0.3181  -0.2877  -0.2555

          Ground-State Mulliken Net Atomic Charges

     Atom                 Charge (a.u.)
  ----------------------------------------
      1 C                    -0.188268
      2 C                    -0.254457
      3 S                    -0.022864
      4 C                    -0.014233
      5 H                     0.196406
      6 C                    -0.025843
      7 C                     0.239189
      8 C                     0.241171
      9 C                    -0.042319
     10 C                    -0.011142
     11 O                    -0.333133
     12 O                    -0.340021
     13 C                    -0.085536
     14 H                     0.122398
     15 H                     0.090855
     16 H                     0.094444
     17 C                    -0.087508
     18 H                     0.125277
     19 H                     0.094262
     20 H                     0.090572
     21 C                    -0.248564
     22 S                    -0.006437
     23 C                    -0.030907
     24 H                     0.196378
     25 H                     0.206443
     26 C                     0.010764
     27 S                     0.126578
     28 C                    -0.229215
     29 C                    -0.151339
     30 C                     0.000454
     31 C                     0.390595
     32 C                    -0.150445
     33 S                     0.045228
     34 C                     0.460402
     35 O                    -0.448197
     36 O                    -0.297857
     37 F                    -0.209648
     38 C                    -0.054820
     39 H                     0.116676
     40 H                     0.084810
     41 H                     0.084610
     42 H                     0.215243
  ----------------------------------------
  Sum of atomic charges =     0.000000

                    Cartesian Multipole Moments
 -----------------------------------------------------------------
    Charge (ESU x 10^10)
                -0.0000
    Dipole Moment (Debye)
         X       1.6534      Y       1.6867      Z       2.9193
       Tot       3.7551
    Quadrupole Moments (Debye-Ang)
        XX    -175.6557     XY       7.2451     YY    -161.7526
        XZ     -11.7555     YZ      -8.6598     ZZ    -203.8898

 Total job time:  303.95s(wall), 9517.39s(cpu)
        *  Thank you very much for using Q-Chem.  Have a nice day.  *
