 Q-Chem 5.4, Q-Chem, Inc., Pleasanton, CA (2021)
 Q-Chem 5.4.0 for Intel X86 EM64T Linux

User input:
--------------------------------------------------------------
$molecule
0 1
C	-0.093711	-8.519741	0.255459
C	0.083869	-7.635967	-0.799036
S	-0.345260	-7.651740	1.789425
C	0.018411	-6.261894	-0.418360
H	0.259169	-7.954738	-1.834294
C	-0.229701	-6.079985	0.987769
C	-0.302697	-4.798382	1.555260
C	0.196459	-5.153542	-1.294992
C	0.127651	-3.869626	-0.726408
C	-0.123544	-3.688927	0.680716
O	0.396706	-5.481075	-2.601852
O	-0.502673	-4.479871	2.868193
C	-1.262918	-5.356026	3.691495
H	-1.494604	-4.790496	4.614080
H	-0.693738	-6.268513	3.974195
H	-2.212720	-5.658187	3.199559
C	0.997016	-4.546999	-3.490743
H	1.226691	-5.107564	-4.416630
H	1.939526	-4.131473	-3.073934
H	0.309214	-3.712085	-3.746794
C	-0.186133	-2.314326	1.058247
S	0.256010	-2.295487	-1.527599
C	0.000000	-1.435180	-0.000000
H	-0.363896	-1.993211	2.092285
H	-0.090328	-9.615985	0.250435
C	0.000000	0.000000	0.000000
S	0.080615	0.895811	1.510732
C	0.216842	2.465231	0.727629
C	0.079127	0.904769	-1.064665
C	0.198659	2.288406	-0.678287
C	0.074988	0.838492	-2.486150
C	0.185097	2.098524	-3.106916
S	0.290501	3.341568	-1.965735
C	0.211932	2.351623	-4.559972
O	0.133545	1.421416	-5.350277
O	0.326994	3.629649	-5.004375
F	-0.018214	-0.271734	-3.246290
C	0.368367	3.986101	-6.334976
H	0.465270	5.086806	-6.370268
H	-0.553140	3.675878	-6.875609
H	1.229874	3.519263	-6.861878
H	0.297091	3.381746	1.321510
$end

$rem
JOBTYPE		SP
EXCHANGE	HF
CORRELATION	pRIMP2
BASIS		cc-pvtz
METHOD		rimp2
AUX_BASIS	rimp2-cc-pvtz
SOLVENT_METHOD	PCM
PURECART	11111
SYMMETRY	false
MEM_TOTAL	110000
SCF_CONVERGENCE = 6
THRESH=10
GUI = 2
$end

$solvent
dielectric 4.90
$end
--------------------------------------------------------------

             Standard Nuclear Orientation (Angstroms)
    I     Atom           X                Y                Z
 ----------------------------------------------------------------
    1      C      -0.0937110000    -8.5197410000     0.2554590000
    2      C       0.0838690000    -7.6359670000    -0.7990360000
    3      S      -0.3452600000    -7.6517400000     1.7894250000
    4      C       0.0184110000    -6.2618940000    -0.4183600000
    5      H       0.2591690000    -7.9547380000    -1.8342940000
    6      C      -0.2297010000    -6.0799850000     0.9877690000
    7      C      -0.3026970000    -4.7983820000     1.5552600000
    8      C       0.1964590000    -5.1535420000    -1.2949920000
    9      C       0.1276510000    -3.8696260000    -0.7264080000
   10      C      -0.1235440000    -3.6889270000     0.6807160000
   11      O       0.3967060000    -5.4810750000    -2.6018520000
   12      O      -0.5026730000    -4.4798710000     2.8681930000
   13      C      -1.2629180000    -5.3560260000     3.6914950000
   14      H      -1.4946040000    -4.7904960000     4.6140800000
   15      H      -0.6937380000    -6.2685130000     3.9741950000
   16      H      -2.2127200000    -5.6581870000     3.1995590000
   17      C       0.9970160000    -4.5469990000    -3.4907430000
   18      H       1.2266910000    -5.1075640000    -4.4166300000
   19      H       1.9395260000    -4.1314730000    -3.0739340000
   20      H       0.3092140000    -3.7120850000    -3.7467940000
   21      C      -0.1861330000    -2.3143260000     1.0582470000
   22      S       0.2560100000    -2.2954870000    -1.5275990000
   23      C       0.0000000000    -1.4351800000     0.0000000000
   24      H      -0.3638960000    -1.9932110000     2.0922850000
   25      H      -0.0903280000    -9.6159850000     0.2504350000
   26      C       0.0000000000     0.0000000000     0.0000000000
   27      S       0.0806150000     0.8958110000     1.5107320000
   28      C       0.2168420000     2.4652310000     0.7276290000
   29      C       0.0791270000     0.9047690000    -1.0646650000
   30      C       0.1986590000     2.2884060000    -0.6782870000
   31      C       0.0749880000     0.8384920000    -2.4861500000
   32      C       0.1850970000     2.0985240000    -3.1069160000
   33      S       0.2905010000     3.3415680000    -1.9657350000
   34      C       0.2119320000     2.3516230000    -4.5599720000
   35      O       0.1335450000     1.4214160000    -5.3502770000
   36      O       0.3269940000     3.6296490000    -5.0043750000
   37      F      -0.0182140000    -0.2717340000    -3.2462900000
   38      C       0.3683670000     3.9861010000    -6.3349760000
   39      H       0.4652700000     5.0868060000    -6.3702680000
   40      H      -0.5531400000     3.6758780000    -6.8756090000
   41      H       1.2298740000     3.5192630000    -6.8618780000
   42      H       0.2970910000     3.3817460000     1.3215100000
 ----------------------------------------------------------------

   10   -2754.2924815345      8.53e-07  Convergence criterion met
 Total energy in the final basis set =    -2754.2924815345
        RIMP2         total energy =     -2759.3488884805 a.u.

                    Orbital Energies (a.u.)
 --------------------------------------------------------------

 Alpha MOs
 -- Occupied --
-92.0146 -91.9949 -91.9865 -91.9857 -26.3362 -20.6121 -20.5922 -20.5914
-20.5498 -11.4103 -11.3790 -11.3186 -11.3185 -11.3144 -11.2974 -11.2973
-11.2970 -11.2927 -11.2885 -11.2865 -11.2856 -11.2847 -11.2840 -11.2823
-11.2801 -11.2617 -11.2596 -11.2594 -11.2500  -9.0131  -8.9989  -8.9866
 -8.9864  -6.6939  -6.6933  -6.6928  -6.6802  -6.6795  -6.6782  -6.6674
 -6.6674  -6.6668  -6.6668  -6.6659  -6.6656  -1.6520  -1.4718  -1.4158
 -1.4146  -1.3671  -1.2342  -1.1964  -1.1691  -1.1421  -1.0848  -1.0523
 -1.0482  -1.0287  -1.0024  -0.9940  -0.9725  -0.9608  -0.9500  -0.9381
 -0.8961  -0.8697  -0.8525  -0.8101  -0.7960  -0.7872  -0.7752  -0.7632
 -0.7584  -0.7327  -0.7210  -0.7190  -0.7007  -0.6887  -0.6844  -0.6786
 -0.6738  -0.6622  -0.6586  -0.6525  -0.6288  -0.6197  -0.6164  -0.6066
 -0.6017  -0.5953  -0.5886  -0.5709  -0.5701  -0.5644  -0.5597  -0.5527
 -0.5302  -0.5266  -0.5248  -0.5183  -0.5150  -0.5087  -0.5017  -0.4954
 -0.4865  -0.4828  -0.4799  -0.4647  -0.4615  -0.4608  -0.4583  -0.4246
 -0.3955  -0.3868  -0.3606  -0.3499  -0.3251  -0.2836  -0.2469

          Ground-State Mulliken Net Atomic Charges

     Atom                 Charge (a.u.)
  ----------------------------------------
      1 C                    -0.187290
      2 C                    -0.254604
      3 S                    -0.022945
      4 C                    -0.014370
      5 H                     0.196728
      6 C                    -0.029877
      7 C                     0.245815
      8 C                     0.242739
      9 C                    -0.039461
     10 C                    -0.022163
     11 O                    -0.333550
     12 O                    -0.340310
     13 C                    -0.085761
     14 H                     0.122378
     15 H                     0.091398
     16 H                     0.094367
     17 C                    -0.089837
     18 H                     0.125843
     19 H                     0.094250
     20 H                     0.092246
     21 C                    -0.251449
     22 S                    -0.026040
     23 C                     0.023824
     24 H                     0.186872
     25 H                     0.206654
     26 C                     0.015696
     27 S                     0.094113
     28 C                    -0.240006
     29 C                    -0.102597
     30 C                    -0.020590
     31 C                     0.378241
     32 C                    -0.135236
     33 S                     0.035626
     34 C                     0.461695
     35 O                    -0.451756
     36 O                    -0.297841
     37 F                    -0.209722
     38 C                    -0.055141
     39 H                     0.116766
     40 H                     0.084573
     41 H                     0.084339
     42 H                     0.216383
  ----------------------------------------
  Sum of atomic charges =     0.000000

                    Cartesian Multipole Moments
 -----------------------------------------------------------------
    Charge (ESU x 10^10)
                 0.0000
    Dipole Moment (Debye)
         X       0.0643      Y       1.5204      Z       2.9232
       Tot       3.2956
    Quadrupole Moments (Debye-Ang)
        XX    -197.9116     XY       2.9697     YY    -159.2273
        XZ     -10.1890     YZ     -10.3841     ZZ    -184.8312

 Total job time:  282.04s(wall), 9404.26s(cpu)
        *  Thank you very much for using Q-Chem.  Have a nice day.  *
