 Q-Chem 5.4, Q-Chem, Inc., Pleasanton, CA (2021)
 Q-Chem 5.4.0 for Intel X86 EM64T Linux

User input:
--------------------------------------------------------------
$molecule
0 1
C	-0.255459	-8.519741	-0.093711
C	0.799036	-7.635967	0.083869
S	-1.789425	-7.651740	-0.345260
C	0.418360	-6.261894	0.018411
H	1.834294	-7.954738	0.259169
C	-0.987769	-6.079985	-0.229701
C	-1.555260	-4.798382	-0.302697
C	1.294992	-5.153542	0.196459
C	0.726408	-3.869626	0.127651
C	-0.680716	-3.688927	-0.123544
O	2.601852	-5.481075	0.396706
O	-2.868193	-4.479871	-0.502673
C	-3.691495	-5.356026	-1.262918
H	-4.614080	-4.790496	-1.494604
H	-3.974195	-6.268513	-0.693738
H	-3.199559	-5.658187	-2.212720
C	3.490743	-4.546999	0.997016
H	4.416630	-5.107564	1.226691
H	3.073934	-4.131473	1.939526
H	3.746794	-3.712085	0.309214
C	-1.058247	-2.314326	-0.186133
S	1.527599	-2.295487	0.256010
C	-0.000000	-1.435180	-0.000000
H	-2.092285	-1.993211	-0.363896
H	-0.250435	-9.615985	-0.090328
C	0.000000	0.000000	0.000000
S	0.382139	0.814215	1.510732
C	1.046923	2.242395	0.727629
C	0.383804	0.823142	-1.064665
C	0.969360	2.082453	-0.678287
C	0.357247	0.762277	-2.486150
C	0.891671	1.908660	-3.106916
S	1.415865	3.040689	-1.965735
C	1.003453	2.137318	-4.559972
O	0.611644	1.290019	-5.350277
O	1.548687	3.298916	-5.004375
F	-0.110054	-0.249117	-3.246290
C	1.709479	3.619721	-6.334976
H	2.177001	4.620902	-6.370268
H	0.737443	3.643380	-6.875609
H	2.359363	2.886384	-6.861878
H	1.435800	3.076190	1.321510
$end

$rem
JOBTYPE		SP
EXCHANGE	HF
CORRELATION	pRIMP2
BASIS		cc-pvtz
METHOD		rimp2
AUX_BASIS	rimp2-cc-pvtz
SOLVENT_METHOD	PCM
PURECART	11111
SYMMETRY	false
MEM_TOTAL	110000
SCF_CONVERGENCE = 6
THRESH=10
GUI = 2
$end

$solvent
dielectric 4.90
$end
--------------------------------------------------------------

             Standard Nuclear Orientation (Angstroms)
    I     Atom           X                Y                Z
 ----------------------------------------------------------------
    1      C      -0.2554590000    -8.5197410000    -0.0937110000
    2      C       0.7990360000    -7.6359670000     0.0838690000
    3      S      -1.7894250000    -7.6517400000    -0.3452600000
    4      C       0.4183600000    -6.2618940000     0.0184110000
    5      H       1.8342940000    -7.9547380000     0.2591690000
    6      C      -0.9877690000    -6.0799850000    -0.2297010000
    7      C      -1.5552600000    -4.7983820000    -0.3026970000
    8      C       1.2949920000    -5.1535420000     0.1964590000
    9      C       0.7264080000    -3.8696260000     0.1276510000
   10      C      -0.6807160000    -3.6889270000    -0.1235440000
   11      O       2.6018520000    -5.4810750000     0.3967060000
   12      O      -2.8681930000    -4.4798710000    -0.5026730000
   13      C      -3.6914950000    -5.3560260000    -1.2629180000
   14      H      -4.6140800000    -4.7904960000    -1.4946040000
   15      H      -3.9741950000    -6.2685130000    -0.6937380000
   16      H      -3.1995590000    -5.6581870000    -2.2127200000
   17      C       3.4907430000    -4.5469990000     0.9970160000
   18      H       4.4166300000    -5.1075640000     1.2266910000
   19      H       3.0739340000    -4.1314730000     1.9395260000
   20      H       3.7467940000    -3.7120850000     0.3092140000
   21      C      -1.0582470000    -2.3143260000    -0.1861330000
   22      S       1.5275990000    -2.2954870000     0.2560100000
   23      C       0.0000000000    -1.4351800000     0.0000000000
   24      H      -2.0922850000    -1.9932110000    -0.3638960000
   25      H      -0.2504350000    -9.6159850000    -0.0903280000
   26      C       0.0000000000     0.0000000000     0.0000000000
   27      S       0.3821390000     0.8142150000     1.5107320000
   28      C       1.0469230000     2.2423950000     0.7276290000
   29      C       0.3838040000     0.8231420000    -1.0646650000
   30      C       0.9693600000     2.0824530000    -0.6782870000
   31      C       0.3572470000     0.7622770000    -2.4861500000
   32      C       0.8916710000     1.9086600000    -3.1069160000
   33      S       1.4158650000     3.0406890000    -1.9657350000
   34      C       1.0034530000     2.1373180000    -4.5599720000
   35      O       0.6116440000     1.2900190000    -5.3502770000
   36      O       1.5486870000     3.2989160000    -5.0043750000
   37      F      -0.1100540000    -0.2491170000    -3.2462900000
   38      C       1.7094790000     3.6197210000    -6.3349760000
   39      H       2.1770010000     4.6209020000    -6.3702680000
   40      H       0.7374430000     3.6433800000    -6.8756090000
   41      H       2.3593630000     2.8863840000    -6.8618780000
   42      H       1.4358000000     3.0761900000     1.3215100000
 ----------------------------------------------------------------

   10   -2754.2845276119      8.55e-07  Convergence criterion met
 Total energy in the final basis set =    -2754.2845276119
        RIMP2         total energy =     -2759.3405002779 a.u.

                    Orbital Energies (a.u.)
 --------------------------------------------------------------

 Alpha MOs
 -- Occupied --
-92.0156 -91.9959 -91.9889 -91.9861 -26.3337 -20.6126 -20.5922 -20.5911
-20.5511 -11.4112 -11.3767 -11.3188 -11.3178 -11.3030 -11.2996 -11.2988
-11.2962 -11.2915 -11.2887 -11.2871 -11.2858 -11.2856 -11.2846 -11.2836
-11.2798 -11.2596 -11.2590 -11.2562 -11.2498  -9.0139  -8.9999  -8.9893
 -8.9861  -6.6946  -6.6940  -6.6936  -6.6812  -6.6805  -6.6792  -6.6702
 -6.6695  -6.6686  -6.6670  -6.6664  -6.6656  -1.6465  -1.4724  -1.4163
 -1.4139  -1.3678  -1.2343  -1.1953  -1.1681  -1.1422  -1.0834  -1.0516
 -1.0478  -1.0281  -1.0017  -0.9926  -0.9717  -0.9610  -0.9503  -0.9379
 -0.8955  -0.8699  -0.8493  -0.8040  -0.7913  -0.7877  -0.7730  -0.7692
 -0.7574  -0.7322  -0.7179  -0.7149  -0.7009  -0.6893  -0.6825  -0.6789
 -0.6717  -0.6602  -0.6589  -0.6523  -0.6303  -0.6197  -0.6170  -0.6070
 -0.6024  -0.5959  -0.5837  -0.5783  -0.5668  -0.5635  -0.5556  -0.5478
 -0.5366  -0.5265  -0.5234  -0.5157  -0.5141  -0.5079  -0.5016  -0.4929
 -0.4908  -0.4846  -0.4731  -0.4693  -0.4620  -0.4616  -0.4611  -0.4076
 -0.3982  -0.3868  -0.3566  -0.3495  -0.3127  -0.2909  -0.2587

          Ground-State Mulliken Net Atomic Charges

     Atom                 Charge (a.u.)
  ----------------------------------------
      1 C                    -0.187820
      2 C                    -0.254897
      3 S                    -0.022238
      4 C                    -0.012927
      5 H                     0.196296
      6 C                    -0.028173
      7 C                     0.243957
      8 C                     0.239960
      9 C                    -0.041699
     10 C                    -0.027038
     11 O                    -0.333281
     12 O                    -0.339747
     13 C                    -0.085531
     14 H                     0.122639
     15 H                     0.090660
     16 H                     0.094569
     17 C                    -0.086522
     18 H                     0.124961
     19 H                     0.094193
     20 H                     0.089951
     21 C                    -0.210502
     22 S                    -0.000580
     23 C                    -0.077676
     24 H                     0.196550
     25 H                     0.206463
     26 C                    -0.000811
     27 S                     0.120730
     28 C                    -0.225278
     29 C                    -0.099685
     30 C                     0.000911
     31 C                     0.368720
     32 C                    -0.151419
     33 S                     0.044662
     34 C                     0.458811
     35 O                    -0.447771
     36 O                    -0.297686
     37 F                    -0.209542
     38 C                    -0.054818
     39 H                     0.116676
     40 H                     0.084715
     41 H                     0.084736
     42 H                     0.215480
  ----------------------------------------
  Sum of atomic charges =     0.000000

                    Cartesian Multipole Moments
 -----------------------------------------------------------------
    Charge (ESU x 10^10)
                -0.0000
    Dipole Moment (Debye)
         X       1.7833      Y       1.6850      Z       2.9198
       Tot       3.8137
    Quadrupole Moments (Debye-Ang)
        XX    -177.5287     XY       6.5161     YY    -161.6597
        XZ       4.4417     YZ      -8.3647     ZZ    -201.9307

 Total job time:  307.87s(wall), 9728.82s(cpu)
        *  Thank you very much for using Q-Chem.  Have a nice day.  *
