 Q-Chem 5.4, Q-Chem, Inc., Pleasanton, CA (2021)
 Q-Chem 5.4.0 for Intel X86 EM64T Linux

User input:
--------------------------------------------------------------
$molecule
0 1
C	-0.208002	-8.519741	-0.175432
C	0.722164	-7.635967	0.352097
S	-1.563424	-7.651740	-0.936458
C	0.386833	-6.261894	0.160388
H	1.635031	-7.954738	0.870905
C	-0.849637	-6.079985	-0.553685
C	-1.357938	-4.798382	-0.816372
C	1.149702	-5.153542	0.627524
C	0.638941	-3.869626	0.368399
C	-0.597409	-3.688927	-0.348912
O	2.309260	-5.481075	1.262667
O	-2.523296	-4.479871	-1.453338
C	-3.036927	-5.356026	-2.449320
H	-3.824632	-4.790496	-2.982577
H	-3.497250	-6.268513	-2.011155
H	-2.249807	-5.658187	-3.173591
C	2.939226	-4.546999	2.130793
H	3.730721	-5.107564	2.663289
H	2.225196	-4.131473	2.873906
H	3.415077	-3.712085	1.572045
C	-0.930765	-2.314326	-0.536849
S	1.347913	-2.295487	0.763041
C	-0.000000	-1.435180	-0.000000
H	-1.841645	-1.993211	-1.057554
H	-0.204438	-9.615985	-0.170535
C	0.000000	0.000000	0.000000
S	0.451648	0.777811	1.510732
C	1.238377	2.142617	0.727629
C	0.454085	0.786559	-1.064665
C	1.147169	1.990043	-0.678287
C	0.422325	0.728240	-2.486150
C	1.054629	1.823683	-3.106916
S	1.675491	2.905718	-1.965735
C	1.185914	2.041729	-4.559972
O	0.721749	1.231802	-5.350277
O	1.830313	3.151386	-5.004375
F	-0.131347	-0.238577	-3.246290
C	2.018453	3.456956	-6.334976
H	2.571455	4.413580	-6.370268
H	1.052178	3.565244	-6.875609
H	2.601950	2.669768	-6.861878
H	1.698444	2.939346	1.321510
$end

$rem
JOBTYPE		SP
EXCHANGE	HF
CORRELATION	pRIMP2
BASIS		cc-pvtz
METHOD		rimp2
AUX_BASIS	rimp2-cc-pvtz
SOLVENT_METHOD	PCM
PURECART	11111
SYMMETRY	false
MEM_TOTAL	110000
SCF_CONVERGENCE = 6
THRESH=10
GUI = 2
$end

$solvent
dielectric 4.90
$end
--------------------------------------------------------------

             Standard Nuclear Orientation (Angstroms)
    I     Atom           X                Y                Z
 ----------------------------------------------------------------
    1      C      -0.2080020000    -8.5197410000    -0.1754320000
    2      C       0.7221640000    -7.6359670000     0.3520970000
    3      S      -1.5634240000    -7.6517400000    -0.9364580000
    4      C       0.3868330000    -6.2618940000     0.1603880000
    5      H       1.6350310000    -7.9547380000     0.8709050000
    6      C      -0.8496370000    -6.0799850000    -0.5536850000
    7      C      -1.3579380000    -4.7983820000    -0.8163720000
    8      C       1.1497020000    -5.1535420000     0.6275240000
    9      C       0.6389410000    -3.8696260000     0.3683990000
   10      C      -0.5974090000    -3.6889270000    -0.3489120000
   11      O       2.3092600000    -5.4810750000     1.2626670000
   12      O      -2.5232960000    -4.4798710000    -1.4533380000
   13      C      -3.0369270000    -5.3560260000    -2.4493200000
   14      H      -3.8246320000    -4.7904960000    -2.9825770000
   15      H      -3.4972500000    -6.2685130000    -2.0111550000
   16      H      -2.2498070000    -5.6581870000    -3.1735910000
   17      C       2.9392260000    -4.5469990000     2.1307930000
   18      H       3.7307210000    -5.1075640000     2.6632890000
   19      H       2.2251960000    -4.1314730000     2.8739060000
   20      H       3.4150770000    -3.7120850000     1.5720450000
   21      C      -0.9307650000    -2.3143260000    -0.5368490000
   22      S       1.3479130000    -2.2954870000     0.7630410000
   23      C       0.0000000000    -1.4351800000     0.0000000000
   24      H      -1.8416450000    -1.9932110000    -1.0575540000
   25      H      -0.2044380000    -9.6159850000    -0.1705350000
   26      C       0.0000000000     0.0000000000     0.0000000000
   27      S       0.4516480000     0.7778110000     1.5107320000
   28      C       1.2383770000     2.1426170000     0.7276290000
   29      C       0.4540850000     0.7865590000    -1.0646650000
   30      C       1.1471690000     1.9900430000    -0.6782870000
   31      C       0.4223250000     0.7282400000    -2.4861500000
   32      C       1.0546290000     1.8236830000    -3.1069160000
   33      S       1.6754910000     2.9057180000    -1.9657350000
   34      C       1.1859140000     2.0417290000    -4.5599720000
   35      O       0.7217490000     1.2318020000    -5.3502770000
   36      O       1.8303130000     3.1513860000    -5.0043750000
   37      F      -0.1313470000    -0.2385770000    -3.2462900000
   38      C       2.0184530000     3.4569560000    -6.3349760000
   39      H       2.5714550000     4.4135800000    -6.3702680000
   40      H       1.0521780000     3.5652440000    -6.8756090000
   41      H       2.6019500000     2.6697680000    -6.8618780000
   42      H       1.6984440000     2.9393460000     1.3215100000
 ----------------------------------------------------------------

   10   -2754.2801416996      8.51e-07  Convergence criterion met
 Total energy in the final basis set =    -2754.2801416996
        RIMP2         total energy =     -2759.3386763794 a.u.

                    Orbital Energies (a.u.)
 --------------------------------------------------------------

 Alpha MOs
 -- Occupied --
-92.0158 -91.9969 -91.9895 -91.9856 -26.3339 -20.6129 -20.5922 -20.5902
-20.5516 -11.4116 -11.3768 -11.3186 -11.3164 -11.3022 -11.3010 -11.3005
-11.2972 -11.2926 -11.2889 -11.2872 -11.2860 -11.2849 -11.2846 -11.2831
-11.2789 -11.2594 -11.2579 -11.2530 -11.2494  -9.0143  -9.0009  -8.9899
 -8.9855  -6.6950  -6.6944  -6.6940  -6.6821  -6.6815  -6.6801  -6.6708
 -6.6701  -6.6692  -6.6665  -6.6658  -6.6650  -1.6468  -1.4727  -1.4162
 -1.4130  -1.3682  -1.2355  -1.1949  -1.1684  -1.1427  -1.0832  -1.0510
 -1.0485  -1.0288  -1.0013  -0.9925  -0.9724  -0.9605  -0.9500  -0.9378
 -0.8954  -0.8707  -0.8487  -0.8032  -0.7928  -0.7873  -0.7721  -0.7702
 -0.7567  -0.7315  -0.7184  -0.7153  -0.7006  -0.6898  -0.6818  -0.6791
 -0.6724  -0.6604  -0.6587  -0.6518  -0.6296  -0.6192  -0.6165  -0.6075
 -0.6024  -0.5969  -0.5862  -0.5770  -0.5668  -0.5620  -0.5551  -0.5455
 -0.5372  -0.5268  -0.5224  -0.5156  -0.5146  -0.5080  -0.5027  -0.4932
 -0.4889  -0.4853  -0.4730  -0.4695  -0.4623  -0.4620  -0.4610  -0.4130
 -0.3963  -0.3857  -0.3564  -0.3501  -0.3163  -0.2894  -0.2545

          Ground-State Mulliken Net Atomic Charges

     Atom                 Charge (a.u.)
  ----------------------------------------
      1 C                    -0.189489
      2 C                    -0.254938
      3 S                    -0.022823
      4 C                    -0.014957
      5 H                     0.196006
      6 C                    -0.026564
      7 C                     0.239255
      8 C                     0.240740
      9 C                    -0.045740
     10 C                    -0.024668
     11 O                    -0.333251
     12 O                    -0.339992
     13 C                    -0.085446
     14 H                     0.122627
     15 H                     0.090417
     16 H                     0.094258
     17 C                    -0.086848
     18 H                     0.125069
     19 H                     0.094306
     20 H                     0.089536
     21 C                    -0.225825
     22 S                    -0.004230
     23 C                    -0.057325
     24 H                     0.194849
     25 H                     0.206142
     26 C                    -0.016865
     27 S                     0.110555
     28 C                    -0.213552
     29 C                    -0.068171
     30 C                    -0.008810
     31 C                     0.360704
     32 C                    -0.143136
     33 S                     0.047048
     34 C                     0.457702
     35 O                    -0.447195
     36 O                    -0.297681
     37 F                    -0.209465
     38 C                    -0.054866
     39 H                     0.116783
     40 H                     0.084746
     41 H                     0.084870
     42 H                     0.216226
  ----------------------------------------
  Sum of atomic charges =     0.000000

                    Cartesian Multipole Moments
 -----------------------------------------------------------------
    Charge (ESU x 10^10)
                -0.0000
    Dipole Moment (Debye)
         X       2.3076      Y       1.9091      Z       2.9513
       Tot       4.2048
    Quadrupole Moments (Debye-Ang)
        XX    -184.3193     XY       6.6939     YY    -164.1654
        XZ       6.9052     YZ      -8.1528     ZZ    -193.7071

 Total job time:  340.30s(wall), 11815.96s(cpu)
        *  Thank you very much for using Q-Chem.  Have a nice day.  *
