 Q-Chem 5.4, Q-Chem, Inc., Pleasanton, CA (2021)
 Q-Chem 5.4.0 for Intel X86 EM64T Linux

User input:
--------------------------------------------------------------
$molecule
0 1
C	0.093711	-8.519741	-0.255459
C	-0.083869	-7.635967	0.799036
S	0.345260	-7.651740	-1.789425
C	-0.018411	-6.261894	0.418360
H	-0.259169	-7.954738	1.834294
C	0.229701	-6.079985	-0.987769
C	0.302697	-4.798382	-1.555260
C	-0.196459	-5.153542	1.294992
C	-0.127651	-3.869626	0.726408
C	0.123544	-3.688927	-0.680716
O	-0.396706	-5.481075	2.601852
O	0.502673	-4.479871	-2.868193
C	1.262918	-5.356026	-3.691495
H	1.494604	-4.790496	-4.614080
H	0.693738	-6.268513	-3.974195
H	2.212720	-5.658187	-3.199559
C	-0.997016	-4.546999	3.490743
H	-1.226691	-5.107564	4.416630
H	-1.939526	-4.131473	3.073934
H	-0.309214	-3.712085	3.746794
C	0.186133	-2.314326	-1.058247
S	-0.256010	-2.295487	1.527599
C	-0.000000	-1.435180	-0.000000
H	0.363896	-1.993211	-2.092285
H	0.090328	-9.615985	-0.250435
C	0.000000	0.000000	0.000000
S	0.158383	0.885376	1.510732
C	0.430876	2.436951	0.727629
C	0.157682	0.894430	-1.064665
C	0.397351	2.262384	-0.678287
C	0.147783	0.828765	-2.486150
C	0.367291	2.074406	-3.106916
S	0.580633	3.303533	-1.965735
C	0.416083	2.324204	-4.559972
O	0.256921	1.404367	-5.350277
O	0.642094	3.587338	-5.004375
F	-0.041828	-0.269113	-3.246290
C	0.714377	3.938827	-6.334976
H	0.906844	5.026898	-6.370268
H	-0.230661	3.710099	-6.875609
H	1.531918	3.398681	-6.861878
H	0.590699	3.342984	1.321510
$end

$rem
JOBTYPE		SP
EXCHANGE	HF
CORRELATION	pRIMP2
BASIS		cc-pvtz
METHOD		rimp2
AUX_BASIS	rimp2-cc-pvtz
SOLVENT_METHOD	PCM
PURECART	11111
SYMMETRY	false
MEM_TOTAL	110000
SCF_CONVERGENCE = 6
THRESH=10
GUI = 2
$end

$solvent
dielectric 4.90
$end
--------------------------------------------------------------

             Standard Nuclear Orientation (Angstroms)
    I     Atom           X                Y                Z
 ----------------------------------------------------------------
    1      C       0.0937110000    -8.5197410000    -0.2554590000
    2      C      -0.0838690000    -7.6359670000     0.7990360000
    3      S       0.3452600000    -7.6517400000    -1.7894250000
    4      C      -0.0184110000    -6.2618940000     0.4183600000
    5      H      -0.2591690000    -7.9547380000     1.8342940000
    6      C       0.2297010000    -6.0799850000    -0.9877690000
    7      C       0.3026970000    -4.7983820000    -1.5552600000
    8      C      -0.1964590000    -5.1535420000     1.2949920000
    9      C      -0.1276510000    -3.8696260000     0.7264080000
   10      C       0.1235440000    -3.6889270000    -0.6807160000
   11      O      -0.3967060000    -5.4810750000     2.6018520000
   12      O       0.5026730000    -4.4798710000    -2.8681930000
   13      C       1.2629180000    -5.3560260000    -3.6914950000
   14      H       1.4946040000    -4.7904960000    -4.6140800000
   15      H       0.6937380000    -6.2685130000    -3.9741950000
   16      H       2.2127200000    -5.6581870000    -3.1995590000
   17      C      -0.9970160000    -4.5469990000     3.4907430000
   18      H      -1.2266910000    -5.1075640000     4.4166300000
   19      H      -1.9395260000    -4.1314730000     3.0739340000
   20      H      -0.3092140000    -3.7120850000     3.7467940000
   21      C       0.1861330000    -2.3143260000    -1.0582470000
   22      S      -0.2560100000    -2.2954870000     1.5275990000
   23      C       0.0000000000    -1.4351800000     0.0000000000
   24      H       0.3638960000    -1.9932110000    -2.0922850000
   25      H       0.0903280000    -9.6159850000    -0.2504350000
   26      C       0.0000000000     0.0000000000     0.0000000000
   27      S       0.1583830000     0.8853760000     1.5107320000
   28      C       0.4308760000     2.4369510000     0.7276290000
   29      C       0.1576820000     0.8944300000    -1.0646650000
   30      C       0.3973510000     2.2623840000    -0.6782870000
   31      C       0.1477830000     0.8287650000    -2.4861500000
   32      C       0.3672910000     2.0744060000    -3.1069160000
   33      S       0.5806330000     3.3035330000    -1.9657350000
   34      C       0.4160830000     2.3242040000    -4.5599720000
   35      O       0.2569210000     1.4043670000    -5.3502770000
   36      O       0.6420940000     3.5873380000    -5.0043750000
   37      F      -0.0418280000    -0.2691130000    -3.2462900000
   38      C       0.7143770000     3.9388270000    -6.3349760000
   39      H       0.9068440000     5.0268980000    -6.3702680000
   40      H      -0.2306610000     3.7100990000    -6.8756090000
   41      H       1.5319180000     3.3986810000    -6.8618780000
   42      H       0.5906990000     3.3429840000     1.3215100000
 ----------------------------------------------------------------

   10   -2754.2954494589      8.33e-07  Convergence criterion met
 Total energy in the final basis set =    -2754.2954494589
        RIMP2         total energy =     -2759.3510853123 a.u.

                    Orbital Energies (a.u.)
 --------------------------------------------------------------

 Alpha MOs
 -- Occupied --
-92.0161 -91.9953 -91.9908 -91.9872 -26.3383 -20.6118 -20.5931 -20.5918
-20.5495 -11.4100 -11.3788 -11.3203 -11.3196 -11.3139 -11.2977 -11.2966
-11.2965 -11.2924 -11.2884 -11.2884 -11.2878 -11.2856 -11.2849 -11.2809
-11.2809 -11.2623 -11.2607 -11.2578 -11.2506  -9.0146  -8.9993  -8.9915
 -8.9871  -6.6954  -6.6948  -6.6943  -6.6806  -6.6799  -6.6785  -6.6725
 -6.6719  -6.6709  -6.6680  -6.6674  -6.6666  -1.6526  -1.4715  -1.4173
 -1.4145  -1.3668  -1.2339  -1.1975  -1.1700  -1.1426  -1.0851  -1.0532
 -1.0484  -1.0282  -1.0040  -0.9942  -0.9725  -0.9613  -0.9510  -0.9386
 -0.8973  -0.8697  -0.8522  -0.8072  -0.7966  -0.7890  -0.7726  -0.7698
 -0.7582  -0.7336  -0.7218  -0.7196  -0.7020  -0.6897  -0.6848  -0.6784
 -0.6726  -0.6625  -0.6597  -0.6528  -0.6295  -0.6204  -0.6160  -0.6063
 -0.6002  -0.5942  -0.5884  -0.5761  -0.5698  -0.5611  -0.5533  -0.5487
 -0.5369  -0.5274  -0.5254  -0.5188  -0.5176  -0.5097  -0.5057  -0.4969
 -0.4869  -0.4842  -0.4797  -0.4678  -0.4619  -0.4612  -0.4587  -0.4248
 -0.3987  -0.3862  -0.3599  -0.3509  -0.3259  -0.2847  -0.2474

          Ground-State Mulliken Net Atomic Charges

     Atom                 Charge (a.u.)
  ----------------------------------------
      1 C                    -0.186258
      2 C                    -0.254903
      3 S                    -0.019722
      4 C                    -0.013765
      5 H                     0.196533
      6 C                    -0.029315
      7 C                     0.251902
      8 C                     0.242712
      9 C                    -0.036824
     10 C                    -0.038081
     11 O                    -0.333264
     12 O                    -0.338750
     13 C                    -0.086488
     14 H                     0.124269
     15 H                     0.091624
     16 H                     0.093982
     17 C                    -0.088498
     18 H                     0.126265
     19 H                     0.095248
     20 H                     0.089504
     21 C                    -0.200969
     22 S                    -0.041667
     23 C                    -0.023431
     24 H                     0.209918
     25 H                     0.206953
     26 C                    -0.018173
     27 S                     0.091938
     28 C                    -0.247672
     29 C                    -0.075689
     30 C                    -0.017042
     31 C                     0.384970
     32 C                    -0.137475
     33 S                     0.038682
     34 C                     0.461837
     35 O                    -0.451909
     36 O                    -0.298066
     37 F                    -0.216228
     38 C                    -0.054995
     39 H                     0.116682
     40 H                     0.084523
     41 H                     0.084301
     42 H                     0.217341
  ----------------------------------------
  Sum of atomic charges =     0.000000

                    Cartesian Multipole Moments
 -----------------------------------------------------------------
    Charge (ESU x 10^10)
                 0.0000
    Dipole Moment (Debye)
         X       0.8616      Y       1.1391      Z       3.2224
       Tot       3.5247
    Quadrupole Moments (Debye-Ang)
        XX    -197.4520     XY       1.1665     YY    -156.8522
        XZ     -11.2087     YZ      -9.8240     ZZ    -185.2148

 Total job time:  293.66s(wall), 9918.67s(cpu)
        *  Thank you very much for using Q-Chem.  Have a nice day.  *
