 Q-Chem 5.4, Q-Chem, Inc., Pleasanton, CA (2021)
 Q-Chem 5.4.0 for Intel X86 EM64T Linux

User input:
--------------------------------------------------------------
$molecule
0 1
C	-0.174379	-8.519741	-0.208886
C	0.650052	-7.635967	0.472151
S	-1.377058	-7.651740	-1.193717
C	0.353105	-6.261894	0.225125
H	1.458961	-7.954738	1.141594
C	-0.740583	-6.079985	-0.692811
C	-1.195546	-4.798382	-1.039773
C	1.023267	-5.153542	0.817634
C	0.565262	-3.869626	0.473754
C	-0.527745	-3.688927	-0.447350
O	2.054917	-5.481075	1.644483
O	-2.232592	-4.479871	-1.869424
C	-2.565470	-5.356026	-2.939466
H	-3.248608	-4.790496	-3.601405
H	-3.094885	-6.268513	-2.587892
H	-1.664539	-5.658187	-3.516052
C	2.524564	-4.546999	2.608813
H	3.211568	-5.107564	3.270661
H	1.692342	-4.131473	3.216646
H	3.090211	-3.712085	2.141184
C	-0.823402	-2.314326	-0.690319
S	1.194935	-2.295487	0.985511
C	0.000000	-1.435180	0.000000
H	-1.630024	-1.993211	-1.361286
H	-0.171719	-9.615985	-0.203444
C	0.000000	0.000000	0.000000
S	0.080615	0.895811	1.510732
C	0.216842	2.465231	0.727629
C	0.079127	0.904769	-1.064665
C	0.198659	2.288406	-0.678287
C	0.074988	0.838492	-2.486150
C	0.185097	2.098524	-3.106916
S	0.290501	3.341568	-1.965735
C	0.211932	2.351623	-4.559972
O	0.133545	1.421416	-5.350277
O	0.326994	3.629649	-5.004375
F	-0.018214	-0.271734	-3.246290
C	0.368367	3.986101	-6.334976
H	0.465270	5.086806	-6.370268
H	-0.553140	3.675878	-6.875609
H	1.229874	3.519263	-6.861878
H	0.297091	3.381746	1.321510
$end

$rem
JOBTYPE		SP
EXCHANGE	HF
CORRELATION	pRIMP2
BASIS		cc-pvtz
METHOD		rimp2
AUX_BASIS	rimp2-cc-pvtz
SOLVENT_METHOD	PCM
PURECART	11111
SYMMETRY	false
MEM_TOTAL	110000
SCF_CONVERGENCE = 6
THRESH=10
GUI = 2
$end

$solvent
dielectric 4.90
$end
--------------------------------------------------------------

             Standard Nuclear Orientation (Angstroms)
    I     Atom           X                Y                Z
 ----------------------------------------------------------------
    1      C      -0.1743790000    -8.5197410000    -0.2088860000
    2      C       0.6500520000    -7.6359670000     0.4721510000
    3      S      -1.3770580000    -7.6517400000    -1.1937170000
    4      C       0.3531050000    -6.2618940000     0.2251250000
    5      H       1.4589610000    -7.9547380000     1.1415940000
    6      C      -0.7405830000    -6.0799850000    -0.6928110000
    7      C      -1.1955460000    -4.7983820000    -1.0397730000
    8      C       1.0232670000    -5.1535420000     0.8176340000
    9      C       0.5652620000    -3.8696260000     0.4737540000
   10      C      -0.5277450000    -3.6889270000    -0.4473500000
   11      O       2.0549170000    -5.4810750000     1.6444830000
   12      O      -2.2325920000    -4.4798710000    -1.8694240000
   13      C      -2.5654700000    -5.3560260000    -2.9394660000
   14      H      -3.2486080000    -4.7904960000    -3.6014050000
   15      H      -3.0948850000    -6.2685130000    -2.5878920000
   16      H      -1.6645390000    -5.6581870000    -3.5160520000
   17      C       2.5245640000    -4.5469990000     2.6088130000
   18      H       3.2115680000    -5.1075640000     3.2706610000
   19      H       1.6923420000    -4.1314730000     3.2166460000
   20      H       3.0902110000    -3.7120850000     2.1411840000
   21      C      -0.8234020000    -2.3143260000    -0.6903190000
   22      S       1.1949350000    -2.2954870000     0.9855110000
   23      C       0.0000000000    -1.4351800000     0.0000000000
   24      H      -1.6300240000    -1.9932110000    -1.3612860000
   25      H      -0.1717190000    -9.6159850000    -0.2034440000
   26      C       0.0000000000     0.0000000000     0.0000000000
   27      S       0.0806150000     0.8958110000     1.5107320000
   28      C       0.2168420000     2.4652310000     0.7276290000
   29      C       0.0791270000     0.9047690000    -1.0646650000
   30      C       0.1986590000     2.2884060000    -0.6782870000
   31      C       0.0749880000     0.8384920000    -2.4861500000
   32      C       0.1850970000     2.0985240000    -3.1069160000
   33      S       0.2905010000     3.3415680000    -1.9657350000
   34      C       0.2119320000     2.3516230000    -4.5599720000
   35      O       0.1335450000     1.4214160000    -5.3502770000
   36      O       0.3269940000     3.6296490000    -5.0043750000
   37      F      -0.0182140000    -0.2717340000    -3.2462900000
   38      C       0.3683670000     3.9861010000    -6.3349760000
   39      H       0.4652700000     5.0868060000    -6.3702680000
   40      H      -0.5531400000     3.6758780000    -6.8756090000
   41      H       1.2298740000     3.5192630000    -6.8618780000
   42      H       0.2970910000     3.3817460000     1.3215100000
 ----------------------------------------------------------------

   10   -2754.2973975324      7.93e-07  Convergence criterion met
 Total energy in the final basis set =    -2754.2973975324
        RIMP2         total energy =     -2759.3502638862 a.u.

                    Orbital Energies (a.u.)
 --------------------------------------------------------------

 Alpha MOs
 -- Occupied --
-92.0160 -91.9943 -91.9917 -91.9868 -26.3341 -20.6118 -20.5930 -20.5916
-20.5495 -11.4099 -11.3774 -11.3199 -11.3190 -11.3120 -11.2965 -11.2963
-11.2949 -11.2927 -11.2883 -11.2877 -11.2874 -11.2857 -11.2845 -11.2820
-11.2805 -11.2618 -11.2601 -11.2591 -11.2503  -9.0143  -8.9983  -8.9920
 -8.9867  -6.6950  -6.6944  -6.6940  -6.6796  -6.6789  -6.6776  -6.6730
 -6.6723  -6.6713  -6.6677  -6.6671  -6.6662  -1.6471  -1.4715  -1.4171
 -1.4144  -1.3667  -1.2331  -1.1968  -1.1690  -1.1420  -1.0845  -1.0527
 -1.0474  -1.0275  -1.0032  -0.9936  -0.9715  -0.9616  -0.9508  -0.9383
 -0.8966  -0.8690  -0.8513  -0.8039  -0.7930  -0.7882  -0.7726  -0.7699
 -0.7583  -0.7330  -0.7185  -0.7153  -0.7018  -0.6887  -0.6835  -0.6782
 -0.6710  -0.6610  -0.6595  -0.6527  -0.6304  -0.6203  -0.6171  -0.6061
 -0.6016  -0.5940  -0.5858  -0.5782  -0.5684  -0.5616  -0.5557  -0.5502
 -0.5373  -0.5261  -0.5233  -0.5169  -0.5166  -0.5084  -0.5031  -0.4947
 -0.4887  -0.4838  -0.4779  -0.4701  -0.4620  -0.4611  -0.4605  -0.4149
 -0.3978  -0.3872  -0.3586  -0.3497  -0.3209  -0.2867  -0.2539

          Ground-State Mulliken Net Atomic Charges

     Atom                 Charge (a.u.)
  ----------------------------------------
      1 C                    -0.186721
      2 C                    -0.254678
      3 S                    -0.020769
      4 C                    -0.012905
      5 H                     0.196525
      6 C                    -0.027278
      7 C                     0.246004
      8 C                     0.239759
      9 C                    -0.045155
     10 C                    -0.029884
     11 O                    -0.332978
     12 O                    -0.339507
     13 C                    -0.085682
     14 H                     0.123335
     15 H                     0.090740
     16 H                     0.094701
     17 C                    -0.087227
     18 H                     0.125241
     19 H                     0.094555
     20 H                     0.089959
     21 C                    -0.219517
     22 S                    -0.008816
     23 C                    -0.037521
     24 H                     0.196616
     25 H                     0.206752
     26 C                    -0.012399
     27 S                     0.105858
     28 C                    -0.239697
     29 C                    -0.077308
     30 C                    -0.008724
     31 C                     0.386540
     32 C                    -0.151041
     33 S                     0.036223
     34 C                     0.459971
     35 O                    -0.451286
     36 O                    -0.297936
     37 F                    -0.211603
     38 C                    -0.055077
     39 H                     0.116542
     40 H                     0.084404
     41 H                     0.084470
     42 H                     0.215515
  ----------------------------------------
  Sum of atomic charges =     0.000000

                    Cartesian Multipole Moments
 -----------------------------------------------------------------
    Charge (ESU x 10^10)
                 0.0000
    Dipole Moment (Debye)
         X       0.4797      Y       1.2911      Z       3.1027
       Tot       3.3947
    Quadrupole Moments (Debye-Ang)
        XX    -192.6171     XY       0.8295     YY    -157.6993
        XZ      11.2950     YZ      -8.9751     ZZ    -190.5301

 Total job time:  278.69s(wall), 9189.70s(cpu)
        *  Thank you very much for using Q-Chem.  Have a nice day.  *
