 Q-Chem 5.4, Q-Chem, Inc., Pleasanton, CA (2021)
 Q-Chem 5.4.0 for Intel X86 EM64T Linux

User input:
--------------------------------------------------------------
$molecule
0 1
C	-0.175432	-8.519741	0.208002
C	0.352097	-7.635967	-0.722164
S	-0.936458	-7.651740	1.563424
C	0.160388	-6.261894	-0.386833
H	0.870905	-7.954738	-1.635031
C	-0.553685	-6.079985	0.849637
C	-0.816372	-4.798382	1.357938
C	0.627524	-5.153542	-1.149702
C	0.368399	-3.869626	-0.638941
C	-0.348912	-3.688927	0.597409
O	1.262667	-5.481075	-2.309260
O	-1.453338	-4.479871	2.523296
C	-2.449320	-5.356026	3.036927
H	-2.982577	-4.790496	3.824632
H	-2.011155	-6.268513	3.497250
H	-3.173591	-5.658187	2.249807
C	2.130793	-4.546999	-2.939226
H	2.663289	-5.107564	-3.730721
H	2.873906	-4.131473	-2.225196
H	1.572045	-3.712085	-3.415077
C	-0.536849	-2.314326	0.930765
S	0.763041	-2.295487	-1.347913
C	-0.000000	-1.435180	-0.000000
H	-1.057554	-1.993211	1.841645
H	-0.170535	-9.615985	0.204438
C	0.000000	0.000000	0.000000
S	0.451648	0.777811	1.510732
C	1.238377	2.142617	0.727629
C	0.454085	0.786559	-1.064665
C	1.147169	1.990043	-0.678287
C	0.422325	0.728240	-2.486150
C	1.054629	1.823683	-3.106916
S	1.675491	2.905718	-1.965735
C	1.185914	2.041729	-4.559972
O	0.721749	1.231802	-5.350277
O	1.830313	3.151386	-5.004375
F	-0.131347	-0.238577	-3.246290
C	2.018453	3.456956	-6.334976
H	2.571455	4.413580	-6.370268
H	1.052178	3.565244	-6.875609
H	2.601950	2.669768	-6.861878
H	1.698444	2.939346	1.321510
$end

$rem
JOBTYPE		SP
EXCHANGE	HF
CORRELATION	pRIMP2
BASIS		cc-pvtz
METHOD		rimp2
AUX_BASIS	rimp2-cc-pvtz
SOLVENT_METHOD	PCM
PURECART	11111
SYMMETRY	false
MEM_TOTAL	110000
SCF_CONVERGENCE = 6
THRESH=10
GUI = 2
$end

$solvent
dielectric 4.90
$end
--------------------------------------------------------------

             Standard Nuclear Orientation (Angstroms)
    I     Atom           X                Y                Z
 ----------------------------------------------------------------
    1      C      -0.1754320000    -8.5197410000     0.2080020000
    2      C       0.3520970000    -7.6359670000    -0.7221640000
    3      S      -0.9364580000    -7.6517400000     1.5634240000
    4      C       0.1603880000    -6.2618940000    -0.3868330000
    5      H       0.8709050000    -7.9547380000    -1.6350310000
    6      C      -0.5536850000    -6.0799850000     0.8496370000
    7      C      -0.8163720000    -4.7983820000     1.3579380000
    8      C       0.6275240000    -5.1535420000    -1.1497020000
    9      C       0.3683990000    -3.8696260000    -0.6389410000
   10      C      -0.3489120000    -3.6889270000     0.5974090000
   11      O       1.2626670000    -5.4810750000    -2.3092600000
   12      O      -1.4533380000    -4.4798710000     2.5232960000
   13      C      -2.4493200000    -5.3560260000     3.0369270000
   14      H      -2.9825770000    -4.7904960000     3.8246320000
   15      H      -2.0111550000    -6.2685130000     3.4972500000
   16      H      -3.1735910000    -5.6581870000     2.2498070000
   17      C       2.1307930000    -4.5469990000    -2.9392260000
   18      H       2.6632890000    -5.1075640000    -3.7307210000
   19      H       2.8739060000    -4.1314730000    -2.2251960000
   20      H       1.5720450000    -3.7120850000    -3.4150770000
   21      C      -0.5368490000    -2.3143260000     0.9307650000
   22      S       0.7630410000    -2.2954870000    -1.3479130000
   23      C       0.0000000000    -1.4351800000     0.0000000000
   24      H      -1.0575540000    -1.9932110000     1.8416450000
   25      H      -0.1705350000    -9.6159850000     0.2044380000
   26      C       0.0000000000     0.0000000000     0.0000000000
   27      S       0.4516480000     0.7778110000     1.5107320000
   28      C       1.2383770000     2.1426170000     0.7276290000
   29      C       0.4540850000     0.7865590000    -1.0646650000
   30      C       1.1471690000     1.9900430000    -0.6782870000
   31      C       0.4223250000     0.7282400000    -2.4861500000
   32      C       1.0546290000     1.8236830000    -3.1069160000
   33      S       1.6754910000     2.9057180000    -1.9657350000
   34      C       1.1859140000     2.0417290000    -4.5599720000
   35      O       0.7217490000     1.2318020000    -5.3502770000
   36      O       1.8303130000     3.1513860000    -5.0043750000
   37      F      -0.1313470000    -0.2385770000    -3.2462900000
   38      C       2.0184530000     3.4569560000    -6.3349760000
   39      H       2.5714550000     4.4135800000    -6.3702680000
   40      H       1.0521780000     3.5652440000    -6.8756090000
   41      H       2.6019500000     2.6697680000    -6.8618780000
   42      H       1.6984440000     2.9393460000     1.3215100000
 ----------------------------------------------------------------

   10   -2754.2794572408      8.58e-07  Convergence criterion met
 Total energy in the final basis set =    -2754.2794572408
        RIMP2         total energy =     -2759.3407918963 a.u.

                    Orbital Energies (a.u.)
 --------------------------------------------------------------

 Alpha MOs
 -- Occupied --
-92.0159 -91.9980 -91.9871 -91.9853 -26.3343 -20.6132 -20.5913 -20.5905
-20.5519 -11.4120 -11.3781 -11.3182 -11.3158 -11.3049 -11.3014 -11.3012
-11.2983 -11.2956 -11.2891 -11.2859 -11.2856 -11.2853 -11.2841 -11.2830
-11.2783 -11.2603 -11.2571 -11.2522 -11.2492  -9.0144  -9.0019  -8.9878
 -8.9853  -6.6951  -6.6944  -6.6940  -6.6832  -6.6825  -6.6812  -6.6687
 -6.6680  -6.6670  -6.6662  -6.6656  -6.6648  -1.6486  -1.4731  -1.4154
 -1.4132  -1.3686  -1.2367  -1.1949  -1.1686  -1.1430  -1.0843  -1.0514
 -1.0485  -1.0300  -1.0013  -0.9927  -0.9732  -0.9598  -0.9495  -0.9388
 -0.8949  -0.8713  -0.8491  -0.8084  -0.7935  -0.7867  -0.7754  -0.7641
 -0.7570  -0.7316  -0.7199  -0.7166  -0.6996  -0.6896  -0.6821  -0.6795
 -0.6736  -0.6619  -0.6580  -0.6518  -0.6276  -0.6189  -0.6159  -0.6078
 -0.6043  -0.5973  -0.5844  -0.5735  -0.5677  -0.5631  -0.5577  -0.5519
 -0.5316  -0.5272  -0.5240  -0.5162  -0.5146  -0.5078  -0.5024  -0.4957
 -0.4874  -0.4847  -0.4776  -0.4663  -0.4628  -0.4623  -0.4584  -0.4198
 -0.3944  -0.3862  -0.3601  -0.3494  -0.3227  -0.2858  -0.2473

          Ground-State Mulliken Net Atomic Charges

     Atom                 Charge (a.u.)
  ----------------------------------------
      1 C                    -0.191090
      2 C                    -0.254122
      3 S                    -0.024605
      4 C                    -0.018096
      5 H                     0.196221
      6 C                    -0.026521
      7 C                     0.234791
      8 C                     0.241730
      9 C                    -0.045947
     10 C                    -0.006203
     11 O                    -0.333217
     12 O                    -0.340515
     13 C                    -0.085481
     14 H                     0.121869
     15 H                     0.090781
     16 H                     0.094021
     17 C                    -0.089763
     18 H                     0.125645
     19 H                     0.093936
     20 H                     0.091562
     21 C                    -0.271572
     22 S                    -0.014113
     23 C                     0.011178
     24 H                     0.191371
     25 H                     0.205998
     26 C                     0.010668
     27 S                     0.124514
     28 C                    -0.222580
     29 C                    -0.117177
     30 C                    -0.014249
     31 C                     0.349946
     32 C                    -0.135227
     33 S                     0.051094
     34 C                     0.458834
     35 O                    -0.447225
     36 O                    -0.297731
     37 F                    -0.206978
     38 C                    -0.054805
     39 H                     0.116960
     40 H                     0.084963
     41 H                     0.084669
     42 H                     0.216466
  ----------------------------------------
  Sum of atomic charges =     0.000000

                    Cartesian Multipole Moments
 -----------------------------------------------------------------
    Charge (ESU x 10^10)
                -0.0000
    Dipole Moment (Debye)
         X       1.9651      Y       2.1488      Z       2.6935
       Tot       3.9666
    Quadrupole Moments (Debye-Ang)
        XX    -185.7904     XY       8.5952     YY    -165.3002
        XZ     -18.2275     YZ      -8.4739     ZZ    -191.9977

 Total job time:  398.81s(wall), 9728.12s(cpu)
        *  Thank you very much for using Q-Chem.  Have a nice day.  *
