 Q-Chem 5.4, Q-Chem, Inc., Pleasanton, CA (2021)
 Q-Chem 5.4.0 for Intel X86 EM64T Linux

User input:
--------------------------------------------------------------
$molecule
0 1
C	-0.135457	-8.519741	-0.235993
C	0.558188	-7.635967	0.577858
S	-1.148850	-7.651740	-1.414705
C	0.308648	-6.261894	0.283020
H	1.238560	-7.954738	1.377597
C	-0.609026	-6.079985	-0.810887
C	-0.996828	-4.798382	-1.231581
C	0.865740	-5.153542	0.982901
C	0.474408	-3.869626	0.564713
C	-0.442046	-3.688927	-0.532196
O	1.738137	-5.481075	1.976332
O	-1.874052	-4.479871	-2.228709
C	-2.016062	-5.356026	-3.340298
H	-2.573877	-4.790496	-4.110807
H	-2.598484	-6.268513	-3.085998
H	-1.028695	-5.658187	-3.751679
C	2.033195	-4.546999	3.007565
H	2.594833	-5.107564	3.778655
H	1.108067	-4.131473	3.461650
H	2.671451	-3.712085	2.645264
C	-0.691020	-2.314326	-0.822814
S	1.005649	-2.295487	1.178037
C	-0.000000	-1.435180	-0.000000
H	-1.368875	-1.993211	-1.623656
H	-0.133782	-9.615985	-0.230172
C	0.000000	0.000000	0.000000
S	0.158383	0.885376	1.510732
C	0.430876	2.436951	0.727629
C	0.157682	0.894430	-1.064665
C	0.397351	2.262384	-0.678287
C	0.147783	0.828765	-2.486150
C	0.367291	2.074406	-3.106916
S	0.580633	3.303533	-1.965735
C	0.416083	2.324204	-4.559972
O	0.256921	1.404367	-5.350277
O	0.642094	3.587338	-5.004375
F	-0.041828	-0.269113	-3.246290
C	0.714377	3.938827	-6.334976
H	0.906844	5.026898	-6.370268
H	-0.230661	3.710099	-6.875609
H	1.531918	3.398681	-6.861878
H	0.590699	3.342984	1.321510
$end

$rem
JOBTYPE		SP
EXCHANGE	HF
CORRELATION	pRIMP2
BASIS		cc-pvtz
METHOD		rimp2
AUX_BASIS	rimp2-cc-pvtz
SOLVENT_METHOD	PCM
PURECART	11111
SYMMETRY	false
MEM_TOTAL	110000
SCF_CONVERGENCE = 6
THRESH=10
GUI = 2
$end

$solvent
dielectric 4.90
$end
--------------------------------------------------------------

             Standard Nuclear Orientation (Angstroms)
    I     Atom           X                Y                Z
 ----------------------------------------------------------------
    1      C      -0.1354570000    -8.5197410000    -0.2359930000
    2      C       0.5581880000    -7.6359670000     0.5778580000
    3      S      -1.1488500000    -7.6517400000    -1.4147050000
    4      C       0.3086480000    -6.2618940000     0.2830200000
    5      H       1.2385600000    -7.9547380000     1.3775970000
    6      C      -0.6090260000    -6.0799850000    -0.8108870000
    7      C      -0.9968280000    -4.7983820000    -1.2315810000
    8      C       0.8657400000    -5.1535420000     0.9829010000
    9      C       0.4744080000    -3.8696260000     0.5647130000
   10      C      -0.4420460000    -3.6889270000    -0.5321960000
   11      O       1.7381370000    -5.4810750000     1.9763320000
   12      O      -1.8740520000    -4.4798710000    -2.2287090000
   13      C      -2.0160620000    -5.3560260000    -3.3402980000
   14      H      -2.5738770000    -4.7904960000    -4.1108070000
   15      H      -2.5984840000    -6.2685130000    -3.0859980000
   16      H      -1.0286950000    -5.6581870000    -3.7516790000
   17      C       2.0331950000    -4.5469990000     3.0075650000
   18      H       2.5948330000    -5.1075640000     3.7786550000
   19      H       1.1080670000    -4.1314730000     3.4616500000
   20      H       2.6714510000    -3.7120850000     2.6452640000
   21      C      -0.6910200000    -2.3143260000    -0.8228140000
   22      S       1.0056490000    -2.2954870000     1.1780370000
   23      C       0.0000000000    -1.4351800000     0.0000000000
   24      H      -1.3688750000    -1.9932110000    -1.6236560000
   25      H      -0.1337820000    -9.6159850000    -0.2301720000
   26      C       0.0000000000     0.0000000000     0.0000000000
   27      S       0.1583830000     0.8853760000     1.5107320000
   28      C       0.4308760000     2.4369510000     0.7276290000
   29      C       0.1576820000     0.8944300000    -1.0646650000
   30      C       0.3973510000     2.2623840000    -0.6782870000
   31      C       0.1477830000     0.8287650000    -2.4861500000
   32      C       0.3672910000     2.0744060000    -3.1069160000
   33      S       0.5806330000     3.3035330000    -1.9657350000
   34      C       0.4160830000     2.3242040000    -4.5599720000
   35      O       0.2569210000     1.4043670000    -5.3502770000
   36      O       0.6420940000     3.5873380000    -5.0043750000
   37      F      -0.0418280000    -0.2691130000    -3.2462900000
   38      C       0.7143770000     3.9388270000    -6.3349760000
   39      H       0.9068440000     5.0268980000    -6.3702680000
   40      H      -0.2306610000     3.7100990000    -6.8756090000
   41      H       1.5319180000     3.3986810000    -6.8618780000
   42      H       0.5906990000     3.3429840000     1.3215100000
 ----------------------------------------------------------------

   10   -2754.2965785730      7.78e-07  Convergence criterion met
 Total energy in the final basis set =    -2754.2965785730
        RIMP2         total energy =     -2759.3505714590 a.u.

                    Orbital Energies (a.u.)
 --------------------------------------------------------------

 Alpha MOs
 -- Occupied --
-92.0161 -91.9946 -91.9920 -91.9867 -26.3348 -20.6118 -20.5930 -20.5914
-20.5495 -11.4099 -11.3777 -11.3200 -11.3188 -11.3124 -11.2970 -11.2964
-11.2955 -11.2929 -11.2883 -11.2878 -11.2873 -11.2855 -11.2845 -11.2820
-11.2804 -11.2619 -11.2599 -11.2582 -11.2503  -9.0145  -8.9986  -8.9923
 -8.9866  -6.6952  -6.6946  -6.6942  -6.6799  -6.6792  -6.6779  -6.6733
 -6.6726  -6.6716  -6.6676  -6.6670  -6.6661  -1.6479  -1.4715  -1.4171
 -1.4142  -1.3668  -1.2335  -1.1969  -1.1693  -1.1423  -1.0846  -1.0527
 -1.0477  -1.0278  -1.0033  -0.9937  -0.9718  -0.9614  -0.9508  -0.9383
 -0.8968  -0.8693  -0.8513  -0.8042  -0.7939  -0.7883  -0.7723  -0.7699
 -0.7581  -0.7329  -0.7190  -0.7159  -0.7018  -0.6889  -0.6835  -0.6783
 -0.6714  -0.6614  -0.6595  -0.6526  -0.6301  -0.6202  -0.6168  -0.6062
 -0.6013  -0.5942  -0.5871  -0.5775  -0.5686  -0.5609  -0.5555  -0.5491
 -0.5376  -0.5264  -0.5229  -0.5177  -0.5170  -0.5087  -0.5039  -0.4952
 -0.4876  -0.4841  -0.4782  -0.4700  -0.4621  -0.4611  -0.4602  -0.4181
 -0.3977  -0.3867  -0.3586  -0.3503  -0.3227  -0.2862  -0.2515

          Ground-State Mulliken Net Atomic Charges

     Atom                 Charge (a.u.)
  ----------------------------------------
      1 C                    -0.186917
      2 C                    -0.254962
      3 S                    -0.020538
      4 C                    -0.012669
      5 H                     0.196465
      6 C                    -0.027714
      7 C                     0.245953
      8 C                     0.239831
      9 C                    -0.044527
     10 C                    -0.029505
     11 O                    -0.332931
     12 O                    -0.339270
     13 C                    -0.085746
     14 H                     0.123551
     15 H                     0.090882
     16 H                     0.094446
     17 C                    -0.087548
     18 H                     0.125414
     19 H                     0.094635
     20 H                     0.089831
     21 C                    -0.220530
     22 S                    -0.015572
     23 C                    -0.038183
     24 H                     0.194947
     25 H                     0.206714
     26 C                    -0.002118
     27 S                     0.096975
     28 C                    -0.235467
     29 C                    -0.065158
     30 C                    -0.013193
     31 C                     0.377053
     32 C                    -0.145697
     33 S                     0.037606
     34 C                     0.458958
     35 O                    -0.451217
     36 O                    -0.297988
     37 F                    -0.212151
     38 C                    -0.054939
     39 H                     0.116540
     40 H                     0.084358
     41 H                     0.084440
     42 H                     0.215942
  ----------------------------------------
  Sum of atomic charges =     0.000000

                    Cartesian Multipole Moments
 -----------------------------------------------------------------
    Charge (ESU x 10^10)
                 0.0000
    Dipole Moment (Debye)
         X       0.8145      Y       1.2884      Z       3.1193
       Tot       3.4718
    Quadrupole Moments (Debye-Ang)
        XX    -196.2457     XY       1.8993     YY    -158.0450
        XZ       8.3815     YZ      -8.9813     ZZ    -186.5024

 Total job time:  284.51s(wall), 9455.95s(cpu)
        *  Thank you very much for using Q-Chem.  Have a nice day.  *
