 Q-Chem 5.4, Q-Chem, Inc., Pleasanton, CA (2021)
 Q-Chem 5.4.0 for Intel X86 EM64T Linux

User input:
--------------------------------------------------------------
$molecule
0 1
C	0.268090	-8.519741	-0.046574
C	-0.733920	-7.635967	0.326886
S	1.722318	-7.651740	-0.595708
C	-0.371516	-6.261894	0.193236
H	-1.718130	-7.954738	0.692700
C	0.970283	-6.079985	-0.294958
C	1.498243	-4.798382	-0.515487
C	-1.219725	-5.153542	0.477358
C	-0.692914	-3.869626	0.252655
C	0.651289	-3.688927	-0.233366
O	-2.451623	-5.481075	0.957369
O	2.735264	-4.479871	-0.998769
C	3.828387	-5.356026	-0.752029
H	4.743213	-4.790496	-1.012675
H	3.788623	-6.268513	-1.386303
H	3.877260	-5.658187	0.316492
C	-3.521580	-4.546999	0.881930
H	-4.438260	-5.107564	1.145969
H	-3.631868	-4.131473	-0.142712
H	-3.399425	-3.712085	1.605610
C	1.009535	-2.314326	-0.367928
S	-1.450945	-2.295487	0.542088
C	0.000000	-1.435180	0.000000
H	1.993920	-1.993211	-0.730999
H	0.262047	-9.615985	-0.046991
C	0.000000	0.000000	0.000000
S	0.780044	0.447780	1.510732
C	2.143774	1.236372	0.727629
C	0.786529	0.454137	-1.064665
C	1.988499	1.149844	-0.678287
C	0.729864	0.419512	-2.486150
C	1.825177	1.052041	-3.106916
S	2.903877	1.678680	-1.965735
C	2.047896	1.175232	-4.559972
O	1.240953	0.705897	-5.350277
O	3.160791	1.814024	-5.004375
F	-0.233039	-0.140940	-3.246290
C	3.476510	1.984585	-6.334976
H	4.433735	2.536545	-6.370268
H	2.693835	2.561503	-6.875609
H	3.588239	1.011113	-6.861878
H	2.940569	1.696327	1.321510
$end

$rem
JOBTYPE		SP
EXCHANGE	HF
CORRELATION	pRIMP2
BASIS		cc-pvtz
METHOD		rimp2
AUX_BASIS	rimp2-cc-pvtz
SOLVENT_METHOD	PCM
PURECART	11111
SYMMETRY	false
MEM_TOTAL	110000
SCF_CONVERGENCE = 6
THRESH=10
GUI = 2
$end

$solvent
dielectric 4.90
$end
--------------------------------------------------------------

             Standard Nuclear Orientation (Angstroms)
    I     Atom           X                Y                Z
 ----------------------------------------------------------------
    1      C       0.2680900000    -8.5197410000    -0.0465740000
    2      C      -0.7339200000    -7.6359670000     0.3268860000
    3      S       1.7223180000    -7.6517400000    -0.5957080000
    4      C      -0.3715160000    -6.2618940000     0.1932360000
    5      H      -1.7181300000    -7.9547380000     0.6927000000
    6      C       0.9702830000    -6.0799850000    -0.2949580000
    7      C       1.4982430000    -4.7983820000    -0.5154870000
    8      C      -1.2197250000    -5.1535420000     0.4773580000
    9      C      -0.6929140000    -3.8696260000     0.2526550000
   10      C       0.6512890000    -3.6889270000    -0.2333660000
   11      O      -2.4516230000    -5.4810750000     0.9573690000
   12      O       2.7352640000    -4.4798710000    -0.9987690000
   13      C       3.8283870000    -5.3560260000    -0.7520290000
   14      H       4.7432130000    -4.7904960000    -1.0126750000
   15      H       3.7886230000    -6.2685130000    -1.3863030000
   16      H       3.8772600000    -5.6581870000     0.3164920000
   17      C      -3.5215800000    -4.5469990000     0.8819300000
   18      H      -4.4382600000    -5.1075640000     1.1459690000
   19      H      -3.6318680000    -4.1314730000    -0.1427120000
   20      H      -3.3994250000    -3.7120850000     1.6056100000
   21      C       1.0095350000    -2.3143260000    -0.3679280000
   22      S      -1.4509450000    -2.2954870000     0.5420880000
   23      C       0.0000000000    -1.4351800000     0.0000000000
   24      H       1.9939200000    -1.9932110000    -0.7309990000
   25      H       0.2620470000    -9.6159850000    -0.0469910000
   26      C       0.0000000000     0.0000000000     0.0000000000
   27      S       0.7800440000     0.4477800000     1.5107320000
   28      C       2.1437740000     1.2363720000     0.7276290000
   29      C       0.7865290000     0.4541370000    -1.0646650000
   30      C       1.9884990000     1.1498440000    -0.6782870000
   31      C       0.7298640000     0.4195120000    -2.4861500000
   32      C       1.8251770000     1.0520410000    -3.1069160000
   33      S       2.9038770000     1.6786800000    -1.9657350000
   34      C       2.0478960000     1.1752320000    -4.5599720000
   35      O       1.2409530000     0.7058970000    -5.3502770000
   36      O       3.1607910000     1.8140240000    -5.0043750000
   37      F      -0.2330390000    -0.1409400000    -3.2462900000
   38      C       3.4765100000     1.9845850000    -6.3349760000
   39      H       4.4337350000     2.5365450000    -6.3702680000
   40      H       2.6938350000     2.5615030000    -6.8756090000
   41      H       3.5882390000     1.0111130000    -6.8618780000
   42      H       2.9405690000     1.6963270000     1.3215100000
 ----------------------------------------------------------------

   11   -2754.2336433181      6.43e-07  Convergence criterion met
 Total energy in the final basis set =    -2754.2336433181
        RIMP2         total energy =     -2759.3041211177 a.u.

                    Orbital Energies (a.u.)
 --------------------------------------------------------------

 Alpha MOs
 -- Occupied --
-92.0159 -92.0061 -91.9834 -91.9799 -26.3342 -20.6162 -20.5900 -20.5882
-20.5574 -11.4166 -11.3765 -11.3272 -11.3157 -11.3126 -11.3118 -11.3005
-11.2962 -11.2927 -11.2905 -11.2849 -11.2847 -11.2809 -11.2786 -11.2758
-11.2709 -11.2568 -11.2534 -11.2477 -11.2432  -9.0148  -9.0096  -8.9834
 -8.9807  -6.6953  -6.6945  -6.6943  -6.6908  -6.6901  -6.6889  -6.6644
 -6.6637  -6.6629  -6.6617  -6.6609  -6.6601  -1.6471  -1.4764  -1.4139
 -1.4111  -1.3726  -1.2440  -1.1920  -1.1700  -1.1442  -1.0837  -1.0516
 -1.0476  -1.0330  -0.9976  -0.9917  -0.9757  -0.9578  -0.9481  -0.9388
 -0.8923  -0.8757  -0.8419  -0.8039  -0.7953  -0.7849  -0.7777  -0.7683
 -0.7529  -0.7303  -0.7182  -0.7155  -0.6995  -0.6930  -0.6819  -0.6794
 -0.6773  -0.6612  -0.6566  -0.6503  -0.6277  -0.6177  -0.6149  -0.6119
 -0.6087  -0.6011  -0.5821  -0.5727  -0.5675  -0.5620  -0.5540  -0.5475
 -0.5327  -0.5250  -0.5223  -0.5152  -0.5124  -0.5077  -0.5010  -0.4940
 -0.4905  -0.4861  -0.4679  -0.4665  -0.4645  -0.4601  -0.4566  -0.4022
 -0.3948  -0.3843  -0.3616  -0.3426  -0.3149  -0.2956  -0.2515

          Ground-State Mulliken Net Atomic Charges

     Atom                 Charge (a.u.)
  ----------------------------------------
      1 C                    -0.195696
      2 C                    -0.254312
      3 S                    -0.028405
      4 C                    -0.020343
      5 H                     0.195401
      6 C                    -0.025403
      7 C                     0.231719
      8 C                     0.244505
      9 C                    -0.048534
     10 C                    -0.016992
     11 O                    -0.333925
     12 O                    -0.342340
     13 C                    -0.085742
     14 H                     0.120925
     15 H                     0.090894
     16 H                     0.092661
     17 C                    -0.086908
     18 H                     0.124431
     19 H                     0.094642
     20 H                     0.089447
     21 C                    -0.286083
     22 S                    -0.031547
     23 C                     0.038927
     24 H                     0.194498
     25 H                     0.204924
     26 C                    -0.182107
     27 S                     0.141295
     28 C                    -0.139698
     29 C                    -0.075872
     30 C                    -0.027334
     31 C                     0.402004
     32 C                    -0.130129
     33 S                     0.073473
     34 C                     0.458792
     35 O                    -0.437161
     36 O                    -0.296524
     37 F                    -0.210056
     38 C                    -0.054732
     39 H                     0.117466
     40 H                     0.085902
     41 H                     0.085968
     42 H                     0.221969
  ----------------------------------------
  Sum of atomic charges =     0.000000

                    Cartesian Multipole Moments
 -----------------------------------------------------------------
    Charge (ESU x 10^10)
                 0.0000
    Dipole Moment (Debye)
         X       5.0447      Y       2.5364      Z       2.8989
       Tot       6.3472
    Quadrupole Moments (Debye-Ang)
        XX    -162.2433     XY       9.2375     YY    -179.1666
        XZ     -13.5025     YZ      -7.7499     ZZ    -201.7635

 Total job time:  308.96s(wall), 10064.88s(cpu)
        *  Thank you very much for using Q-Chem.  Have a nice day.  *
