 Q-Chem 5.4, Q-Chem, Inc., Pleasanton, CA (2021)
 Q-Chem 5.4.0 for Intel X86 EM64T Linux

User input:
--------------------------------------------------------------
$molecule
0 1
C	-0.255929	-8.519741	0.092419
C	0.666007	-7.635967	-0.449364
S	-1.592708	-7.651740	0.885736
C	0.332317	-6.261894	-0.254813
H	1.571741	-7.954738	-0.980526
C	-0.904324	-6.079985	0.458965
C	-1.385968	-4.798382	0.767823
C	1.118303	-5.153542	-0.681909
C	0.638514	-3.869626	-0.369139
C	-0.600871	-3.688927	0.342916
O	2.248132	-5.481075	-1.368544
O	-2.520275	-4.479871	1.458570
C	-3.639637	-5.356026	1.405396
H	-4.495304	-4.790496	1.820940
H	-3.490336	-6.268513	2.023129
H	-3.873314	-5.658187	0.361595
C	3.314934	-4.546999	-1.480048
H	4.171837	-5.107564	-1.899255
H	3.601473	-4.131473	-0.490123
H	3.068969	-3.712085	-2.171521
C	-0.930308	-2.314326	0.537642
S	1.334769	-2.295487	-0.785807
C	-0.000000	-1.435180	-0.000000
H	-1.836691	-1.993211	1.066134
H	-0.249906	-9.615985	0.091781
C	0.000000	0.000000	0.000000
S	0.451648	0.777811	1.510732
C	1.238377	2.142617	0.727629
C	0.454085	0.786559	-1.064665
C	1.147169	1.990043	-0.678287
C	0.422325	0.728240	-2.486150
C	1.054629	1.823683	-3.106916
S	1.675491	2.905718	-1.965735
C	1.185914	2.041729	-4.559972
O	0.721749	1.231802	-5.350277
O	1.830313	3.151386	-5.004375
F	-0.131347	-0.238577	-3.246290
C	2.018453	3.456956	-6.334976
H	2.571455	4.413580	-6.370268
H	1.052178	3.565244	-6.875609
H	2.601950	2.669768	-6.861878
H	1.698444	2.939346	1.321510
$end

$rem
JOBTYPE		SP
EXCHANGE	HF
CORRELATION	pRIMP2
BASIS		cc-pvtz
METHOD		rimp2
AUX_BASIS	rimp2-cc-pvtz
SOLVENT_METHOD	PCM
PURECART	11111
SYMMETRY	false
MEM_TOTAL	110000
SCF_CONVERGENCE = 6
THRESH=10
GUI = 2
$end

$solvent
dielectric 4.90
$end
--------------------------------------------------------------

             Standard Nuclear Orientation (Angstroms)
    I     Atom           X                Y                Z
 ----------------------------------------------------------------
    1      C      -0.2559290000    -8.5197410000     0.0924190000
    2      C       0.6660070000    -7.6359670000    -0.4493640000
    3      S      -1.5927080000    -7.6517400000     0.8857360000
    4      C       0.3323170000    -6.2618940000    -0.2548130000
    5      H       1.5717410000    -7.9547380000    -0.9805260000
    6      C      -0.9043240000    -6.0799850000     0.4589650000
    7      C      -1.3859680000    -4.7983820000     0.7678230000
    8      C       1.1183030000    -5.1535420000    -0.6819090000
    9      C       0.6385140000    -3.8696260000    -0.3691390000
   10      C      -0.6008710000    -3.6889270000     0.3429160000
   11      O       2.2481320000    -5.4810750000    -1.3685440000
   12      O      -2.5202750000    -4.4798710000     1.4585700000
   13      C      -3.6396370000    -5.3560260000     1.4053960000
   14      H      -4.4953040000    -4.7904960000     1.8209400000
   15      H      -3.4903360000    -6.2685130000     2.0231290000
   16      H      -3.8733140000    -5.6581870000     0.3615950000
   17      C       3.3149340000    -4.5469990000    -1.4800480000
   18      H       4.1718370000    -5.1075640000    -1.8992550000
   19      H       3.6014730000    -4.1314730000    -0.4901230000
   20      H       3.0689690000    -3.7120850000    -2.1715210000
   21      C      -0.9303080000    -2.3143260000     0.5376420000
   22      S       1.3347690000    -2.2954870000    -0.7858070000
   23      C       0.0000000000    -1.4351800000     0.0000000000
   24      H      -1.8366910000    -1.9932110000     1.0661340000
   25      H      -0.2499060000    -9.6159850000     0.0917810000
   26      C       0.0000000000     0.0000000000     0.0000000000
   27      S       0.4516480000     0.7778110000     1.5107320000
   28      C       1.2383770000     2.1426170000     0.7276290000
   29      C       0.4540850000     0.7865590000    -1.0646650000
   30      C       1.1471690000     1.9900430000    -0.6782870000
   31      C       0.4223250000     0.7282400000    -2.4861500000
   32      C       1.0546290000     1.8236830000    -3.1069160000
   33      S       1.6754910000     2.9057180000    -1.9657350000
   34      C       1.1859140000     2.0417290000    -4.5599720000
   35      O       0.7217490000     1.2318020000    -5.3502770000
   36      O       1.8303130000     3.1513860000    -5.0043750000
   37      F      -0.1313470000    -0.2385770000    -3.2462900000
   38      C       2.0184530000     3.4569560000    -6.3349760000
   39      H       2.5714550000     4.4135800000    -6.3702680000
   40      H       1.0521780000     3.5652440000    -6.8756090000
   41      H       2.6019500000     2.6697680000    -6.8618780000
   42      H       1.6984440000     2.9393460000     1.3215100000
 ----------------------------------------------------------------

   10   -2754.2816794123      8.63e-07  Convergence criterion met
 Total energy in the final basis set =    -2754.2816794123
        RIMP2         total energy =     -2759.3401699393 a.u.

                    Orbital Energies (a.u.)
 --------------------------------------------------------------

 Alpha MOs
 -- Occupied --
-92.0165 -91.9973 -91.9890 -91.9859 -26.3340 -20.6129 -20.5919 -20.5910
-20.5515 -11.4116 -11.3773 -11.3188 -11.3170 -11.3020 -11.3008 -11.3005
-11.2975 -11.2930 -11.2889 -11.2867 -11.2858 -11.2852 -11.2847 -11.2835
-11.2792 -11.2599 -11.2583 -11.2541 -11.2496  -9.0147  -9.0012  -8.9894
 -8.9858  -6.6954  -6.6947  -6.6943  -6.6824  -6.6818  -6.6804  -6.6704
 -6.6697  -6.6687  -6.6668  -6.6662  -6.6653  -1.6470  -1.4727  -1.4160
 -1.4138  -1.3682  -1.2357  -1.1951  -1.1683  -1.1427  -1.0839  -1.0516
 -1.0482  -1.0290  -1.0016  -0.9926  -0.9724  -0.9606  -0.9501  -0.9386
 -0.8953  -0.8706  -0.8488  -0.8063  -0.7912  -0.7876  -0.7749  -0.7663
 -0.7571  -0.7321  -0.7181  -0.7154  -0.7003  -0.6894  -0.6823  -0.6792
 -0.6725  -0.6611  -0.6587  -0.6522  -0.6293  -0.6196  -0.6168  -0.6074
 -0.6038  -0.5966  -0.5817  -0.5776  -0.5664  -0.5650  -0.5562  -0.5501
 -0.5338  -0.5275  -0.5240  -0.5156  -0.5140  -0.5085  -0.5015  -0.4958
 -0.4892  -0.4852  -0.4742  -0.4680  -0.4625  -0.4619  -0.4599  -0.4091
 -0.4002  -0.3859  -0.3571  -0.3501  -0.3178  -0.2882  -0.2550

          Ground-State Mulliken Net Atomic Charges

     Atom                 Charge (a.u.)
  ----------------------------------------
      1 C                    -0.189108
      2 C                    -0.254365
      3 S                    -0.023299
      4 C                    -0.015072
      5 H                     0.196288
      6 C                    -0.025501
      7 C                     0.237247
      8 C                     0.241500
      9 C                    -0.043113
     10 C                    -0.009515
     11 O                    -0.333134
     12 O                    -0.340086
     13 C                    -0.085523
     14 H                     0.122278
     15 H                     0.090762
     16 H                     0.094329
     17 C                    -0.087632
     18 H                     0.125298
     19 H                     0.094192
     20 H                     0.090465
     21 C                    -0.250837
     22 S                    -0.008913
     23 C                    -0.029268
     24 H                     0.196068
     25 H                     0.206290
     26 C                     0.001837
     27 S                     0.129308
     28 C                    -0.221544
     29 C                    -0.151707
     30 C                    -0.000348
     31 C                     0.389801
     32 C                    -0.148073
     33 S                     0.048340
     34 C                     0.460060
     35 O                    -0.447161
     36 O                    -0.297761
     37 F                    -0.209396
     38 C                    -0.054880
     39 H                     0.116775
     40 H                     0.084918
     41 H                     0.084769
     42 H                     0.215714
  ----------------------------------------
  Sum of atomic charges =     0.000000

                    Cartesian Multipole Moments
 -----------------------------------------------------------------
    Charge (ESU x 10^10)
                 0.0000
    Dipole Moment (Debye)
         X       2.0721      Y       1.8289      Z       2.8647
       Tot       3.9806
    Quadrupole Moments (Debye-Ang)
        XX    -174.4523     XY       8.1508     YY    -163.4775
        XZ     -12.6464     YZ      -8.3049     ZZ    -203.5387

 Total job time:  318.36s(wall), 10684.90s(cpu)
        *  Thank you very much for using Q-Chem.  Have a nice day.  *
