 Q-Chem 5.4, Q-Chem, Inc., Pleasanton, CA (2021)
 Q-Chem 5.4.0 for Intel X86 EM64T Linux

User input:
--------------------------------------------------------------
$molecule
0 1
C	-0.235306	-8.519741	-0.136647
C	0.772334	-7.635967	0.221346
S	-1.702286	-7.651740	-0.650746
C	0.408807	-6.261894	0.090779
H	1.761423	-7.954738	0.573754
C	-0.932876	-6.079985	-0.397735
C	-1.479069	-4.798382	-0.568166
C	1.241204	-5.153542	0.418347
C	0.693206	-3.869626	0.251852
C	-0.648921	-3.688927	-0.239872
O	2.493437	-5.481075	0.842486
O	-2.737331	-4.479871	-0.993092
C	-3.416110	-5.356026	-1.884752
H	-4.284447	-4.790496	-2.273124
H	-3.793352	-6.268513	-1.373310
H	-2.766716	-5.658187	-2.734702
C	3.264581	-4.546999	1.588030
H	4.136519	-5.107564	1.974995
H	2.690439	-4.131473	2.443843
H	3.636177	-3.712085	0.955140
C	-1.009848	-2.314326	-0.367068
S	1.459936	-2.295487	0.517386
C	-0.000000	-1.435180	-0.000000
H	-1.997308	-1.993211	-0.721689
H	-0.230945	-9.615985	-0.132444
C	0.000000	0.000000	0.000000
S	0.579852	0.687566	1.510732
C	1.591625	1.895024	0.727629
C	0.583771	0.695758	-1.064665
C	1.475308	1.760606	-0.678287
C	0.542366	0.643841	-2.486150
C	1.355286	1.612843	-3.106916
S	2.154609	2.570627	-1.965735
C	1.522440	1.804778	-4.559972
O	0.924684	1.087757	-5.350277
O	2.349739	2.785679	-5.004375
F	-0.170780	-0.212144	-3.246290
C	2.588082	3.053936	-6.334976
H	3.298799	3.899999	-6.370268
H	1.655291	3.328371	-6.875609
H	3.026021	2.177385	-6.861878
H	2.183053	2.599759	1.321510
$end

$rem
JOBTYPE		SP
EXCHANGE	HF
CORRELATION	pRIMP2
BASIS		cc-pvtz
METHOD		rimp2
AUX_BASIS	rimp2-cc-pvtz
SOLVENT_METHOD	PCM
PURECART	11111
SYMMETRY	false
MEM_TOTAL	110000
SCF_CONVERGENCE = 6
THRESH=10
GUI = 2
$end

$solvent
dielectric 4.90
$end
--------------------------------------------------------------

             Standard Nuclear Orientation (Angstroms)
    I     Atom           X                Y                Z
 ----------------------------------------------------------------
    1      C      -0.2353060000    -8.5197410000    -0.1366470000
    2      C       0.7723340000    -7.6359670000     0.2213460000
    3      S      -1.7022860000    -7.6517400000    -0.6507460000
    4      C       0.4088070000    -6.2618940000     0.0907790000
    5      H       1.7614230000    -7.9547380000     0.5737540000
    6      C      -0.9328760000    -6.0799850000    -0.3977350000
    7      C      -1.4790690000    -4.7983820000    -0.5681660000
    8      C       1.2412040000    -5.1535420000     0.4183470000
    9      C       0.6932060000    -3.8696260000     0.2518520000
   10      C      -0.6489210000    -3.6889270000    -0.2398720000
   11      O       2.4934370000    -5.4810750000     0.8424860000
   12      O      -2.7373310000    -4.4798710000    -0.9930920000
   13      C      -3.4161100000    -5.3560260000    -1.8847520000
   14      H      -4.2844470000    -4.7904960000    -2.2731240000
   15      H      -3.7933520000    -6.2685130000    -1.3733100000
   16      H      -2.7667160000    -5.6581870000    -2.7347020000
   17      C       3.2645810000    -4.5469990000     1.5880300000
   18      H       4.1365190000    -5.1075640000     1.9749950000
   19      H       2.6904390000    -4.1314730000     2.4438430000
   20      H       3.6361770000    -3.7120850000     0.9551400000
   21      C      -1.0098480000    -2.3143260000    -0.3670680000
   22      S       1.4599360000    -2.2954870000     0.5173860000
   23      C       0.0000000000    -1.4351800000     0.0000000000
   24      H      -1.9973080000    -1.9932110000    -0.7216890000
   25      H      -0.2309450000    -9.6159850000    -0.1324440000
   26      C       0.0000000000     0.0000000000     0.0000000000
   27      S       0.5798520000     0.6875660000     1.5107320000
   28      C       1.5916250000     1.8950240000     0.7276290000
   29      C       0.5837710000     0.6957580000    -1.0646650000
   30      C       1.4753080000     1.7606060000    -0.6782870000
   31      C       0.5423660000     0.6438410000    -2.4861500000
   32      C       1.3552860000     1.6128430000    -3.1069160000
   33      S       2.1546090000     2.5706270000    -1.9657350000
   34      C       1.5224400000     1.8047780000    -4.5599720000
   35      O       0.9246840000     1.0877570000    -5.3502770000
   36      O       2.3497390000     2.7856790000    -5.0043750000
   37      F      -0.1707800000    -0.2121440000    -3.2462900000
   38      C       2.5880820000     3.0539360000    -6.3349760000
   39      H       3.2987990000     3.8999990000    -6.3702680000
   40      H       1.6552910000     3.3283710000    -6.8756090000
   41      H       3.0260210000     2.1773850000    -6.8618780000
   42      H       2.1830530000     2.5997590000     1.3215100000
 ----------------------------------------------------------------

   11   -2754.2668252395      4.70e-07  Convergence criterion met
 Total energy in the final basis set =    -2754.2668252395
        RIMP2         total energy =     -2759.3292543331 a.u.

                    Orbital Energies (a.u.)
 --------------------------------------------------------------

 Alpha MOs
 -- Occupied --
-92.0154 -91.9992 -91.9866 -91.9850 -26.3338 -20.6138 -20.5916 -20.5896
-20.5532 -11.4130 -11.3765 -11.3178 -11.3154 -11.3077 -11.3039 -11.2978
-11.2933 -11.2905 -11.2893 -11.2885 -11.2869 -11.2847 -11.2834 -11.2824
-11.2783 -11.2579 -11.2570 -11.2501 -11.2490  -9.0141  -9.0031  -8.9873
 -8.9850  -6.6947  -6.6940  -6.6937  -6.6843  -6.6836  -6.6823  -6.6682
 -6.6675  -6.6665  -6.6659  -6.6653  -6.6645  -1.6467  -1.4737  -1.4156
 -1.4124  -1.3695  -1.2374  -1.1938  -1.1684  -1.1431  -1.0827  -1.0501
 -1.0492  -1.0298  -1.0002  -0.9919  -0.9731  -0.9600  -0.9496  -0.9376
 -0.8946  -0.8720  -0.8469  -0.8032  -0.7928  -0.7866  -0.7736  -0.7689
 -0.7557  -0.7310  -0.7181  -0.7153  -0.7000  -0.6906  -0.6809  -0.6799
 -0.6736  -0.6604  -0.6582  -0.6514  -0.6293  -0.6187  -0.6164  -0.6086
 -0.6033  -0.5985  -0.5858  -0.5766  -0.5658  -0.5627  -0.5546  -0.5435
 -0.5366  -0.5274  -0.5220  -0.5148  -0.5136  -0.5082  -0.5020  -0.4921
 -0.4896  -0.4862  -0.4713  -0.4671  -0.4636  -0.4624  -0.4607  -0.4106
 -0.3954  -0.3851  -0.3552  -0.3502  -0.3117  -0.2926  -0.2558

          Ground-State Mulliken Net Atomic Charges

     Atom                 Charge (a.u.)
  ----------------------------------------
      1 C                    -0.190717
      2 C                    -0.254853
      3 S                    -0.023833
      4 C                    -0.015997
      5 H                     0.195792
      6 C                    -0.027393
      7 C                     0.239291
      8 C                     0.240804
      9 C                    -0.044893
     10 C                    -0.023201
     11 O                    -0.333524
     12 O                    -0.339966
     13 C                    -0.085483
     14 H                     0.122337
     15 H                     0.090220
     16 H                     0.094082
     17 C                    -0.086662
     18 H                     0.124917
     19 H                     0.094023
     20 H                     0.089420
     21 C                    -0.224449
     22 S                    -0.009342
     23 C                    -0.068197
     24 H                     0.194907
     25 H                     0.205888
     26 C                    -0.041961
     27 S                     0.121725
     28 C                    -0.198004
     29 C                    -0.065784
     30 C                    -0.008867
     31 C                     0.358195
     32 C                    -0.139532
     33 S                     0.054274
     34 C                     0.457918
     35 O                    -0.444326
     36 O                    -0.297365
     37 F                    -0.209049
     38 C                    -0.054666
     39 H                     0.116960
     40 H                     0.085084
     41 H                     0.085080
     42 H                     0.217148
  ----------------------------------------
  Sum of atomic charges =     0.000000

                    Cartesian Multipole Moments
 -----------------------------------------------------------------
    Charge (ESU x 10^10)
                -0.0000
    Dipole Moment (Debye)
         X       3.2104      Y       2.1565      Z       2.7917
       Tot       4.7697
    Quadrupole Moments (Debye-Ang)
        XX    -177.0653     XY       8.4383     YY    -167.9923
        XZ       3.9558     YZ      -7.3122     ZZ    -196.9539

 Total job time:  299.00s(wall), 9794.72s(cpu)
        *  Thank you very much for using Q-Chem.  Have a nice day.  *
