 Q-Chem 5.4, Q-Chem, Inc., Pleasanton, CA (2021)
 Q-Chem 5.4.0 for Intel X86 EM64T Linux

User input:
--------------------------------------------------------------
$molecule
0 1
C	-0.235306	-8.519741	-0.136647
C	0.772334	-7.635967	0.221346
S	-1.702286	-7.651740	-0.650746
C	0.408807	-6.261894	0.090779
H	1.761423	-7.954738	0.573754
C	-0.932876	-6.079985	-0.397735
C	-1.479069	-4.798382	-0.568166
C	1.241204	-5.153542	0.418347
C	0.693206	-3.869626	0.251852
C	-0.648921	-3.688927	-0.239872
O	2.493437	-5.481075	0.842486
O	-2.737331	-4.479871	-0.993092
C	-3.416110	-5.356026	-1.884752
H	-4.284447	-4.790496	-2.273124
H	-3.793352	-6.268513	-1.373310
H	-2.766716	-5.658187	-2.734702
C	3.264581	-4.546999	1.588030
H	4.136519	-5.107564	1.974995
H	2.690439	-4.131473	2.443843
H	3.636177	-3.712085	0.955140
C	-1.009848	-2.314326	-0.367068
S	1.459936	-2.295487	0.517386
C	0.000000	-1.435180	0.000000
H	-1.997308	-1.993211	-0.721689
H	-0.230945	-9.615985	-0.132444
C	0.000000	0.000000	0.000000
S	0.080615	0.895811	1.510732
C	0.216842	2.465231	0.727629
C	0.079127	0.904769	-1.064665
C	0.198659	2.288406	-0.678287
C	0.074988	0.838492	-2.486150
C	0.185097	2.098524	-3.106916
S	0.290501	3.341568	-1.965735
C	0.211932	2.351623	-4.559972
O	0.133545	1.421416	-5.350277
O	0.326994	3.629649	-5.004375
F	-0.018214	-0.271734	-3.246290
C	0.368367	3.986101	-6.334976
H	0.465270	5.086806	-6.370268
H	-0.553140	3.675878	-6.875609
H	1.229874	3.519263	-6.861878
H	0.297091	3.381746	1.321510
$end

$rem
JOBTYPE		SP
EXCHANGE	HF
CORRELATION	pRIMP2
BASIS		cc-pvtz
METHOD		rimp2
AUX_BASIS	rimp2-cc-pvtz
SOLVENT_METHOD	PCM
PURECART	11111
SYMMETRY	false
MEM_TOTAL	110000
SCF_CONVERGENCE = 6
THRESH=10
GUI = 2
$end

$solvent
dielectric 4.90
$end
--------------------------------------------------------------

             Standard Nuclear Orientation (Angstroms)
    I     Atom           X                Y                Z
 ----------------------------------------------------------------
    1      C      -0.2353060000    -8.5197410000    -0.1366470000
    2      C       0.7723340000    -7.6359670000     0.2213460000
    3      S      -1.7022860000    -7.6517400000    -0.6507460000
    4      C       0.4088070000    -6.2618940000     0.0907790000
    5      H       1.7614230000    -7.9547380000     0.5737540000
    6      C      -0.9328760000    -6.0799850000    -0.3977350000
    7      C      -1.4790690000    -4.7983820000    -0.5681660000
    8      C       1.2412040000    -5.1535420000     0.4183470000
    9      C       0.6932060000    -3.8696260000     0.2518520000
   10      C      -0.6489210000    -3.6889270000    -0.2398720000
   11      O       2.4934370000    -5.4810750000     0.8424860000
   12      O      -2.7373310000    -4.4798710000    -0.9930920000
   13      C      -3.4161100000    -5.3560260000    -1.8847520000
   14      H      -4.2844470000    -4.7904960000    -2.2731240000
   15      H      -3.7933520000    -6.2685130000    -1.3733100000
   16      H      -2.7667160000    -5.6581870000    -2.7347020000
   17      C       3.2645810000    -4.5469990000     1.5880300000
   18      H       4.1365190000    -5.1075640000     1.9749950000
   19      H       2.6904390000    -4.1314730000     2.4438430000
   20      H       3.6361770000    -3.7120850000     0.9551400000
   21      C      -1.0098480000    -2.3143260000    -0.3670680000
   22      S       1.4599360000    -2.2954870000     0.5173860000
   23      C       0.0000000000    -1.4351800000     0.0000000000
   24      H      -1.9973080000    -1.9932110000    -0.7216890000
   25      H      -0.2309450000    -9.6159850000    -0.1324440000
   26      C       0.0000000000     0.0000000000     0.0000000000
   27      S       0.0806150000     0.8958110000     1.5107320000
   28      C       0.2168420000     2.4652310000     0.7276290000
   29      C       0.0791270000     0.9047690000    -1.0646650000
   30      C       0.1986590000     2.2884060000    -0.6782870000
   31      C       0.0749880000     0.8384920000    -2.4861500000
   32      C       0.1850970000     2.0985240000    -3.1069160000
   33      S       0.2905010000     3.3415680000    -1.9657350000
   34      C       0.2119320000     2.3516230000    -4.5599720000
   35      O       0.1335450000     1.4214160000    -5.3502770000
   36      O       0.3269940000     3.6296490000    -5.0043750000
   37      F      -0.0182140000    -0.2717340000    -3.2462900000
   38      C       0.3683670000     3.9861010000    -6.3349760000
   39      H       0.4652700000     5.0868060000    -6.3702680000
   40      H      -0.5531400000     3.6758780000    -6.8756090000
   41      H       1.2298740000     3.5192630000    -6.8618780000
   42      H       0.2970910000     3.3817460000     1.3215100000
 ----------------------------------------------------------------

   10   -2754.2954119045      8.51e-07  Convergence criterion met
 Total energy in the final basis set =    -2754.2954119045
        RIMP2         total energy =     -2759.3476699466 a.u.

                    Orbital Energies (a.u.)
 --------------------------------------------------------------

 Alpha MOs
 -- Occupied --
-92.0158 -91.9942 -91.9907 -91.9867 -26.3337 -20.6119 -20.5927 -20.5918
-20.5498 -11.4101 -11.3771 -11.3196 -11.3190 -11.3101 -11.2969 -11.2959
-11.2934 -11.2933 -11.2883 -11.2874 -11.2870 -11.2860 -11.2843 -11.2826
-11.2805 -11.2612 -11.2599 -11.2594 -11.2502  -9.0141  -8.9982  -8.9910
 -8.9866  -6.6948  -6.6942  -6.6937  -6.6795  -6.6788  -6.6775  -6.6719
 -6.6712  -6.6703  -6.6676  -6.6670  -6.6661  -1.6466  -1.4716  -1.4168
 -1.4145  -1.3669  -1.2329  -1.1963  -1.1685  -1.1417  -1.0841  -1.0525
 -1.0472  -1.0274  -1.0027  -0.9934  -0.9711  -0.9616  -0.9507  -0.9383
 -0.8962  -0.8689  -0.8510  -0.8040  -0.7915  -0.7882  -0.7730  -0.7696
 -0.7584  -0.7330  -0.7180  -0.7148  -0.7017  -0.6887  -0.6833  -0.6783
 -0.6708  -0.6605  -0.6594  -0.6528  -0.6309  -0.6203  -0.6172  -0.6062
 -0.6019  -0.5941  -0.5838  -0.5792  -0.5678  -0.5635  -0.5560  -0.5507
 -0.5366  -0.5259  -0.5239  -0.5163  -0.5152  -0.5080  -0.5019  -0.4936
 -0.4907  -0.4837  -0.4766  -0.4694  -0.4618  -0.4610  -0.4609  -0.4091
 -0.3988  -0.3877  -0.3581  -0.3488  -0.3165  -0.2886  -0.2581

          Ground-State Mulliken Net Atomic Charges

     Atom                 Charge (a.u.)
  ----------------------------------------
      1 C                    -0.186732
      2 C                    -0.254742
      3 S                    -0.021042
      4 C                    -0.012752
      5 H                     0.196487
      6 C                    -0.027360
      7 C                     0.246891
      8 C                     0.239539
      9 C                    -0.046127
     10 C                    -0.031197
     11 O                    -0.333045
     12 O                    -0.339825
     13 C                    -0.085675
     14 H                     0.122923
     15 H                     0.090744
     16 H                     0.094846
     17 C                    -0.086723
     18 H                     0.124943
     19 H                     0.094338
     20 H                     0.090136
     21 C                    -0.214407
     22 S                     0.000424
     23 C                    -0.053798
     24 H                     0.196656
     25 H                     0.206707
     26 C                    -0.014953
     27 S                     0.116206
     28 C                    -0.239093
     29 C                    -0.085395
     30 C                    -0.005864
     31 C                     0.390989
     32 C                    -0.156399
     33 S                     0.036679
     34 C                     0.460349
     35 O                    -0.450458
     36 O                    -0.297794
     37 F                    -0.211048
     38 C                    -0.055065
     39 H                     0.116539
     40 H                     0.084500
     41 H                     0.084529
     42 H                     0.215072
  ----------------------------------------
  Sum of atomic charges =     0.000000

                    Cartesian Multipole Moments
 -----------------------------------------------------------------
    Charge (ESU x 10^10)
                -0.0000
    Dipole Moment (Debye)
         X       0.4181      Y       1.4016      Z       3.0457
       Tot       3.3786
    Quadrupole Moments (Debye-Ang)
        XX    -183.9011     XY       1.4283     YY    -158.0252
        XZ      10.7099     YZ      -8.9782     ZZ    -199.0814

 Total job time:  282.11s(wall), 9241.12s(cpu)
        *  Thank you very much for using Q-Chem.  Have a nice day.  *
