 Q-Chem 5.4, Q-Chem, Inc., Pleasanton, CA (2021)
 Q-Chem 5.4.0 for Intel X86 EM64T Linux

User input:
--------------------------------------------------------------
$molecule
0 1
C	0.175432	-8.519741	-0.208002
C	-0.352097	-7.635967	0.722164
S	0.936458	-7.651740	-1.563424
C	-0.160388	-6.261894	0.386833
H	-0.870905	-7.954738	1.635031
C	0.553685	-6.079985	-0.849637
C	0.816372	-4.798382	-1.357938
C	-0.627524	-5.153542	1.149702
C	-0.368399	-3.869626	0.638941
C	0.348912	-3.688927	-0.597409
O	-1.262667	-5.481075	2.309260
O	1.453338	-4.479871	-2.523296
C	2.449320	-5.356026	-3.036927
H	2.982577	-4.790496	-3.824632
H	2.011155	-6.268513	-3.497250
H	3.173591	-5.658187	-2.249807
C	-2.130793	-4.546999	2.939226
H	-2.663289	-5.107564	3.730721
H	-2.873906	-4.131473	2.225196
H	-1.572045	-3.712085	3.415077
C	0.536849	-2.314326	-0.930765
S	-0.763041	-2.295487	1.347913
C	0.000000	-1.435180	0.000000
H	1.057554	-1.993211	-1.841645
H	0.170535	-9.615985	-0.204438
C	0.000000	0.000000	0.000000
S	0.309721	0.844422	1.510732
C	0.847502	2.325108	0.727629
C	0.310602	0.853460	-1.064665
C	0.784173	2.159014	-0.678287
C	0.289451	0.790512	-2.486150
C	0.721927	1.979112	-3.106916
S	1.145464	3.152519	-1.965735
C	0.813355	2.216642	-4.559972
O	0.496884	1.338418	-5.350277
O	1.255274	3.421340	-5.004375
F	-0.087923	-0.257761	-3.246290
C	1.387494	3.754937	-6.334976
H	1.765978	4.793056	-6.370268
H	0.417095	3.693789	-6.875609
H	2.098820	3.081033	-6.861878
H	1.162229	3.189623	1.321510
$end

$rem
JOBTYPE		SP
EXCHANGE	HF
CORRELATION	pRIMP2
BASIS		cc-pvtz
METHOD		rimp2
AUX_BASIS	rimp2-cc-pvtz
SOLVENT_METHOD	PCM
PURECART	11111
SYMMETRY	false
MEM_TOTAL	110000
SCF_CONVERGENCE = 6
THRESH=10
GUI = 2
$end

$solvent
dielectric 4.90
$end
--------------------------------------------------------------

             Standard Nuclear Orientation (Angstroms)
    I     Atom           X                Y                Z
 ----------------------------------------------------------------
    1      C       0.1754320000    -8.5197410000    -0.2080020000
    2      C      -0.3520970000    -7.6359670000     0.7221640000
    3      S       0.9364580000    -7.6517400000    -1.5634240000
    4      C      -0.1603880000    -6.2618940000     0.3868330000
    5      H      -0.8709050000    -7.9547380000     1.6350310000
    6      C       0.5536850000    -6.0799850000    -0.8496370000
    7      C       0.8163720000    -4.7983820000    -1.3579380000
    8      C      -0.6275240000    -5.1535420000     1.1497020000
    9      C      -0.3683990000    -3.8696260000     0.6389410000
   10      C       0.3489120000    -3.6889270000    -0.5974090000
   11      O      -1.2626670000    -5.4810750000     2.3092600000
   12      O       1.4533380000    -4.4798710000    -2.5232960000
   13      C       2.4493200000    -5.3560260000    -3.0369270000
   14      H       2.9825770000    -4.7904960000    -3.8246320000
   15      H       2.0111550000    -6.2685130000    -3.4972500000
   16      H       3.1735910000    -5.6581870000    -2.2498070000
   17      C      -2.1307930000    -4.5469990000     2.9392260000
   18      H      -2.6632890000    -5.1075640000     3.7307210000
   19      H      -2.8739060000    -4.1314730000     2.2251960000
   20      H      -1.5720450000    -3.7120850000     3.4150770000
   21      C       0.5368490000    -2.3143260000    -0.9307650000
   22      S      -0.7630410000    -2.2954870000     1.3479130000
   23      C       0.0000000000    -1.4351800000     0.0000000000
   24      H       1.0575540000    -1.9932110000    -1.8416450000
   25      H       0.1705350000    -9.6159850000    -0.2044380000
   26      C       0.0000000000     0.0000000000     0.0000000000
   27      S       0.3097210000     0.8444220000     1.5107320000
   28      C       0.8475020000     2.3251080000     0.7276290000
   29      C       0.3106020000     0.8534600000    -1.0646650000
   30      C       0.7841730000     2.1590140000    -0.6782870000
   31      C       0.2894510000     0.7905120000    -2.4861500000
   32      C       0.7219270000     1.9791120000    -3.1069160000
   33      S       1.1454640000     3.1525190000    -1.9657350000
   34      C       0.8133550000     2.2166420000    -4.5599720000
   35      O       0.4968840000     1.3384180000    -5.3502770000
   36      O       1.2552740000     3.4213400000    -5.0043750000
   37      F      -0.0879230000    -0.2577610000    -3.2462900000
   38      C       1.3874940000     3.7549370000    -6.3349760000
   39      H       1.7659780000     4.7930560000    -6.3702680000
   40      H       0.4170950000     3.6937890000    -6.8756090000
   41      H       2.0988200000     3.0810330000    -6.8618780000
   42      H       1.1622290000     3.1896230000     1.3215100000
 ----------------------------------------------------------------

   10   -2754.2921016814      8.02e-07  Convergence criterion met
 Total energy in the final basis set =    -2754.2921016814
        RIMP2         total energy =     -2759.3484542598 a.u.

                    Orbital Energies (a.u.)
 --------------------------------------------------------------

 Alpha MOs
 -- Occupied --
-92.0162 -91.9960 -91.9899 -91.9867 -26.3354 -20.6122 -20.5928 -20.5913
-20.5502 -11.4105 -11.3778 -11.3198 -11.3186 -11.3098 -11.2979 -11.2979
-11.2962 -11.2959 -11.2885 -11.2875 -11.2873 -11.2856 -11.2844 -11.2824
-11.2802 -11.2620 -11.2597 -11.2577 -11.2502  -9.0147  -9.0000  -8.9906
 -8.9866  -6.6954  -6.6948  -6.6944  -6.6812  -6.6806  -6.6792  -6.6716
 -6.6709  -6.6699  -6.6675  -6.6669  -6.6660  -1.6487  -1.4719  -1.4169
 -1.4141  -1.3672  -1.2345  -1.1968  -1.1694  -1.1428  -1.0847  -1.0526
 -1.0484  -1.0284  -1.0030  -0.9937  -0.9724  -0.9612  -0.9506  -0.9387
 -0.8966  -0.8700  -0.8506  -0.8043  -0.7951  -0.7883  -0.7725  -0.7703
 -0.7577  -0.7330  -0.7199  -0.7168  -0.7017  -0.6894  -0.6832  -0.6786
 -0.6723  -0.6618  -0.6594  -0.6525  -0.6291  -0.6201  -0.6164  -0.6066
 -0.6024  -0.5951  -0.5857  -0.5758  -0.5704  -0.5626  -0.5536  -0.5496
 -0.5357  -0.5263  -0.5259  -0.5168  -0.5164  -0.5087  -0.5051  -0.4971
 -0.4877  -0.4847  -0.4774  -0.4684  -0.4618  -0.4614  -0.4596  -0.4206
 -0.3978  -0.3861  -0.3589  -0.3508  -0.3243  -0.2853  -0.2498

          Ground-State Mulliken Net Atomic Charges

     Atom                 Charge (a.u.)
  ----------------------------------------
      1 C                    -0.187774
      2 C                    -0.254317
      3 S                    -0.020441
      4 C                    -0.015311
      5 H                     0.196371
      6 C                    -0.029228
      7 C                     0.245369
      8 C                     0.243251
      9 C                    -0.040625
     10 C                    -0.030877
     11 O                    -0.333360
     12 O                    -0.338692
     13 C                    -0.086009
     14 H                     0.123385
     15 H                     0.091361
     16 H                     0.093745
     17 C                    -0.087563
     18 H                     0.125806
     19 H                     0.095392
     20 H                     0.089175
     21 C                    -0.200203
     22 S                    -0.030034
     23 C                    -0.005947
     24 H                     0.195291
     25 H                     0.206647
     26 C                    -0.019355
     27 S                     0.114069
     28 C                    -0.242229
     29 C                    -0.108602
     30 C                    -0.008838
     31 C                     0.370735
     32 C                    -0.143204
     33 S                     0.043892
     34 C                     0.461426
     35 O                    -0.449971
     36 O                    -0.298083
     37 F                    -0.212489
     38 C                    -0.054834
     39 H                     0.116668
     40 H                     0.084739
     41 H                     0.084383
     42 H                     0.216281
  ----------------------------------------
  Sum of atomic charges =     0.000000

                    Cartesian Multipole Moments
 -----------------------------------------------------------------
    Charge (ESU x 10^10)
                 0.0000
    Dipole Moment (Debye)
         X       1.4879      Y       1.4392      Z       3.3453
       Tot       3.9339
    Quadrupole Moments (Debye-Ang)
        XX    -187.9821     XY       3.7188     YY    -159.3824
        XZ     -16.5177     YZ     -10.2832     ZZ    -193.0539

 Total job time:  321.94s(wall), 10819.26s(cpu)
        *  Thank you very much for using Q-Chem.  Have a nice day.  *
