 Q-Chem 5.4, Q-Chem, Inc., Pleasanton, CA (2021)
 Q-Chem 5.4.0 for Intel X86 EM64T Linux

User input:
--------------------------------------------------------------
$molecule
0 1
C	-0.267851	-8.519741	-0.047927
C	0.801461	-7.635967	-0.056157
S	-1.822194	-7.651740	-0.029285
C	0.415201	-6.261894	-0.054516
H	1.851431	-7.954738	-0.063290
C	-1.012650	-6.079985	-0.054687
C	-1.584194	-4.798382	-0.028030
C	1.309433	-5.153542	-0.031399
C	0.737539	-3.869626	-0.000427
C	-0.691828	-3.688927	-0.003462
O	2.631211	-5.481075	-0.061128
O	-2.911907	-4.479871	0.003021
C	-3.854716	-5.356026	-0.602710
H	-4.803517	-4.790496	-0.670671
H	-4.034285	-6.268513	0.006913
H	-3.535185	-5.658187	-1.623507
C	3.610841	-4.546999	0.375708
H	4.562544	-5.107564	0.441115
H	3.364029	-4.131473	1.376277
H	3.743566	-3.712085	-0.346107
C	-1.074491	-2.314326	0.000458
S	1.548848	-2.295487	-0.013144
C	-0.000000	-1.435180	-0.000000
H	-2.123688	-1.993211	0.004953
H	-0.262315	-9.615985	-0.045468
C	0.000000	0.000000	0.000000
S	0.690437	0.576430	1.510732
C	1.896512	1.589852	0.727629
C	0.695720	0.583817	-1.064665
C	1.758621	1.477674	-0.678287
C	0.645928	0.539878	-2.486150
C	1.614763	1.352997	-3.106916
S	2.568261	2.157430	-1.965735
C	1.812707	1.512991	-4.559972
O	1.099523	0.910662	-5.350277
O	2.797769	2.335330	-5.004375
F	-0.205024	-0.179266	-3.246290
C	3.079074	2.558124	-6.334976
H	3.925910	3.267919	-6.370268
H	2.208109	2.990367	-6.875609
H	3.358147	1.618843	-6.861878
H	2.601331	2.181180	1.321510
$end

$rem
JOBTYPE		SP
EXCHANGE	HF
CORRELATION	pRIMP2
BASIS		cc-pvtz
METHOD		rimp2
AUX_BASIS	rimp2-cc-pvtz
SOLVENT_METHOD	PCM
PURECART	11111
SYMMETRY	false
MEM_TOTAL	110000
SCF_CONVERGENCE = 6
THRESH=10
GUI = 2
$end

$solvent
dielectric 4.90
$end
--------------------------------------------------------------

             Standard Nuclear Orientation (Angstroms)
    I     Atom           X                Y                Z
 ----------------------------------------------------------------
    1      C      -0.2678510000    -8.5197410000    -0.0479270000
    2      C       0.8014610000    -7.6359670000    -0.0561570000
    3      S      -1.8221940000    -7.6517400000    -0.0292850000
    4      C       0.4152010000    -6.2618940000    -0.0545160000
    5      H       1.8514310000    -7.9547380000    -0.0632900000
    6      C      -1.0126500000    -6.0799850000    -0.0546870000
    7      C      -1.5841940000    -4.7983820000    -0.0280300000
    8      C       1.3094330000    -5.1535420000    -0.0313990000
    9      C       0.7375390000    -3.8696260000    -0.0004270000
   10      C      -0.6918280000    -3.6889270000    -0.0034620000
   11      O       2.6312110000    -5.4810750000    -0.0611280000
   12      O      -2.9119070000    -4.4798710000     0.0030210000
   13      C      -3.8547160000    -5.3560260000    -0.6027100000
   14      H      -4.8035170000    -4.7904960000    -0.6706710000
   15      H      -4.0342850000    -6.2685130000     0.0069130000
   16      H      -3.5351850000    -5.6581870000    -1.6235070000
   17      C       3.6108410000    -4.5469990000     0.3757080000
   18      H       4.5625440000    -5.1075640000     0.4411150000
   19      H       3.3640290000    -4.1314730000     1.3762770000
   20      H       3.7435660000    -3.7120850000    -0.3461070000
   21      C      -1.0744910000    -2.3143260000     0.0004580000
   22      S       1.5488480000    -2.2954870000    -0.0131440000
   23      C       0.0000000000    -1.4351800000     0.0000000000
   24      H      -2.1236880000    -1.9932110000     0.0049530000
   25      H      -0.2623150000    -9.6159850000    -0.0454680000
   26      C       0.0000000000     0.0000000000     0.0000000000
   27      S       0.6904370000     0.5764300000     1.5107320000
   28      C       1.8965120000     1.5898520000     0.7276290000
   29      C       0.6957200000     0.5838170000    -1.0646650000
   30      C       1.7586210000     1.4776740000    -0.6782870000
   31      C       0.6459280000     0.5398780000    -2.4861500000
   32      C       1.6147630000     1.3529970000    -3.1069160000
   33      S       2.5682610000     2.1574300000    -1.9657350000
   34      C       1.8127070000     1.5129910000    -4.5599720000
   35      O       1.0995230000     0.9106620000    -5.3502770000
   36      O       2.7977690000     2.3353300000    -5.0043750000
   37      F      -0.2050240000    -0.1792660000    -3.2462900000
   38      C       3.0790740000     2.5581240000    -6.3349760000
   39      H       3.9259100000     3.2679190000    -6.3702680000
   40      H       2.2081090000     2.9903670000    -6.8756090000
   41      H       3.3581470000     1.6188430000    -6.8618780000
   42      H       2.6013310000     2.1811800000     1.3215100000
 ----------------------------------------------------------------

   11   -2754.2511114595      5.33e-07  Convergence criterion met
 Total energy in the final basis set =    -2754.2511114595
        RIMP2         total energy =     -2759.3179577405 a.u.

                    Orbital Energies (a.u.)
 --------------------------------------------------------------

 Alpha MOs
 -- Occupied --
-92.0152 -92.0026 -91.9847 -91.9828 -26.3339 -20.6149 -20.5911 -20.5892
-20.5552 -11.4147 -11.3763 -11.3169 -11.3161 -11.3147 -11.3081 -11.2992
-11.2911 -11.2899 -11.2884 -11.2864 -11.2846 -11.2826 -11.2817 -11.2815
-11.2778 -11.2565 -11.2564 -11.2486 -11.2478  -9.0140  -9.0063  -8.9846
 -8.9838  -6.6945  -6.6937  -6.6935  -6.6874  -6.6868  -6.6855  -6.6656
 -6.6650  -6.6647  -6.6641  -6.6640  -6.6631  -1.6468  -1.4750  -1.4151
 -1.4120  -1.3709  -1.2403  -1.1929  -1.1689  -1.1437  -1.0827  -1.0505
 -1.0489  -1.0312  -0.9992  -0.9915  -0.9742  -0.9594  -0.9492  -0.9378
 -0.8937  -0.8737  -0.8448  -0.8041  -0.7930  -0.7859  -0.7761  -0.7670
 -0.7543  -0.7308  -0.7178  -0.7154  -0.6993  -0.6915  -0.6808  -0.6801
 -0.6752  -0.6614  -0.6577  -0.6510  -0.6289  -0.6183  -0.6162  -0.6101
 -0.6055  -0.5992  -0.5842  -0.5763  -0.5646  -0.5638  -0.5541  -0.5425
 -0.5353  -0.5282  -0.5220  -0.5144  -0.5132  -0.5085  -0.5012  -0.4926
 -0.4901  -0.4867  -0.4689  -0.4658  -0.4647  -0.4626  -0.4599  -0.4065
 -0.3954  -0.3843  -0.3537  -0.3515  -0.3062  -0.2974  -0.2569

          Ground-State Mulliken Net Atomic Charges

     Atom                 Charge (a.u.)
  ----------------------------------------
      1 C                    -0.191547
      2 C                    -0.254640
      3 S                    -0.024654
      4 C                    -0.016671
      5 H                     0.195820
      6 C                    -0.028653
      7 C                     0.241779
      8 C                     0.240879
      9 C                    -0.041419
     10 C                    -0.018912
     11 O                    -0.333629
     12 O                    -0.339733
     13 C                    -0.085504
     14 H                     0.122073
     15 H                     0.090158
     16 H                     0.093889
     17 C                    -0.086512
     18 H                     0.124780
     19 H                     0.093565
     20 H                     0.089405
     21 C                    -0.227077
     22 S                    -0.026122
     23 C                    -0.070993
     24 H                     0.195152
     25 H                     0.205710
     26 C                    -0.080255
     27 S                     0.137395
     28 C                    -0.174817
     29 C                    -0.089985
     30 C                    -0.008834
     31 C                     0.377273
     32 C                    -0.136724
     33 S                     0.064269
     34 C                     0.458484
     35 O                    -0.440843
     36 O                    -0.296950
     37 F                    -0.208365
     38 C                    -0.054627
     39 H                     0.117183
     40 H                     0.085445
     41 H                     0.085497
     42 H                     0.218710
  ----------------------------------------
  Sum of atomic charges =     0.000000

                    Cartesian Multipole Moments
 -----------------------------------------------------------------
    Charge (ESU x 10^10)
                 0.0000
    Dipole Moment (Debye)
         X       4.1592      Y       2.2104      Z       2.5570
       Tot       5.3594
    Quadrupole Moments (Debye-Ang)
        XX    -167.1528     XY       9.7997     YY    -171.6559
        XZ      -3.7249     YZ      -6.2407     ZZ    -201.8984

 Total job time:  313.45s(wall), 10322.28s(cpu)
        *  Thank you very much for using Q-Chem.  Have a nice day.  *
