 Q-Chem 5.4, Q-Chem, Inc., Pleasanton, CA (2021)
 Q-Chem 5.4.0 for Intel X86 EM64T Linux

User input:
--------------------------------------------------------------
$molecule
0 1
C	0.093711	-8.519741	-0.255459
C	-0.083869	-7.635967	0.799036
S	0.345260	-7.651740	-1.789425
C	-0.018411	-6.261894	0.418360
H	-0.259169	-7.954738	1.834294
C	0.229701	-6.079985	-0.987769
C	0.302697	-4.798382	-1.555260
C	-0.196459	-5.153542	1.294992
C	-0.127651	-3.869626	0.726408
C	0.123544	-3.688927	-0.680716
O	-0.396706	-5.481075	2.601852
O	0.502673	-4.479871	-2.868193
C	1.262918	-5.356026	-3.691495
H	1.494604	-4.790496	-4.614080
H	0.693738	-6.268513	-3.974195
H	2.212720	-5.658187	-3.199559
C	-0.997016	-4.546999	3.490743
H	-1.226691	-5.107564	4.416630
H	-1.939526	-4.131473	3.073934
H	-0.309214	-3.712085	3.746794
C	0.186133	-2.314326	-1.058247
S	-0.256010	-2.295487	1.527599
C	-0.000000	-1.435180	-0.000000
H	0.363896	-1.993211	-2.092285
H	0.090328	-9.615985	-0.250435
C	0.000000	0.000000	0.000000
S	0.579852	0.687566	1.510732
C	1.591625	1.895024	0.727629
C	0.583771	0.695758	-1.064665
C	1.475308	1.760606	-0.678287
C	0.542366	0.643841	-2.486150
C	1.355286	1.612843	-3.106916
S	2.154609	2.570627	-1.965735
C	1.522440	1.804778	-4.559972
O	0.924684	1.087757	-5.350277
O	2.349739	2.785679	-5.004375
F	-0.170780	-0.212144	-3.246290
C	2.588082	3.053936	-6.334976
H	3.298799	3.899999	-6.370268
H	1.655291	3.328371	-6.875609
H	3.026021	2.177385	-6.861878
H	2.183053	2.599759	1.321510
$end

$rem
JOBTYPE		SP
EXCHANGE	HF
CORRELATION	pRIMP2
BASIS		cc-pvtz
METHOD		rimp2
AUX_BASIS	rimp2-cc-pvtz
SOLVENT_METHOD	PCM
PURECART	11111
SYMMETRY	false
MEM_TOTAL	110000
SCF_CONVERGENCE = 6
THRESH=10
GUI = 2
$end

$solvent
dielectric 4.90
$end
--------------------------------------------------------------

             Standard Nuclear Orientation (Angstroms)
    I     Atom           X                Y                Z
 ----------------------------------------------------------------
    1      C       0.0937110000    -8.5197410000    -0.2554590000
    2      C      -0.0838690000    -7.6359670000     0.7990360000
    3      S       0.3452600000    -7.6517400000    -1.7894250000
    4      C      -0.0184110000    -6.2618940000     0.4183600000
    5      H      -0.2591690000    -7.9547380000     1.8342940000
    6      C       0.2297010000    -6.0799850000    -0.9877690000
    7      C       0.3026970000    -4.7983820000    -1.5552600000
    8      C      -0.1964590000    -5.1535420000     1.2949920000
    9      C      -0.1276510000    -3.8696260000     0.7264080000
   10      C       0.1235440000    -3.6889270000    -0.6807160000
   11      O      -0.3967060000    -5.4810750000     2.6018520000
   12      O       0.5026730000    -4.4798710000    -2.8681930000
   13      C       1.2629180000    -5.3560260000    -3.6914950000
   14      H       1.4946040000    -4.7904960000    -4.6140800000
   15      H       0.6937380000    -6.2685130000    -3.9741950000
   16      H       2.2127200000    -5.6581870000    -3.1995590000
   17      C      -0.9970160000    -4.5469990000     3.4907430000
   18      H      -1.2266910000    -5.1075640000     4.4166300000
   19      H      -1.9395260000    -4.1314730000     3.0739340000
   20      H      -0.3092140000    -3.7120850000     3.7467940000
   21      C       0.1861330000    -2.3143260000    -1.0582470000
   22      S      -0.2560100000    -2.2954870000     1.5275990000
   23      C       0.0000000000    -1.4351800000     0.0000000000
   24      H       0.3638960000    -1.9932110000    -2.0922850000
   25      H       0.0903280000    -9.6159850000    -0.2504350000
   26      C       0.0000000000     0.0000000000     0.0000000000
   27      S       0.5798520000     0.6875660000     1.5107320000
   28      C       1.5916250000     1.8950240000     0.7276290000
   29      C       0.5837710000     0.6957580000    -1.0646650000
   30      C       1.4753080000     1.7606060000    -0.6782870000
   31      C       0.5423660000     0.6438410000    -2.4861500000
   32      C       1.3552860000     1.6128430000    -3.1069160000
   33      S       2.1546090000     2.5706270000    -1.9657350000
   34      C       1.5224400000     1.8047780000    -4.5599720000
   35      O       0.9246840000     1.0877570000    -5.3502770000
   36      O       2.3497390000     2.7856790000    -5.0043750000
   37      F      -0.1707800000    -0.2121440000    -3.2462900000
   38      C       2.5880820000     3.0539360000    -6.3349760000
   39      H       3.2987990000     3.8999990000    -6.3702680000
   40      H       1.6552910000     3.3283710000    -6.8756090000
   41      H       3.0260210000     2.1773850000    -6.8618780000
   42      H       2.1830530000     2.5997590000     1.3215100000
 ----------------------------------------------------------------

   11   -2754.2670911972      4.54e-07  Convergence criterion met
 Total energy in the final basis set =    -2754.2670911972
        RIMP2         total energy =     -2759.3327857984 a.u.

                    Orbital Energies (a.u.)
 --------------------------------------------------------------

 Alpha MOs
 -- Occupied --
-92.0171 -92.0015 -91.9863 -91.9848 -26.3376 -20.6143 -20.5917 -20.5888
-20.5538 -11.4137 -11.3780 -11.3181 -11.3142 -11.3087 -11.3053 -11.3004
-11.2989 -11.2962 -11.2897 -11.2880 -11.2868 -11.2841 -11.2832 -11.2824
-11.2773 -11.2594 -11.2560 -11.2487 -11.2471  -9.0160  -9.0053  -8.9873
 -8.9847  -6.6967  -6.6960  -6.6956  -6.6865  -6.6858  -6.6845  -6.6683
 -6.6676  -6.6666  -6.6657  -6.6650  -6.6642  -1.6518  -1.4743  -1.4157
 -1.4116  -1.3701  -1.2391  -1.1944  -1.1695  -1.1441  -1.0841  -1.0516
 -1.0493  -1.0313  -1.0007  -0.9930  -0.9747  -0.9594  -0.9493  -0.9385
 -0.8952  -0.8732  -0.8480  -0.8044  -0.7980  -0.7876  -0.7726  -0.7704
 -0.7558  -0.7322  -0.7231  -0.7187  -0.7000  -0.6917  -0.6820  -0.6798
 -0.6750  -0.6620  -0.6580  -0.6509  -0.6266  -0.6183  -0.6145  -0.6093
 -0.6042  -0.5996  -0.5856  -0.5744  -0.5678  -0.5602  -0.5558  -0.5454
 -0.5349  -0.5276  -0.5234  -0.5181  -0.5163  -0.5090  -0.5060  -0.4965
 -0.4871  -0.4840  -0.4757  -0.4671  -0.4632  -0.4617  -0.4575  -0.4241
 -0.3967  -0.3830  -0.3578  -0.3509  -0.3248  -0.2854  -0.2453

          Ground-State Mulliken Net Atomic Charges

     Atom                 Charge (a.u.)
  ----------------------------------------
      1 C                    -0.193244
      2 C                    -0.254413
      3 S                    -0.024195
      4 C                    -0.019197
      5 H                     0.195662
      6 C                    -0.026524
      7 C                     0.241205
      8 C                     0.245218
      9 C                    -0.043535
     10 C                    -0.019732
     11 O                    -0.333473
     12 O                    -0.340732
     13 C                    -0.086306
     14 H                     0.123265
     15 H                     0.091025
     16 H                     0.092830
     17 C                    -0.087881
     18 H                     0.125664
     19 H                     0.094935
     20 H                     0.089076
     21 C                    -0.242077
     22 S                    -0.045540
     23 C                    -0.021055
     24 H                     0.203652
     25 H                     0.205636
     26 C                    -0.023150
     27 S                     0.115940
     28 C                    -0.201997
     29 C                    -0.064782
     30 C                    -0.027232
     31 C                     0.335079
     32 C                    -0.124331
     33 S                     0.062728
     34 C                     0.459153
     35 O                    -0.444668
     36 O                    -0.297454
     37 F                    -0.212590
     38 C                    -0.054520
     39 H                     0.117173
     40 H                     0.085259
     41 H                     0.084949
     42 H                     0.220176
  ----------------------------------------
  Sum of atomic charges =     0.000000

                    Cartesian Multipole Moments
 -----------------------------------------------------------------
    Charge (ESU x 10^10)
                 0.0000
    Dipole Moment (Debye)
         X       3.2568      Y       2.5594      Z       3.1495
       Tot       5.2035
    Quadrupole Moments (Debye-Ang)
        XX    -190.1674     XY       7.8172     YY    -169.0749
        XZ     -16.7284     YZ      -9.2744     ZZ    -183.5425

 Total job time:  303.14s(wall), 9821.95s(cpu)
        *  Thank you very much for using Q-Chem.  Have a nice day.  *
