 Q-Chem 5.4, Q-Chem, Inc., Pleasanton, CA (2021)
 Q-Chem 5.4.0 for Intel X86 EM64T Linux

User input:
--------------------------------------------------------------
$molecule
0 1
C	-0.046574	-8.519741	-0.268090
C	0.326886	-7.635967	0.733920
S	-0.595708	-7.651740	-1.722318
C	0.193236	-6.261894	0.371516
H	0.692700	-7.954738	1.718130
C	-0.294958	-6.079985	-0.970283
C	-0.515487	-4.798382	-1.498243
C	0.477358	-5.153542	1.219725
C	0.252655	-3.869626	0.692914
C	-0.233366	-3.688927	-0.651289
O	0.957369	-5.481075	2.451623
O	-0.998769	-4.479871	-2.735264
C	-0.752029	-5.356026	-3.828387
H	-1.012675	-4.790496	-4.743213
H	-1.386303	-6.268513	-3.788623
H	0.316492	-5.658187	-3.877260
C	0.881930	-4.546999	3.521580
H	1.145969	-5.107564	4.438260
H	-0.142712	-4.131473	3.631868
H	1.605610	-3.712085	3.399425
C	-0.367928	-2.314326	-1.009535
S	0.542088	-2.295487	1.450945
C	0.000000	-1.435180	0.000000
H	-0.730999	-1.993211	-1.993920
H	-0.046991	-9.615985	-0.262047
C	0.000000	0.000000	0.000000
S	0.309721	0.844422	1.510732
C	0.847502	2.325108	0.727629
C	0.310602	0.853460	-1.064665
C	0.784173	2.159014	-0.678287
C	0.289451	0.790512	-2.486150
C	0.721927	1.979112	-3.106916
S	1.145464	3.152519	-1.965735
C	0.813355	2.216642	-4.559972
O	0.496884	1.338418	-5.350277
O	1.255274	3.421340	-5.004375
F	-0.087923	-0.257761	-3.246290
C	1.387494	3.754937	-6.334976
H	1.765978	4.793056	-6.370268
H	0.417095	3.693789	-6.875609
H	2.098820	3.081033	-6.861878
H	1.162229	3.189623	1.321510
$end

$rem
JOBTYPE		SP
EXCHANGE	HF
CORRELATION	pRIMP2
BASIS		cc-pvtz
METHOD		rimp2
AUX_BASIS	rimp2-cc-pvtz
SOLVENT_METHOD	PCM
PURECART	11111
SYMMETRY	false
MEM_TOTAL	110000
SCF_CONVERGENCE = 6
THRESH=10
GUI = 2
$end

$solvent
dielectric 4.90
$end
--------------------------------------------------------------

             Standard Nuclear Orientation (Angstroms)
    I     Atom           X                Y                Z
 ----------------------------------------------------------------
    1      C      -0.0465740000    -8.5197410000    -0.2680900000
    2      C       0.3268860000    -7.6359670000     0.7339200000
    3      S      -0.5957080000    -7.6517400000    -1.7223180000
    4      C       0.1932360000    -6.2618940000     0.3715160000
    5      H       0.6927000000    -7.9547380000     1.7181300000
    6      C      -0.2949580000    -6.0799850000    -0.9702830000
    7      C      -0.5154870000    -4.7983820000    -1.4982430000
    8      C       0.4773580000    -5.1535420000     1.2197250000
    9      C       0.2526550000    -3.8696260000     0.6929140000
   10      C      -0.2333660000    -3.6889270000    -0.6512890000
   11      O       0.9573690000    -5.4810750000     2.4516230000
   12      O      -0.9987690000    -4.4798710000    -2.7352640000
   13      C      -0.7520290000    -5.3560260000    -3.8283870000
   14      H      -1.0126750000    -4.7904960000    -4.7432130000
   15      H      -1.3863030000    -6.2685130000    -3.7886230000
   16      H       0.3164920000    -5.6581870000    -3.8772600000
   17      C       0.8819300000    -4.5469990000     3.5215800000
   18      H       1.1459690000    -5.1075640000     4.4382600000
   19      H      -0.1427120000    -4.1314730000     3.6318680000
   20      H       1.6056100000    -3.7120850000     3.3994250000
   21      C      -0.3679280000    -2.3143260000    -1.0095350000
   22      S       0.5420880000    -2.2954870000     1.4509450000
   23      C       0.0000000000    -1.4351800000     0.0000000000
   24      H      -0.7309990000    -1.9932110000    -1.9939200000
   25      H      -0.0469910000    -9.6159850000    -0.2620470000
   26      C       0.0000000000     0.0000000000     0.0000000000
   27      S       0.3097210000     0.8444220000     1.5107320000
   28      C       0.8475020000     2.3251080000     0.7276290000
   29      C       0.3106020000     0.8534600000    -1.0646650000
   30      C       0.7841730000     2.1590140000    -0.6782870000
   31      C       0.2894510000     0.7905120000    -2.4861500000
   32      C       0.7219270000     1.9791120000    -3.1069160000
   33      S       1.1454640000     3.1525190000    -1.9657350000
   34      C       0.8133550000     2.2166420000    -4.5599720000
   35      O       0.4968840000     1.3384180000    -5.3502770000
   36      O       1.2552740000     3.4213400000    -5.0043750000
   37      F      -0.0879230000    -0.2577610000    -3.2462900000
   38      C       1.3874940000     3.7549370000    -6.3349760000
   39      H       1.7659780000     4.7930560000    -6.3702680000
   40      H       0.4170950000     3.6937890000    -6.8756090000
   41      H       2.0988200000     3.0810330000    -6.8618780000
   42      H       1.1622290000     3.1896230000     1.3215100000
 ----------------------------------------------------------------

   10   -2754.2899718451      7.95e-07  Convergence criterion met
 Total energy in the final basis set =    -2754.2899718451
        RIMP2         total energy =     -2759.3475387205 a.u.

                    Orbital Energies (a.u.)
 --------------------------------------------------------------

 Alpha MOs
 -- Occupied --
-92.0163 -91.9961 -91.9911 -91.9865 -26.3373 -20.6122 -20.5929 -20.5908
-20.5502 -11.4106 -11.3784 -11.3198 -11.3180 -11.3112 -11.2982 -11.2980
-11.2962 -11.2952 -11.2886 -11.2877 -11.2866 -11.2851 -11.2842 -11.2829
-11.2799 -11.2615 -11.2594 -11.2549 -11.2501  -9.0148  -9.0001  -8.9917
 -8.9864  -6.6956  -6.6950  -6.6945  -6.6813  -6.6807  -6.6793  -6.6726
 -6.6719  -6.6709  -6.6674  -6.6667  -6.6659  -1.6512  -1.4720  -1.4169
 -1.4136  -1.3674  -1.2348  -1.1966  -1.1696  -1.1429  -1.0845  -1.0524
 -1.0487  -1.0287  -1.0032  -0.9937  -0.9728  -0.9609  -0.9505  -0.9383
 -0.8967  -0.8703  -0.8512  -0.8059  -0.7961  -0.7885  -0.7720  -0.7700
 -0.7575  -0.7323  -0.7210  -0.7186  -0.7014  -0.6898  -0.6842  -0.6788
 -0.6727  -0.6621  -0.6593  -0.6522  -0.6292  -0.6198  -0.6159  -0.6068
 -0.6008  -0.5955  -0.5884  -0.5763  -0.5687  -0.5601  -0.5550  -0.5467
 -0.5374  -0.5277  -0.5221  -0.5199  -0.5174  -0.5094  -0.5053  -0.4960
 -0.4856  -0.4851  -0.4785  -0.4680  -0.4620  -0.4614  -0.4595  -0.4232
 -0.3980  -0.3856  -0.3591  -0.3507  -0.3249  -0.2855  -0.2474

          Ground-State Mulliken Net Atomic Charges

     Atom                 Charge (a.u.)
  ----------------------------------------
      1 C                    -0.187955
      2 C                    -0.255135
      3 S                    -0.020948
      4 C                    -0.013662
      5 H                     0.196254
      6 C                    -0.028717
      7 C                     0.246314
      8 C                     0.241089
      9 C                    -0.043122
     10 C                    -0.027584
     11 O                    -0.333101
     12 O                    -0.339289
     13 C                    -0.086029
     14 H                     0.124058
     15 H                     0.091015
     16 H                     0.093875
     17 C                    -0.088311
     18 H                     0.125826
     19 H                     0.094846
     20 H                     0.089587
     21 C                    -0.228798
     22 S                    -0.030443
     23 C                    -0.042262
     24 H                     0.202146
     25 H                     0.206569
     26 C                     0.010755
     27 S                     0.088512
     28 C                    -0.225510
     29 C                    -0.059078
     30 C                    -0.022524
     31 C                     0.371335
     32 C                    -0.136608
     33 S                     0.043422
     34 C                     0.457016
     35 O                    -0.450348
     36 O                    -0.297971
     37 F                    -0.213505
     38 C                    -0.054811
     39 H                     0.116698
     40 H                     0.084539
     41 H                     0.084439
     42 H                     0.217412
  ----------------------------------------
  Sum of atomic charges =     0.000000

                    Cartesian Multipole Moments
 -----------------------------------------------------------------
    Charge (ESU x 10^10)
                -0.0000
    Dipole Moment (Debye)
         X       1.5192      Y       1.4981      Z       3.1233
       Tot       3.7825
    Quadrupole Moments (Debye-Ang)
        XX    -199.6530     XY       3.9855     YY    -160.0476
        XZ      -0.8369     YZ      -9.1000     ZZ    -181.2957

 Total job time:  334.27s(wall), 10684.57s(cpu)
        *  Thank you very much for using Q-Chem.  Have a nice day.  *
