 Q-Chem 5.4, Q-Chem, Inc., Pleasanton, CA (2021)
 Q-Chem 5.4.0 for Intel X86 EM64T Linux

User input:
--------------------------------------------------------------
$molecule
0 1
C	0.255929	-8.519741	-0.092419
C	-0.666007	-7.635967	0.449364
S	1.592708	-7.651740	-0.885736
C	-0.332317	-6.261894	0.254813
H	-1.571741	-7.954738	0.980526
C	0.904324	-6.079985	-0.458965
C	1.385968	-4.798382	-0.767823
C	-1.118303	-5.153542	0.681909
C	-0.638514	-3.869626	0.369139
C	0.600871	-3.688927	-0.342916
O	-2.248132	-5.481075	1.368544
O	2.520275	-4.479871	-1.458570
C	3.639637	-5.356026	-1.405396
H	4.495304	-4.790496	-1.820940
H	3.490336	-6.268513	-2.023129
H	3.873314	-5.658187	-0.361595
C	-3.314934	-4.546999	1.480048
H	-4.171837	-5.107564	1.899255
H	-3.601473	-4.131473	0.490123
H	-3.068969	-3.712085	2.171521
C	0.930308	-2.314326	-0.537642
S	-1.334769	-2.295487	0.785807
C	0.000000	-1.435180	0.000000
H	1.836691	-1.993211	-1.066134
H	0.249906	-9.615985	-0.091781
C	0.000000	0.000000	0.000000
S	0.309721	0.844422	1.510732
C	0.847502	2.325108	0.727629
C	0.310602	0.853460	-1.064665
C	0.784173	2.159014	-0.678287
C	0.289451	0.790512	-2.486150
C	0.721927	1.979112	-3.106916
S	1.145464	3.152519	-1.965735
C	0.813355	2.216642	-4.559972
O	0.496884	1.338418	-5.350277
O	1.255274	3.421340	-5.004375
F	-0.087923	-0.257761	-3.246290
C	1.387494	3.754937	-6.334976
H	1.765978	4.793056	-6.370268
H	0.417095	3.693789	-6.875609
H	2.098820	3.081033	-6.861878
H	1.162229	3.189623	1.321510
$end

$rem
JOBTYPE		SP
EXCHANGE	HF
CORRELATION	pRIMP2
BASIS		cc-pvtz
METHOD		rimp2
AUX_BASIS	rimp2-cc-pvtz
SOLVENT_METHOD	PCM
PURECART	11111
SYMMETRY	false
MEM_TOTAL	110000
SCF_CONVERGENCE = 6
THRESH=10
GUI = 2
$end

$solvent
dielectric 4.90
$end
--------------------------------------------------------------

             Standard Nuclear Orientation (Angstroms)
    I     Atom           X                Y                Z
 ----------------------------------------------------------------
    1      C       0.2559290000    -8.5197410000    -0.0924190000
    2      C      -0.6660070000    -7.6359670000     0.4493640000
    3      S       1.5927080000    -7.6517400000    -0.8857360000
    4      C      -0.3323170000    -6.2618940000     0.2548130000
    5      H      -1.5717410000    -7.9547380000     0.9805260000
    6      C       0.9043240000    -6.0799850000    -0.4589650000
    7      C       1.3859680000    -4.7983820000    -0.7678230000
    8      C      -1.1183030000    -5.1535420000     0.6819090000
    9      C      -0.6385140000    -3.8696260000     0.3691390000
   10      C       0.6008710000    -3.6889270000    -0.3429160000
   11      O      -2.2481320000    -5.4810750000     1.3685440000
   12      O       2.5202750000    -4.4798710000    -1.4585700000
   13      C       3.6396370000    -5.3560260000    -1.4053960000
   14      H       4.4953040000    -4.7904960000    -1.8209400000
   15      H       3.4903360000    -6.2685130000    -2.0231290000
   16      H       3.8733140000    -5.6581870000    -0.3615950000
   17      C      -3.3149340000    -4.5469990000     1.4800480000
   18      H      -4.1718370000    -5.1075640000     1.8992550000
   19      H      -3.6014730000    -4.1314730000     0.4901230000
   20      H      -3.0689690000    -3.7120850000     2.1715210000
   21      C       0.9303080000    -2.3143260000    -0.5376420000
   22      S      -1.3347690000    -2.2954870000     0.7858070000
   23      C       0.0000000000    -1.4351800000     0.0000000000
   24      H       1.8366910000    -1.9932110000    -1.0661340000
   25      H       0.2499060000    -9.6159850000    -0.0917810000
   26      C       0.0000000000     0.0000000000     0.0000000000
   27      S       0.3097210000     0.8444220000     1.5107320000
   28      C       0.8475020000     2.3251080000     0.7276290000
   29      C       0.3106020000     0.8534600000    -1.0646650000
   30      C       0.7841730000     2.1590140000    -0.6782870000
   31      C       0.2894510000     0.7905120000    -2.4861500000
   32      C       0.7219270000     1.9791120000    -3.1069160000
   33      S       1.1454640000     3.1525190000    -1.9657350000
   34      C       0.8133550000     2.2166420000    -4.5599720000
   35      O       0.4968840000     1.3384180000    -5.3502770000
   36      O       1.2552740000     3.4213400000    -5.0043750000
   37      F      -0.0879230000    -0.2577610000    -3.2462900000
   38      C       1.3874940000     3.7549370000    -6.3349760000
   39      H       1.7659780000     4.7930560000    -6.3702680000
   40      H       0.4170950000     3.6937890000    -6.8756090000
   41      H       2.0988200000     3.0810330000    -6.8618780000
   42      H       1.1622290000     3.1896230000     1.3215100000
 ----------------------------------------------------------------

   10   -2754.2902838571      8.39e-07  Convergence criterion met
 Total energy in the final basis set =    -2754.2902838571
        RIMP2         total energy =     -2759.3451011245 a.u.

                    Orbital Energies (a.u.)
 --------------------------------------------------------------

 Alpha MOs
 -- Occupied --
-92.0158 -91.9953 -91.9892 -91.9864 -26.3337 -20.6122 -20.5924 -20.5914
-20.5504 -11.4106 -11.3772 -11.3192 -11.3183 -11.3068 -11.2982 -11.2974
-11.2962 -11.2943 -11.2885 -11.2871 -11.2863 -11.2860 -11.2841 -11.2837
-11.2800 -11.2611 -11.2592 -11.2582 -11.2500  -9.0141  -8.9993  -8.9896
 -8.9863  -6.6948  -6.6942  -6.6938  -6.6806  -6.6799  -6.6786  -6.6706
 -6.6699  -6.6689  -6.6673  -6.6667  -6.6658  -1.6466  -1.4720  -1.4165
 -1.4142  -1.3673  -1.2340  -1.1960  -1.1685  -1.1422  -1.0841  -1.0521
 -1.0478  -1.0279  -1.0022  -0.9932  -0.9716  -0.9611  -0.9504  -0.9386
 -0.8958  -0.8695  -0.8499  -0.8036  -0.7925  -0.7879  -0.7730  -0.7703
 -0.7577  -0.7326  -0.7183  -0.7149  -0.7016  -0.6891  -0.6829  -0.6786
 -0.6714  -0.6607  -0.6590  -0.6526  -0.6298  -0.6200  -0.6167  -0.6066
 -0.6027  -0.5951  -0.5825  -0.5768  -0.5711  -0.5645  -0.5529  -0.5518
 -0.5345  -0.5263  -0.5249  -0.5162  -0.5143  -0.5079  -0.5021  -0.4961
 -0.4894  -0.4847  -0.4751  -0.4681  -0.4617  -0.4614  -0.4603  -0.4112
 -0.3979  -0.3873  -0.3589  -0.3484  -0.3189  -0.2876  -0.2557

          Ground-State Mulliken Net Atomic Charges

     Atom                 Charge (a.u.)
  ----------------------------------------
      1 C                    -0.187910
      2 C                    -0.254122
      3 S                    -0.021429
      4 C                    -0.015364
      5 H                     0.196368
      6 C                    -0.029219
      7 C                     0.243027
      8 C                     0.243872
      9 C                    -0.050283
     10 C                    -0.022239
     11 O                    -0.333449
     12 O                    -0.339400
     13 C                    -0.085608
     14 H                     0.122774
     15 H                     0.091201
     16 H                     0.093726
     17 C                    -0.086736
     18 H                     0.125022
     19 H                     0.095283
     20 H                     0.089161
     21 C                    -0.207143
     22 S                    -0.007547
     23 C                    -0.013120
     24 H                     0.199618
     25 H                     0.206540
     26 C                    -0.051166
     27 S                     0.119993
     28 C                    -0.231613
     29 C                    -0.120166
     30 C                    -0.005254
     31 C                     0.397351
     32 C                    -0.152883
     33 S                     0.040935
     34 C                     0.460915
     35 O                    -0.449077
     36 O                    -0.297883
     37 F                    -0.210815
     38 C                    -0.054896
     39 H                     0.116585
     40 H                     0.084766
     41 H                     0.084528
     42 H                     0.215657
  ----------------------------------------
  Sum of atomic charges =     0.000000

                    Cartesian Multipole Moments
 -----------------------------------------------------------------
    Charge (ESU x 10^10)
                 0.0000
    Dipole Moment (Debye)
         X       1.4011      Y       1.5841      Z       3.4433
       Tot       4.0409
    Quadrupole Moments (Debye-Ang)
        XX    -176.6353     XY       4.0837     YY    -160.3224
        XZ     -10.7498     YZ     -11.1505     ZZ    -204.3213

 Total job time:  355.69s(wall), 11987.99s(cpu)
        *  Thank you very much for using Q-Chem.  Have a nice day.  *
