 Q-Chem 5.4, Q-Chem, Inc., Pleasanton, CA (2021)
 Q-Chem 5.4.0 for Intel X86 EM64T Linux

User input:
--------------------------------------------------------------
$molecule
0 1
C	0.694800	-8.491498	0.267851
C	0.609575	-7.611804	-0.801461
S	0.637720	-7.625175	1.822194
C	0.491451	-6.242817	-0.415201
H	0.630252	-7.929984	-1.851431
C	0.475427	-6.061615	1.012650
C	0.390283	-4.782565	1.584194
C	0.417881	-5.136668	-1.309433
C	0.336834	-3.854939	-0.737539
C	0.318062	-3.675191	0.691828
O	0.416812	-5.465546	-2.631211
O	0.393456	-4.462560	2.911907
C	-0.133608	-5.388174	3.854716
H	-0.250600	-4.830719	4.803517
H	0.553224	-6.244057	4.034285
H	-1.124185	-5.778154	3.535185
C	0.770575	-4.496951	-3.610841
H	0.884590	-5.049682	-4.562544
H	1.731122	-3.995801	-3.364029
H	-0.021261	-3.728125	-3.743566
C	0.202163	-2.305480	1.074491
S	0.186971	-2.287897	-1.548848
C	0.125084	-1.429719	0.000000
H	0.178654	-1.985194	2.123688
H	0.792793	-9.583356	0.262315
C	0.000000	0.000000	0.000000
S	0.002233	0.899428	1.510732
C	0.001157	2.474749	0.727629
C	-0.000030	0.908223	-1.064665
C	-0.001545	2.297013	-0.678287
C	0.001624	0.841837	-2.486150
C	0.001494	2.106670	-3.106916
S	-0.001841	3.354171	-1.965735
C	0.006168	2.361146	-4.559972
O	0.009152	1.427646	-5.350277
O	0.009405	3.644337	-5.004375
F	0.005539	-0.272288	-3.246290
C	0.019554	4.003038	-6.334976
H	0.020155	5.108000	-6.370268
H	-0.871409	3.613681	-6.875609
H	0.918470	3.613062	-6.861878
H	0.001222	3.394771	1.321510
$end

$rem
JOBTYPE		SP
EXCHANGE	HF
CORRELATION	pRIMP2
BASIS		cc-pvtz
METHOD		rimp2
AUX_BASIS	rimp2-cc-pvtz
SOLVENT_METHOD	PCM
PURECART	11111
SYMMETRY	false
MEM_TOTAL	110000
SCF_CONVERGENCE = 6
THRESH=10
GUI = 2
$end

$solvent
dielectric 4.90
$end
--------------------------------------------------------------

             Standard Nuclear Orientation (Angstroms)
    I     Atom           X                Y                Z
 ----------------------------------------------------------------
    1      C       0.6948000000    -8.4914980000     0.2678510000
    2      C       0.6095750000    -7.6118040000    -0.8014610000
    3      S       0.6377200000    -7.6251750000     1.8221940000
    4      C       0.4914510000    -6.2428170000    -0.4152010000
    5      H       0.6302520000    -7.9299840000    -1.8514310000
    6      C       0.4754270000    -6.0616150000     1.0126500000
    7      C       0.3902830000    -4.7825650000     1.5841940000
    8      C       0.4178810000    -5.1366680000    -1.3094330000
    9      C       0.3368340000    -3.8549390000    -0.7375390000
   10      C       0.3180620000    -3.6751910000     0.6918280000
   11      O       0.4168120000    -5.4655460000    -2.6312110000
   12      O       0.3934560000    -4.4625600000     2.9119070000
   13      C      -0.1336080000    -5.3881740000     3.8547160000
   14      H      -0.2506000000    -4.8307190000     4.8035170000
   15      H       0.5532240000    -6.2440570000     4.0342850000
   16      H      -1.1241850000    -5.7781540000     3.5351850000
   17      C       0.7705750000    -4.4969510000    -3.6108410000
   18      H       0.8845900000    -5.0496820000    -4.5625440000
   19      H       1.7311220000    -3.9958010000    -3.3640290000
   20      H      -0.0212610000    -3.7281250000    -3.7435660000
   21      C       0.2021630000    -2.3054800000     1.0744910000
   22      S       0.1869710000    -2.2878970000    -1.5488480000
   23      C       0.1250840000    -1.4297190000     0.0000000000
   24      H       0.1786540000    -1.9851940000     2.1236880000
   25      H       0.7927930000    -9.5833560000     0.2623150000
   26      C       0.0000000000     0.0000000000     0.0000000000
   27      S       0.0022330000     0.8994280000     1.5107320000
   28      C       0.0011570000     2.4747490000     0.7276290000
   29      C      -0.0000300000     0.9082230000    -1.0646650000
   30      C      -0.0015450000     2.2970130000    -0.6782870000
   31      C       0.0016240000     0.8418370000    -2.4861500000
   32      C       0.0014940000     2.1066700000    -3.1069160000
   33      S      -0.0018410000     3.3541710000    -1.9657350000
   34      C       0.0061680000     2.3611460000    -4.5599720000
   35      O       0.0091520000     1.4276460000    -5.3502770000
   36      O       0.0094050000     3.6443370000    -5.0043750000
   37      F       0.0055390000    -0.2722880000    -3.2462900000
   38      C       0.0195540000     4.0030380000    -6.3349760000
   39      H       0.0201550000     5.1080000000    -6.3702680000
   40      H      -0.8714090000     3.6136810000    -6.8756090000
   41      H       0.9184700000     3.6130620000    -6.8618780000
   42      H       0.0012220000     3.3947710000     1.3215100000
 ----------------------------------------------------------------

   10   -2754.2919388640      8.56e-07  Convergence criterion met
 Total energy in the final basis set =    -2754.2919388640
        RIMP2         total energy =     -2759.3484512510 a.u.

                    Orbital Energies (a.u.)
 --------------------------------------------------------------

 Alpha MOs
 -- Occupied --
-92.0145 -91.9949 -91.9865 -91.9853 -26.3365 -20.6121 -20.5921 -20.5913
-20.5499 -11.4103 -11.3792 -11.3185 -11.3184 -11.3146 -11.2974 -11.2973
-11.2971 -11.2928 -11.2886 -11.2866 -11.2854 -11.2843 -11.2840 -11.2824
-11.2801 -11.2617 -11.2596 -11.2593 -11.2500  -9.0130  -8.9989  -8.9864
 -8.9863  -6.6938  -6.6932  -6.6927  -6.6802  -6.6795  -6.6782  -6.6674
 -6.6670  -6.6668  -6.6664  -6.6659  -6.6652  -1.6525  -1.4718  -1.4157
 -1.4145  -1.3672  -1.2343  -1.1963  -1.1692  -1.1421  -1.0848  -1.0522
 -1.0483  -1.0288  -1.0024  -0.9941  -0.9726  -0.9607  -0.9500  -0.9381
 -0.8960  -0.8697  -0.8526  -0.8104  -0.7965  -0.7872  -0.7752  -0.7631
 -0.7583  -0.7327  -0.7212  -0.7195  -0.7007  -0.6888  -0.6845  -0.6787
 -0.6741  -0.6622  -0.6586  -0.6524  -0.6288  -0.6197  -0.6163  -0.6066
 -0.6016  -0.5955  -0.5889  -0.5712  -0.5690  -0.5650  -0.5597  -0.5527
 -0.5301  -0.5269  -0.5238  -0.5192  -0.5148  -0.5090  -0.5017  -0.4952
 -0.4861  -0.4824  -0.4805  -0.4644  -0.4615  -0.4607  -0.4578  -0.4249
 -0.3957  -0.3868  -0.3607  -0.3499  -0.3254  -0.2835  -0.2466

          Ground-State Mulliken Net Atomic Charges

     Atom                 Charge (a.u.)
  ----------------------------------------
      1 C                    -0.187255
      2 C                    -0.254668
      3 S                    -0.023070
      4 C                    -0.013669
      5 H                     0.196749
      6 C                    -0.029605
      7 C                     0.245082
      8 C                     0.242849
      9 C                    -0.038659
     10 C                    -0.024551
     11 O                    -0.333649
     12 O                    -0.340432
     13 C                    -0.085705
     14 H                     0.122407
     15 H                     0.091316
     16 H                     0.094276
     17 C                    -0.089245
     18 H                     0.125798
     19 H                     0.094503
     20 H                     0.091645
     21 C                    -0.248867
     22 S                    -0.028396
     23 C                     0.021448
     24 H                     0.186150
     25 H                     0.206630
     26 C                     0.015760
     27 S                     0.089363
     28 C                    -0.237504
     29 C                    -0.092755
     30 C                    -0.024976
     31 C                     0.378024
     32 C                    -0.132981
     33 S                     0.035323
     34 C                     0.461267
     35 O                    -0.451792
     36 O                    -0.297804
     37 F                    -0.210435
     38 C                    -0.055075
     39 H                     0.116788
     40 H                     0.084502
     41 H                     0.084367
     42 H                     0.216846
  ----------------------------------------
  Sum of atomic charges =     0.000000

                    Cartesian Multipole Moments
 -----------------------------------------------------------------
    Charge (ESU x 10^10)
                 0.0000
    Dipole Moment (Debye)
         X      -0.0807      Y       1.5363      Z       2.9522
       Tot       3.3290
    Quadrupole Moments (Debye-Ang)
        XX    -200.7322     XY      -0.6932     YY    -159.1314
        XZ      -5.6916     YZ     -11.1938     ZZ    -182.1834

 Total job time:  287.33s(wall), 9394.17s(cpu)
        *  Thank you very much for using Q-Chem.  Have a nice day.  *
