 Q-Chem 5.4, Q-Chem, Inc., Pleasanton, CA (2021)
 Q-Chem 5.4.0 for Intel X86 EM64T Linux

User input:
--------------------------------------------------------------
$molecule
0 1
C	-0.267851	-8.519741	-0.047927
C	0.801461	-7.635967	-0.056157
S	-1.822194	-7.651740	-0.029285
C	0.415201	-6.261894	-0.054516
H	1.851431	-7.954738	-0.063290
C	-1.012650	-6.079985	-0.054687
C	-1.584194	-4.798382	-0.028030
C	1.309433	-5.153542	-0.031399
C	0.737539	-3.869626	-0.000427
C	-0.691828	-3.688927	-0.003462
O	2.631211	-5.481075	-0.061128
O	-2.911907	-4.479871	0.003021
C	-3.854716	-5.356026	-0.602710
H	-4.803517	-4.790496	-0.670671
H	-4.034285	-6.268513	0.006913
H	-3.535185	-5.658187	-1.623507
C	3.610841	-4.546999	0.375708
H	4.562544	-5.107564	0.441115
H	3.364029	-4.131473	1.376277
H	3.743566	-3.712085	-0.346107
C	-1.074491	-2.314326	0.000458
S	1.548848	-2.295487	-0.013144
C	-0.000000	-1.435180	-0.000000
H	-2.123688	-1.993211	0.004953
H	-0.262315	-9.615985	-0.045468
C	0.000000	0.000000	0.000000
S	0.158383	0.885376	1.510732
C	0.430876	2.436951	0.727629
C	0.157682	0.894430	-1.064665
C	0.397351	2.262384	-0.678287
C	0.147783	0.828765	-2.486150
C	0.367291	2.074406	-3.106916
S	0.580633	3.303533	-1.965735
C	0.416083	2.324204	-4.559972
O	0.256921	1.404367	-5.350277
O	0.642094	3.587338	-5.004375
F	-0.041828	-0.269113	-3.246290
C	0.714377	3.938827	-6.334976
H	0.906844	5.026898	-6.370268
H	-0.230661	3.710099	-6.875609
H	1.531918	3.398681	-6.861878
H	0.590699	3.342984	1.321510
$end

$rem
JOBTYPE		SP
EXCHANGE	HF
CORRELATION	pRIMP2
BASIS		cc-pvtz
METHOD		rimp2
AUX_BASIS	rimp2-cc-pvtz
SOLVENT_METHOD	PCM
PURECART	11111
SYMMETRY	false
MEM_TOTAL	110000
SCF_CONVERGENCE = 6
THRESH=10
GUI = 2
$end

$solvent
dielectric 4.90
$end
--------------------------------------------------------------

             Standard Nuclear Orientation (Angstroms)
    I     Atom           X                Y                Z
 ----------------------------------------------------------------
    1      C      -0.2678510000    -8.5197410000    -0.0479270000
    2      C       0.8014610000    -7.6359670000    -0.0561570000
    3      S      -1.8221940000    -7.6517400000    -0.0292850000
    4      C       0.4152010000    -6.2618940000    -0.0545160000
    5      H       1.8514310000    -7.9547380000    -0.0632900000
    6      C      -1.0126500000    -6.0799850000    -0.0546870000
    7      C      -1.5841940000    -4.7983820000    -0.0280300000
    8      C       1.3094330000    -5.1535420000    -0.0313990000
    9      C       0.7375390000    -3.8696260000    -0.0004270000
   10      C      -0.6918280000    -3.6889270000    -0.0034620000
   11      O       2.6312110000    -5.4810750000    -0.0611280000
   12      O      -2.9119070000    -4.4798710000     0.0030210000
   13      C      -3.8547160000    -5.3560260000    -0.6027100000
   14      H      -4.8035170000    -4.7904960000    -0.6706710000
   15      H      -4.0342850000    -6.2685130000     0.0069130000
   16      H      -3.5351850000    -5.6581870000    -1.6235070000
   17      C       3.6108410000    -4.5469990000     0.3757080000
   18      H       4.5625440000    -5.1075640000     0.4411150000
   19      H       3.3640290000    -4.1314730000     1.3762770000
   20      H       3.7435660000    -3.7120850000    -0.3461070000
   21      C      -1.0744910000    -2.3143260000     0.0004580000
   22      S       1.5488480000    -2.2954870000    -0.0131440000
   23      C       0.0000000000    -1.4351800000     0.0000000000
   24      H      -2.1236880000    -1.9932110000     0.0049530000
   25      H      -0.2623150000    -9.6159850000    -0.0454680000
   26      C       0.0000000000     0.0000000000     0.0000000000
   27      S       0.1583830000     0.8853760000     1.5107320000
   28      C       0.4308760000     2.4369510000     0.7276290000
   29      C       0.1576820000     0.8944300000    -1.0646650000
   30      C       0.3973510000     2.2623840000    -0.6782870000
   31      C       0.1477830000     0.8287650000    -2.4861500000
   32      C       0.3672910000     2.0744060000    -3.1069160000
   33      S       0.5806330000     3.3035330000    -1.9657350000
   34      C       0.4160830000     2.3242040000    -4.5599720000
   35      O       0.2569210000     1.4043670000    -5.3502770000
   36      O       0.6420940000     3.5873380000    -5.0043750000
   37      F      -0.0418280000    -0.2691130000    -3.2462900000
   38      C       0.7143770000     3.9388270000    -6.3349760000
   39      H       0.9068440000     5.0268980000    -6.3702680000
   40      H      -0.2306610000     3.7100990000    -6.8756090000
   41      H       1.5319180000     3.3986810000    -6.8618780000
   42      H       0.5906990000     3.3429840000     1.3215100000
 ----------------------------------------------------------------

   10   -2754.2934890480      8.76e-07  Convergence criterion met
 Total energy in the final basis set =    -2754.2934890480
        RIMP2         total energy =     -2759.3460464686 a.u.

                    Orbital Energies (a.u.)
 --------------------------------------------------------------

 Alpha MOs
 -- Occupied --
-92.0160 -91.9944 -91.9899 -91.9867 -26.3337 -20.6120 -20.5924 -20.5919
-20.5500 -11.4103 -11.3769 -11.3193 -11.3189 -11.3084 -11.2974 -11.2959
-11.2939 -11.2926 -11.2884 -11.2872 -11.2868 -11.2861 -11.2841 -11.2828
-11.2804 -11.2607 -11.2598 -11.2593 -11.2501  -9.0141  -8.9984  -8.9902
 -8.9866  -6.6948  -6.6942  -6.6938  -6.6797  -6.6790  -6.6777  -6.6712
 -6.6705  -6.6695  -6.6675  -6.6669  -6.6661  -1.6465  -1.4717  -1.4166
 -1.4146  -1.3670  -1.2330  -1.1960  -1.1682  -1.1416  -1.0839  -1.0523
 -1.0471  -1.0274  -1.0025  -0.9931  -0.9710  -0.9615  -0.9506  -0.9382
 -0.8960  -0.8690  -0.8507  -0.8048  -0.7904  -0.7883  -0.7736  -0.7685
 -0.7584  -0.7329  -0.7178  -0.7148  -0.7014  -0.6886  -0.6832  -0.6784
 -0.6709  -0.6603  -0.6593  -0.6528  -0.6309  -0.6202  -0.6172  -0.6063
 -0.6020  -0.5943  -0.5825  -0.5795  -0.5673  -0.5651  -0.5562  -0.5507
 -0.5357  -0.5260  -0.5243  -0.5161  -0.5143  -0.5079  -0.5012  -0.4939
 -0.4911  -0.4838  -0.4757  -0.4687  -0.4617  -0.4611  -0.4607  -0.4052
 -0.4011  -0.3875  -0.3574  -0.3488  -0.3140  -0.2896  -0.2599

          Ground-State Mulliken Net Atomic Charges

     Atom                 Charge (a.u.)
  ----------------------------------------
      1 C                    -0.186660
      2 C                    -0.254834
      3 S                    -0.021633
      4 C                    -0.012015
      5 H                     0.196658
      6 C                    -0.028292
      7 C                     0.248471
      8 C                     0.239115
      9 C                    -0.043175
     10 C                    -0.032175
     11 O                    -0.333000
     12 O                    -0.339718
     13 C                    -0.085625
     14 H                     0.122764
     15 H                     0.090795
     16 H                     0.094743
     17 C                    -0.086463
     18 H                     0.124876
     19 H                     0.094179
     20 H                     0.090295
     21 C                    -0.212722
     22 S                     0.001869
     23 C                    -0.063882
     24 H                     0.196532
     25 H                     0.206689
     26 C                    -0.003972
     27 S                     0.120351
     28 C                    -0.239068
     29 C                    -0.099352
     30 C                    -0.001898
     31 C                     0.389340
     32 C                    -0.158630
     33 S                     0.038427
     34 C                     0.460529
     35 O                    -0.449750
     36 O                    -0.297760
     37 F                    -0.210485
     38 C                    -0.054948
     39 H                     0.116518
     40 H                     0.084565
     41 H                     0.084536
     42 H                     0.214809
  ----------------------------------------
  Sum of atomic charges =     0.000000

                    Cartesian Multipole Moments
 -----------------------------------------------------------------
    Charge (ESU x 10^10)
                 0.0000
    Dipole Moment (Debye)
         X       0.6689      Y       1.4580      Z       3.0105
       Tot       3.4112
    Quadrupole Moments (Debye-Ang)
        XX    -177.2263     XY       3.2964     YY    -158.5006
        XZ       3.7417     YZ      -9.0374     ZZ    -205.2314

 Total job time:  355.86s(wall), 9876.70s(cpu)
        *  Thank you very much for using Q-Chem.  Have a nice day.  *
