 Q-Chem 5.4, Q-Chem, Inc., Pleasanton, CA (2021)
 Q-Chem 5.4.0 for Intel X86 EM64T Linux

User input:
--------------------------------------------------------------
$molecule
0 1
C	0.235306	-8.519741	0.136647
C	-0.772334	-7.635967	-0.221346
S	1.702286	-7.651740	0.650746
C	-0.408807	-6.261894	-0.090779
H	-1.761423	-7.954738	-0.573754
C	0.932876	-6.079985	0.397735
C	1.479069	-4.798382	0.568166
C	-1.241204	-5.153542	-0.418347
C	-0.693206	-3.869626	-0.251852
C	0.648921	-3.688927	0.239872
O	-2.493437	-5.481075	-0.842486
O	2.737331	-4.479871	0.993092
C	3.416110	-5.356026	1.884752
H	4.284447	-4.790496	2.273124
H	3.793352	-6.268513	1.373310
H	2.766716	-5.658187	2.734702
C	-3.264581	-4.546999	-1.588030
H	-4.136519	-5.107564	-1.974995
H	-2.690439	-4.131473	-2.443843
H	-3.636177	-3.712085	-0.955140
C	1.009848	-2.314326	0.367068
S	-1.459936	-2.295487	-0.517386
C	0.000000	-1.435180	0.000000
H	1.997308	-1.993211	0.721689
H	0.230945	-9.615985	0.132444
C	0.000000	0.000000	0.000000
S	0.080615	0.895811	1.510732
C	0.216842	2.465231	0.727629
C	0.079127	0.904769	-1.064665
C	0.198659	2.288406	-0.678287
C	0.074988	0.838492	-2.486150
C	0.185097	2.098524	-3.106916
S	0.290501	3.341568	-1.965735
C	0.211932	2.351623	-4.559972
O	0.133545	1.421416	-5.350277
O	0.326994	3.629649	-5.004375
F	-0.018214	-0.271734	-3.246290
C	0.368367	3.986101	-6.334976
H	0.465270	5.086806	-6.370268
H	-0.553140	3.675878	-6.875609
H	1.229874	3.519263	-6.861878
H	0.297091	3.381746	1.321510
$end

$rem
JOBTYPE		SP
EXCHANGE	HF
CORRELATION	pRIMP2
BASIS		cc-pvtz
METHOD		rimp2
AUX_BASIS	rimp2-cc-pvtz
SOLVENT_METHOD	PCM
PURECART	11111
SYMMETRY	false
MEM_TOTAL	110000
SCF_CONVERGENCE = 6
THRESH=10
GUI = 2
$end

$solvent
dielectric 4.90
$end
--------------------------------------------------------------

             Standard Nuclear Orientation (Angstroms)
    I     Atom           X                Y                Z
 ----------------------------------------------------------------
    1      C       0.2353060000    -8.5197410000     0.1366470000
    2      C      -0.7723340000    -7.6359670000    -0.2213460000
    3      S       1.7022860000    -7.6517400000     0.6507460000
    4      C      -0.4088070000    -6.2618940000    -0.0907790000
    5      H      -1.7614230000    -7.9547380000    -0.5737540000
    6      C       0.9328760000    -6.0799850000     0.3977350000
    7      C       1.4790690000    -4.7983820000     0.5681660000
    8      C      -1.2412040000    -5.1535420000    -0.4183470000
    9      C      -0.6932060000    -3.8696260000    -0.2518520000
   10      C       0.6489210000    -3.6889270000     0.2398720000
   11      O      -2.4934370000    -5.4810750000    -0.8424860000
   12      O       2.7373310000    -4.4798710000     0.9930920000
   13      C       3.4161100000    -5.3560260000     1.8847520000
   14      H       4.2844470000    -4.7904960000     2.2731240000
   15      H       3.7933520000    -6.2685130000     1.3733100000
   16      H       2.7667160000    -5.6581870000     2.7347020000
   17      C      -3.2645810000    -4.5469990000    -1.5880300000
   18      H      -4.1365190000    -5.1075640000    -1.9749950000
   19      H      -2.6904390000    -4.1314730000    -2.4438430000
   20      H      -3.6361770000    -3.7120850000    -0.9551400000
   21      C       1.0098480000    -2.3143260000     0.3670680000
   22      S      -1.4599360000    -2.2954870000    -0.5173860000
   23      C       0.0000000000    -1.4351800000     0.0000000000
   24      H       1.9973080000    -1.9932110000     0.7216890000
   25      H       0.2309450000    -9.6159850000     0.1324440000
   26      C       0.0000000000     0.0000000000     0.0000000000
   27      S       0.0806150000     0.8958110000     1.5107320000
   28      C       0.2168420000     2.4652310000     0.7276290000
   29      C       0.0791270000     0.9047690000    -1.0646650000
   30      C       0.1986590000     2.2884060000    -0.6782870000
   31      C       0.0749880000     0.8384920000    -2.4861500000
   32      C       0.1850970000     2.0985240000    -3.1069160000
   33      S       0.2905010000     3.3415680000    -1.9657350000
   34      C       0.2119320000     2.3516230000    -4.5599720000
   35      O       0.1335450000     1.4214160000    -5.3502770000
   36      O       0.3269940000     3.6296490000    -5.0043750000
   37      F      -0.0182140000    -0.2717340000    -3.2462900000
   38      C       0.3683670000     3.9861010000    -6.3349760000
   39      H       0.4652700000     5.0868060000    -6.3702680000
   40      H      -0.5531400000     3.6758780000    -6.8756090000
   41      H       1.2298740000     3.5192630000    -6.8618780000
   42      H       0.2970910000     3.3817460000     1.3215100000
 ----------------------------------------------------------------

   10   -2754.2955286076      8.79e-07  Convergence criterion met
 Total energy in the final basis set =    -2754.2955286076
        RIMP2         total energy =     -2759.3480908652 a.u.

                    Orbital Energies (a.u.)
 --------------------------------------------------------------

 Alpha MOs
 -- Occupied --
-92.0167 -91.9943 -91.9897 -91.9867 -26.3339 -20.6118 -20.5922 -20.5921
-20.5498 -11.4100 -11.3771 -11.3193 -11.3191 -11.3101 -11.2968 -11.2961
-11.2942 -11.2930 -11.2883 -11.2868 -11.2866 -11.2866 -11.2843 -11.2824
-11.2804 -11.2614 -11.2600 -11.2598 -11.2502  -9.0147  -8.9983  -8.9900
 -8.9866  -6.6954  -6.6948  -6.6944  -6.6796  -6.6789  -6.6776  -6.6709
 -6.6702  -6.6693  -6.6676  -6.6670  -6.6661  -1.6468  -1.4716  -1.4164
 -1.4148  -1.3669  -1.2329  -1.1963  -1.1684  -1.1416  -1.0842  -1.0524
 -1.0472  -1.0275  -1.0026  -0.9934  -0.9711  -0.9615  -0.9505  -0.9385
 -0.8959  -0.8689  -0.8510  -0.8061  -0.7900  -0.7885  -0.7745  -0.7672
 -0.7586  -0.7330  -0.7179  -0.7150  -0.7012  -0.6884  -0.6835  -0.6783
 -0.6709  -0.6609  -0.6588  -0.6529  -0.6309  -0.6203  -0.6170  -0.6062
 -0.6016  -0.5942  -0.5837  -0.5768  -0.5708  -0.5672  -0.5555  -0.5517
 -0.5329  -0.5265  -0.5238  -0.5167  -0.5146  -0.5077  -0.5015  -0.4934
 -0.4909  -0.4838  -0.4778  -0.4678  -0.4616  -0.4608  -0.4606  -0.4081
 -0.4002  -0.3873  -0.3579  -0.3487  -0.3165  -0.2884  -0.2582

          Ground-State Mulliken Net Atomic Charges

     Atom                 Charge (a.u.)
  ----------------------------------------
      1 C                    -0.186968
      2 C                    -0.254232
      3 S                    -0.021493
      4 C                    -0.013192
      5 H                     0.196623
      6 C                    -0.028254
      7 C                     0.245606
      8 C                     0.241155
      9 C                    -0.048125
     10 C                    -0.032657
     11 O                    -0.333427
     12 O                    -0.339905
     13 C                    -0.085778
     14 H                     0.122698
     15 H                     0.091328
     16 H                     0.094050
     17 C                    -0.086860
     18 H                     0.124583
     19 H                     0.096216
     20 H                     0.089455
     21 C                    -0.215378
     22 S                     0.002741
     23 C                    -0.037149
     24 H                     0.198573
     25 H                     0.206687
     26 C                    -0.025353
     27 S                     0.118821
     28 C                    -0.241118
     29 C                    -0.093317
     30 C                    -0.006671
     31 C                     0.394813
     32 C                    -0.157378
     33 S                     0.037451
     34 C                     0.460496
     35 O                    -0.450531
     36 O                    -0.297818
     37 F                    -0.210959
     38 C                    -0.055070
     39 H                     0.116512
     40 H                     0.084493
     41 H                     0.084525
     42 H                     0.214804
  ----------------------------------------
  Sum of atomic charges =     0.000000

                    Cartesian Multipole Moments
 -----------------------------------------------------------------
    Charge (ESU x 10^10)
                -0.0000
    Dipole Moment (Debye)
         X       0.1673      Y       1.4443      Z       3.4919
       Tot       3.7825
    Quadrupole Moments (Debye-Ang)
        XX    -183.9552     XY       1.4802     YY    -158.2795
        XZ      10.7382     YZ     -12.1078     ZZ    -199.0565

 Total job time:  279.89s(wall), 9275.46s(cpu)
        *  Thank you very much for using Q-Chem.  Have a nice day.  *
