 Q-Chem 5.4, Q-Chem, Inc., Pleasanton, CA (2021)
 Q-Chem 5.4.0 for Intel X86 EM64T Linux

User input:
--------------------------------------------------------------
$molecule
0 1
C	0.046574	-8.519741	0.268090
C	-0.326886	-7.635967	-0.733920
S	0.595708	-7.651740	1.722318
C	-0.193236	-6.261894	-0.371516
H	-0.692700	-7.954738	-1.718130
C	0.294958	-6.079985	0.970283
C	0.515487	-4.798382	1.498243
C	-0.477358	-5.153542	-1.219725
C	-0.252655	-3.869626	-0.692914
C	0.233366	-3.688927	0.651289
O	-0.957369	-5.481075	-2.451623
O	0.998769	-4.479871	2.735264
C	0.752029	-5.356026	3.828387
H	1.012675	-4.790496	4.743213
H	1.386303	-6.268513	3.788623
H	-0.316492	-5.658187	3.877260
C	-0.881930	-4.546999	-3.521580
H	-1.145969	-5.107564	-4.438260
H	0.142712	-4.131473	-3.631868
H	-1.605610	-3.712085	-3.399425
C	0.367928	-2.314326	1.009535
S	-0.542088	-2.295487	-1.450945
C	0.000000	-1.435180	0.000000
H	0.730999	-1.993211	1.993920
H	0.046991	-9.615985	0.262047
C	0.000000	0.000000	0.000000
S	0.002233	0.899428	1.510732
C	0.001157	2.474749	0.727629
C	-0.000030	0.908223	-1.064665
C	-0.001545	2.297013	-0.678287
C	0.001624	0.841837	-2.486150
C	0.001494	2.106670	-3.106916
S	-0.001841	3.354171	-1.965735
C	0.006168	2.361146	-4.559972
O	0.009152	1.427646	-5.350277
O	0.009405	3.644337	-5.004375
F	0.005539	-0.272288	-3.246290
C	0.019554	4.003038	-6.334976
H	0.020155	5.108000	-6.370268
H	-0.871409	3.613681	-6.875609
H	0.918470	3.613062	-6.861878
H	0.001222	3.394771	1.321510
$end

$rem
JOBTYPE		SP
EXCHANGE	HF
CORRELATION	pRIMP2
BASIS		cc-pvtz
METHOD		rimp2
AUX_BASIS	rimp2-cc-pvtz
SOLVENT_METHOD	PCM
PURECART	11111
SYMMETRY	false
MEM_TOTAL	110000
SCF_CONVERGENCE = 6
THRESH=10
GUI = 2
$end

$solvent
dielectric 4.90
$end
--------------------------------------------------------------

             Standard Nuclear Orientation (Angstroms)
    I     Atom           X                Y                Z
 ----------------------------------------------------------------
    1      C       0.0465740000    -8.5197410000     0.2680900000
    2      C      -0.3268860000    -7.6359670000    -0.7339200000
    3      S       0.5957080000    -7.6517400000     1.7223180000
    4      C      -0.1932360000    -6.2618940000    -0.3715160000
    5      H      -0.6927000000    -7.9547380000    -1.7181300000
    6      C       0.2949580000    -6.0799850000     0.9702830000
    7      C       0.5154870000    -4.7983820000     1.4982430000
    8      C      -0.4773580000    -5.1535420000    -1.2197250000
    9      C      -0.2526550000    -3.8696260000    -0.6929140000
   10      C       0.2333660000    -3.6889270000     0.6512890000
   11      O      -0.9573690000    -5.4810750000    -2.4516230000
   12      O       0.9987690000    -4.4798710000     2.7352640000
   13      C       0.7520290000    -5.3560260000     3.8283870000
   14      H       1.0126750000    -4.7904960000     4.7432130000
   15      H       1.3863030000    -6.2685130000     3.7886230000
   16      H      -0.3164920000    -5.6581870000     3.8772600000
   17      C      -0.8819300000    -4.5469990000    -3.5215800000
   18      H      -1.1459690000    -5.1075640000    -4.4382600000
   19      H       0.1427120000    -4.1314730000    -3.6318680000
   20      H      -1.6056100000    -3.7120850000    -3.3994250000
   21      C       0.3679280000    -2.3143260000     1.0095350000
   22      S      -0.5420880000    -2.2954870000    -1.4509450000
   23      C       0.0000000000    -1.4351800000     0.0000000000
   24      H       0.7309990000    -1.9932110000     1.9939200000
   25      H       0.0469910000    -9.6159850000     0.2620470000
   26      C       0.0000000000     0.0000000000     0.0000000000
   27      S       0.0022330000     0.8994280000     1.5107320000
   28      C       0.0011570000     2.4747490000     0.7276290000
   29      C      -0.0000300000     0.9082230000    -1.0646650000
   30      C      -0.0015450000     2.2970130000    -0.6782870000
   31      C       0.0016240000     0.8418370000    -2.4861500000
   32      C       0.0014940000     2.1066700000    -3.1069160000
   33      S      -0.0018410000     3.3541710000    -1.9657350000
   34      C       0.0061680000     2.3611460000    -4.5599720000
   35      O       0.0091520000     1.4276460000    -5.3502770000
   36      O       0.0094050000     3.6443370000    -5.0043750000
   37      F       0.0055390000    -0.2722880000    -3.2462900000
   38      C       0.0195540000     4.0030380000    -6.3349760000
   39      H       0.0201550000     5.1080000000    -6.3702680000
   40      H      -0.8714090000     3.6136810000    -6.8756090000
   41      H       0.9184700000     3.6130620000    -6.8618780000
   42      H       0.0012220000     3.3947710000     1.3215100000
 ----------------------------------------------------------------

   10   -2754.2944315714      8.31e-07  Convergence criterion met
 Total energy in the final basis set =    -2754.2944315714
        RIMP2         total energy =     -2759.3501570424 a.u.

                    Orbital Energies (a.u.)
 --------------------------------------------------------------

 Alpha MOs
 -- Occupied --
-92.0150 -91.9947 -91.9866 -91.9866 -26.3352 -20.6120 -20.5922 -20.5915
-20.5497 -11.4101 -11.3786 -11.3187 -11.3187 -11.3144 -11.2972 -11.2972
-11.2966 -11.2924 -11.2885 -11.2866 -11.2857 -11.2857 -11.2841 -11.2820
-11.2802 -11.2618 -11.2596 -11.2595 -11.2501  -9.0134  -8.9987  -8.9874
 -8.9865  -6.6942  -6.6936  -6.6931  -6.6800  -6.6793  -6.6780  -6.6682
 -6.6676  -6.6675  -6.6668  -6.6665  -6.6660  -1.6504  -1.4717  -1.4159
 -1.4147  -1.3670  -1.2339  -1.1965  -1.1691  -1.1420  -1.0848  -1.0524
 -1.0480  -1.0285  -1.0025  -0.9939  -0.9723  -0.9609  -0.9501  -0.9382
 -0.8961  -0.8694  -0.8522  -0.8096  -0.7947  -0.7871  -0.7751  -0.7637
 -0.7584  -0.7328  -0.7201  -0.7177  -0.7007  -0.6886  -0.6841  -0.6785
 -0.6731  -0.6619  -0.6587  -0.6526  -0.6291  -0.6199  -0.6165  -0.6064
 -0.6015  -0.5949  -0.5883  -0.5725  -0.5685  -0.5670  -0.5584  -0.5524
 -0.5306  -0.5272  -0.5219  -0.5196  -0.5148  -0.5093  -0.5017  -0.4951
 -0.4864  -0.4824  -0.4809  -0.4657  -0.4616  -0.4607  -0.4596  -0.4227
 -0.3956  -0.3869  -0.3600  -0.3501  -0.3245  -0.2840  -0.2479

          Ground-State Mulliken Net Atomic Charges

     Atom                 Charge (a.u.)
  ----------------------------------------
      1 C                    -0.187146
      2 C                    -0.254342
      3 S                    -0.022715
      4 C                    -0.012332
      5 H                     0.196707
      6 C                    -0.030188
      7 C                     0.245682
      8 C                     0.239880
      9 C                    -0.043683
     10 C                    -0.023903
     11 O                    -0.333746
     12 O                    -0.340271
     13 C                    -0.085746
     14 H                     0.122479
     15 H                     0.091472
     16 H                     0.094207
     17 C                    -0.088056
     18 H                     0.125236
     19 H                     0.095693
     20 H                     0.089931
     21 C                    -0.250709
     22 S                    -0.012434
     23 C                     0.018960
     24 H                     0.189237
     25 H                     0.206650
     26 C                     0.006384
     27 S                     0.095982
     28 C                    -0.239521
     29 C                    -0.101088
     30 C                    -0.017979
     31 C                     0.383484
     32 C                    -0.141665
     33 S                     0.035270
     34 C                     0.461189
     35 O                    -0.451944
     36 O                    -0.297926
     37 F                    -0.209475
     38 C                    -0.055062
     39 H                     0.116697
     40 H                     0.084388
     41 H                     0.084406
     42 H                     0.215997
  ----------------------------------------
  Sum of atomic charges =     0.000000

                    Cartesian Multipole Moments
 -----------------------------------------------------------------
    Charge (ESU x 10^10)
                -0.0000
    Dipole Moment (Debye)
         X      -0.2500      Y       1.4645      Z       3.0868
       Tot       3.4257
    Quadrupole Moments (Debye-Ang)
        XX    -201.6728     XY       1.3308     YY    -158.9277
        XZ       2.9315     YZ     -11.0996     ZZ    -181.3299

 Total job time:  318.31s(wall), 9398.46s(cpu)
        *  Thank you very much for using Q-Chem.  Have a nice day.  *
