 Q-Chem 5.4, Q-Chem, Inc., Pleasanton, CA (2021)
 Q-Chem 5.4.0 for Intel X86 EM64T Linux

User input:
--------------------------------------------------------------
$molecule
0 1
C	-0.268090	-8.519741	0.046574
C	0.733920	-7.635967	-0.326886
S	-1.722318	-7.651740	0.595708
C	0.371516	-6.261894	-0.193236
H	1.718130	-7.954738	-0.692700
C	-0.970283	-6.079985	0.294958
C	-1.498243	-4.798382	0.515487
C	1.219725	-5.153542	-0.477358
C	0.692914	-3.869626	-0.252655
C	-0.651289	-3.688927	0.233366
O	2.451623	-5.481075	-0.957369
O	-2.735264	-4.479871	0.998769
C	-3.828387	-5.356026	0.752029
H	-4.743213	-4.790496	1.012675
H	-3.788623	-6.268513	1.386303
H	-3.877260	-5.658187	-0.316492
C	3.521580	-4.546999	-0.881930
H	4.438260	-5.107564	-1.145969
H	3.631868	-4.131473	0.142712
H	3.399425	-3.712085	-1.605610
C	-1.009535	-2.314326	0.367928
S	1.450945	-2.295487	-0.542088
C	-0.000000	-1.435180	-0.000000
H	-1.993920	-1.993211	0.730999
H	-0.262047	-9.615985	0.046991
C	0.000000	0.000000	0.000000
S	0.158383	0.885376	1.510732
C	0.430876	2.436951	0.727629
C	0.157682	0.894430	-1.064665
C	0.397351	2.262384	-0.678287
C	0.147783	0.828765	-2.486150
C	0.367291	2.074406	-3.106916
S	0.580633	3.303533	-1.965735
C	0.416083	2.324204	-4.559972
O	0.256921	1.404367	-5.350277
O	0.642094	3.587338	-5.004375
F	-0.041828	-0.269113	-3.246290
C	0.714377	3.938827	-6.334976
H	0.906844	5.026898	-6.370268
H	-0.230661	3.710099	-6.875609
H	1.531918	3.398681	-6.861878
H	0.590699	3.342984	1.321510
$end

$rem
JOBTYPE		SP
EXCHANGE	HF
CORRELATION	pRIMP2
BASIS		cc-pvtz
METHOD		rimp2
AUX_BASIS	rimp2-cc-pvtz
SOLVENT_METHOD	PCM
PURECART	11111
SYMMETRY	false
MEM_TOTAL	110000
SCF_CONVERGENCE = 6
THRESH=10
GUI = 2
$end

$solvent
dielectric 4.90
$end
--------------------------------------------------------------

             Standard Nuclear Orientation (Angstroms)
    I     Atom           X                Y                Z
 ----------------------------------------------------------------
    1      C      -0.2680900000    -8.5197410000     0.0465740000
    2      C       0.7339200000    -7.6359670000    -0.3268860000
    3      S      -1.7223180000    -7.6517400000     0.5957080000
    4      C       0.3715160000    -6.2618940000    -0.1932360000
    5      H       1.7181300000    -7.9547380000    -0.6927000000
    6      C      -0.9702830000    -6.0799850000     0.2949580000
    7      C      -1.4982430000    -4.7983820000     0.5154870000
    8      C       1.2197250000    -5.1535420000    -0.4773580000
    9      C       0.6929140000    -3.8696260000    -0.2526550000
   10      C      -0.6512890000    -3.6889270000     0.2333660000
   11      O       2.4516230000    -5.4810750000    -0.9573690000
   12      O      -2.7352640000    -4.4798710000     0.9987690000
   13      C      -3.8283870000    -5.3560260000     0.7520290000
   14      H      -4.7432130000    -4.7904960000     1.0126750000
   15      H      -3.7886230000    -6.2685130000     1.3863030000
   16      H      -3.8772600000    -5.6581870000    -0.3164920000
   17      C       3.5215800000    -4.5469990000    -0.8819300000
   18      H       4.4382600000    -5.1075640000    -1.1459690000
   19      H       3.6318680000    -4.1314730000     0.1427120000
   20      H       3.3994250000    -3.7120850000    -1.6056100000
   21      C      -1.0095350000    -2.3143260000     0.3679280000
   22      S       1.4509450000    -2.2954870000    -0.5420880000
   23      C       0.0000000000    -1.4351800000     0.0000000000
   24      H      -1.9939200000    -1.9932110000     0.7309990000
   25      H      -0.2620470000    -9.6159850000     0.0469910000
   26      C       0.0000000000     0.0000000000     0.0000000000
   27      S       0.1583830000     0.8853760000     1.5107320000
   28      C       0.4308760000     2.4369510000     0.7276290000
   29      C       0.1576820000     0.8944300000    -1.0646650000
   30      C       0.3973510000     2.2623840000    -0.6782870000
   31      C       0.1477830000     0.8287650000    -2.4861500000
   32      C       0.3672910000     2.0744060000    -3.1069160000
   33      S       0.5806330000     3.3035330000    -1.9657350000
   34      C       0.4160830000     2.3242040000    -4.5599720000
   35      O       0.2569210000     1.4043670000    -5.3502770000
   36      O       0.6420940000     3.5873380000    -5.0043750000
   37      F      -0.0418280000    -0.2691130000    -3.2462900000
   38      C       0.7143770000     3.9388270000    -6.3349760000
   39      H       0.9068440000     5.0268980000    -6.3702680000
   40      H      -0.2306610000     3.7100990000    -6.8756090000
   41      H       1.5319180000     3.3986810000    -6.8618780000
   42      H       0.5906990000     3.3429840000     1.3215100000
 ----------------------------------------------------------------

   10   -2754.2946568613      8.75e-07  Convergence criterion met
 Total energy in the final basis set =    -2754.2946568613
        RIMP2         total energy =     -2759.3474945329 a.u.

                    Orbital Energies (a.u.)
 --------------------------------------------------------------

 Alpha MOs
 -- Occupied --
-92.0164 -91.9945 -91.9901 -91.9867 -26.3338 -20.6119 -20.5924 -20.5921
-20.5499 -11.4101 -11.3772 -11.3194 -11.3190 -11.3094 -11.2971 -11.2962
-11.2936 -11.2935 -11.2883 -11.2870 -11.2869 -11.2864 -11.2843 -11.2824
-11.2804 -11.2611 -11.2599 -11.2594 -11.2502  -9.0145  -8.9986  -8.9904
 -8.9867  -6.6952  -6.6946  -6.6942  -6.6798  -6.6792  -6.6778  -6.6714
 -6.6707  -6.6697  -6.6676  -6.6670  -6.6661  -1.6467  -1.4716  -1.4166
 -1.4148  -1.3669  -1.2332  -1.1963  -1.1684  -1.1417  -1.0842  -1.0525
 -1.0473  -1.0276  -1.0027  -0.9933  -0.9712  -0.9615  -0.9506  -0.9384
 -0.8961  -0.8690  -0.8509  -0.8060  -0.7901  -0.7885  -0.7744  -0.7671
 -0.7585  -0.7330  -0.7179  -0.7150  -0.7012  -0.6885  -0.6834  -0.6783
 -0.6709  -0.6607  -0.6593  -0.6529  -0.6308  -0.6203  -0.6172  -0.6062
 -0.6022  -0.5943  -0.5830  -0.5783  -0.5677  -0.5661  -0.5567  -0.5515
 -0.5344  -0.5263  -0.5248  -0.5162  -0.5141  -0.5082  -0.5012  -0.4955
 -0.4903  -0.4839  -0.4761  -0.4684  -0.4617  -0.4611  -0.4602  -0.4082
 -0.4006  -0.3872  -0.3575  -0.3495  -0.3166  -0.2880  -0.2584

          Ground-State Mulliken Net Atomic Charges

     Atom                 Charge (a.u.)
  ----------------------------------------
      1 C                    -0.186739
      2 C                    -0.254573
      3 S                    -0.021719
      4 C                    -0.012364
      5 H                     0.196615
      6 C                    -0.027497
      7 C                     0.247238
      8 C                     0.239411
      9 C                    -0.041949
     10 C                    -0.026783
     11 O                    -0.333093
     12 O                    -0.339840
     13 C                    -0.085701
     14 H                     0.122662
     15 H                     0.091060
     16 H                     0.094675
     17 C                    -0.086613
     18 H                     0.125011
     19 H                     0.094319
     20 H                     0.090543
     21 C                    -0.228419
     22 S                    -0.000628
     23 C                    -0.046807
     24 H                     0.196918
     25 H                     0.206708
     26 C                     0.001189
     27 S                     0.120167
     28 C                    -0.240757
     29 C                    -0.116966
     30 C                    -0.002263
     31 C                     0.396789
     32 C                    -0.156808
     33 S                     0.038438
     34 C                     0.461027
     35 O                    -0.450073
     36 O                    -0.297869
     37 F                    -0.210688
     38 C                    -0.054953
     39 H                     0.116500
     40 H                     0.084600
     41 H                     0.084459
     42 H                     0.214776
  ----------------------------------------
  Sum of atomic charges =     0.000000

                    Cartesian Multipole Moments
 -----------------------------------------------------------------
    Charge (ESU x 10^10)
                 0.0000
    Dipole Moment (Debye)
         X       0.6067      Y       1.4296      Z       3.0245
       Tot       3.3999
    Quadrupole Moments (Debye-Ang)
        XX    -176.2261     XY       3.7000     YY    -158.4335
        XZ      -4.9354     YZ      -9.2475     ZZ    -206.2838

 Total job time:  331.24s(wall), 9252.07s(cpu)
        *  Thank you very much for using Q-Chem.  Have a nice day.  *
