 Q-Chem 5.4, Q-Chem, Inc., Pleasanton, CA (2021)
 Q-Chem 5.4.0 for Intel X86 EM64T Linux

User input:
--------------------------------------------------------------
$molecule
0 1
C	0.268090	-8.519741	-0.046574
C	-0.733920	-7.635967	0.326886
S	1.722318	-7.651740	-0.595708
C	-0.371516	-6.261894	0.193236
H	-1.718130	-7.954738	0.692700
C	0.970283	-6.079985	-0.294958
C	1.498243	-4.798382	-0.515487
C	-1.219725	-5.153542	0.477358
C	-0.692914	-3.869626	0.252655
C	0.651289	-3.688927	-0.233366
O	-2.451623	-5.481075	0.957369
O	2.735264	-4.479871	-0.998769
C	3.828387	-5.356026	-0.752029
H	4.743213	-4.790496	-1.012675
H	3.788623	-6.268513	-1.386303
H	3.877260	-5.658187	0.316492
C	-3.521580	-4.546999	0.881930
H	-4.438260	-5.107564	1.145969
H	-3.631868	-4.131473	-0.142712
H	-3.399425	-3.712085	1.605610
C	1.009535	-2.314326	-0.367928
S	-1.450945	-2.295487	0.542088
C	-0.000000	-1.435180	-0.000000
H	1.993920	-1.993211	-0.730999
H	0.262047	-9.615985	-0.046991
C	0.000000	0.000000	0.000000
S	0.158383	0.885376	1.510732
C	0.430876	2.436951	0.727629
C	0.157682	0.894430	-1.064665
C	0.397351	2.262384	-0.678287
C	0.147783	0.828765	-2.486150
C	0.367291	2.074406	-3.106916
S	0.580633	3.303533	-1.965735
C	0.416083	2.324204	-4.559972
O	0.256921	1.404367	-5.350277
O	0.642094	3.587338	-5.004375
F	-0.041828	-0.269113	-3.246290
C	0.714377	3.938827	-6.334976
H	0.906844	5.026898	-6.370268
H	-0.230661	3.710099	-6.875609
H	1.531918	3.398681	-6.861878
H	0.590699	3.342984	1.321510
$end

$rem
JOBTYPE		SP
EXCHANGE	HF
CORRELATION	pRIMP2
BASIS		cc-pvtz
METHOD		rimp2
AUX_BASIS	rimp2-cc-pvtz
SOLVENT_METHOD	PCM
PURECART	11111
SYMMETRY	false
MEM_TOTAL	110000
SCF_CONVERGENCE = 6
THRESH=10
GUI = 2
$end

$solvent
dielectric 4.90
$end
--------------------------------------------------------------

             Standard Nuclear Orientation (Angstroms)
    I     Atom           X                Y                Z
 ----------------------------------------------------------------
    1      C       0.2680900000    -8.5197410000    -0.0465740000
    2      C      -0.7339200000    -7.6359670000     0.3268860000
    3      S       1.7223180000    -7.6517400000    -0.5957080000
    4      C      -0.3715160000    -6.2618940000     0.1932360000
    5      H      -1.7181300000    -7.9547380000     0.6927000000
    6      C       0.9702830000    -6.0799850000    -0.2949580000
    7      C       1.4982430000    -4.7983820000    -0.5154870000
    8      C      -1.2197250000    -5.1535420000     0.4773580000
    9      C      -0.6929140000    -3.8696260000     0.2526550000
   10      C       0.6512890000    -3.6889270000    -0.2333660000
   11      O      -2.4516230000    -5.4810750000     0.9573690000
   12      O       2.7352640000    -4.4798710000    -0.9987690000
   13      C       3.8283870000    -5.3560260000    -0.7520290000
   14      H       4.7432130000    -4.7904960000    -1.0126750000
   15      H       3.7886230000    -6.2685130000    -1.3863030000
   16      H       3.8772600000    -5.6581870000     0.3164920000
   17      C      -3.5215800000    -4.5469990000     0.8819300000
   18      H      -4.4382600000    -5.1075640000     1.1459690000
   19      H      -3.6318680000    -4.1314730000    -0.1427120000
   20      H      -3.3994250000    -3.7120850000     1.6056100000
   21      C       1.0095350000    -2.3143260000    -0.3679280000
   22      S      -1.4509450000    -2.2954870000     0.5420880000
   23      C       0.0000000000    -1.4351800000     0.0000000000
   24      H       1.9939200000    -1.9932110000    -0.7309990000
   25      H       0.2620470000    -9.6159850000    -0.0469910000
   26      C       0.0000000000     0.0000000000     0.0000000000
   27      S       0.1583830000     0.8853760000     1.5107320000
   28      C       0.4308760000     2.4369510000     0.7276290000
   29      C       0.1576820000     0.8944300000    -1.0646650000
   30      C       0.3973510000     2.2623840000    -0.6782870000
   31      C       0.1477830000     0.8287650000    -2.4861500000
   32      C       0.3672910000     2.0744060000    -3.1069160000
   33      S       0.5806330000     3.3035330000    -1.9657350000
   34      C       0.4160830000     2.3242040000    -4.5599720000
   35      O       0.2569210000     1.4043670000    -5.3502770000
   36      O       0.6420940000     3.5873380000    -5.0043750000
   37      F      -0.0418280000    -0.2691130000    -3.2462900000
   38      C       0.7143770000     3.9388270000    -6.3349760000
   39      H       0.9068440000     5.0268980000    -6.3702680000
   40      H      -0.2306610000     3.7100990000    -6.8756090000
   41      H       1.5319180000     3.3986810000    -6.8618780000
   42      H       0.5906990000     3.3429840000     1.3215100000
 ----------------------------------------------------------------

   10   -2754.2941200433      8.60e-07  Convergence criterion met
 Total energy in the final basis set =    -2754.2941200433
        RIMP2         total energy =     -2759.3469169791 a.u.

                    Orbital Energies (a.u.)
 --------------------------------------------------------------

 Alpha MOs
 -- Occupied --
-92.0159 -91.9944 -91.9900 -91.9866 -26.3336 -20.6119 -20.5926 -20.5918
-20.5499 -11.4102 -11.3771 -11.3194 -11.3189 -11.3091 -11.2972 -11.2961
-11.2942 -11.2937 -11.2883 -11.2872 -11.2868 -11.2862 -11.2843 -11.2829
-11.2804 -11.2613 -11.2598 -11.2595 -11.2502  -9.0141  -8.9984  -8.9903
 -8.9866  -6.6948  -6.6942  -6.6937  -6.6797  -6.6790  -6.6777  -6.6713
 -6.6706  -6.6696  -6.6675  -6.6669  -6.6661  -1.6465  -1.4716  -1.4167
 -1.4146  -1.3669  -1.2331  -1.1962  -1.1684  -1.1417  -1.0841  -1.0524
 -1.0473  -1.0274  -1.0025  -0.9934  -0.9712  -0.9615  -0.9506  -0.9385
 -0.8961  -0.8690  -0.8506  -0.8040  -0.7916  -0.7881  -0.7733  -0.7697
 -0.7582  -0.7329  -0.7180  -0.7147  -0.7017  -0.6887  -0.6833  -0.6783
 -0.6709  -0.6607  -0.6590  -0.6528  -0.6306  -0.6203  -0.6170  -0.6063
 -0.6020  -0.5943  -0.5829  -0.5773  -0.5712  -0.5653  -0.5535  -0.5514
 -0.5351  -0.5262  -0.5248  -0.5164  -0.5143  -0.5076  -0.5016  -0.4955
 -0.4903  -0.4840  -0.4759  -0.4686  -0.4616  -0.4611  -0.4604  -0.4091
 -0.3988  -0.3877  -0.3587  -0.3481  -0.3169  -0.2883  -0.2580

          Ground-State Mulliken Net Atomic Charges

     Atom                 Charge (a.u.)
  ----------------------------------------
      1 C                    -0.187087
      2 C                    -0.254335
      3 S                    -0.021036
      4 C                    -0.013846
      5 H                     0.196474
      6 C                    -0.028403
      7 C                     0.244302
      8 C                     0.241182
      9 C                    -0.052100
     10 C                    -0.027203
     11 O                    -0.333360
     12 O                    -0.339392
     13 C                    -0.085751
     14 H                     0.122838
     15 H                     0.091362
     16 H                     0.093825
     17 C                    -0.086486
     18 H                     0.124849
     19 H                     0.095400
     20 H                     0.089285
     21 C                    -0.205437
     22 S                     0.000233
     23 C                    -0.026614
     24 H                     0.198229
     25 H                     0.206657
     26 C                    -0.048170
     27 S                     0.118037
     28 C                    -0.237569
     29 C                    -0.098993
     30 C                    -0.006855
     31 C                     0.401165
     32 C                    -0.156377
     33 S                     0.037359
     34 C                     0.460999
     35 O                    -0.449970
     36 O                    -0.297824
     37 F                    -0.211290
     38 C                    -0.054983
     39 H                     0.116501
     40 H                     0.084617
     41 H                     0.084491
     42 H                     0.215274
  ----------------------------------------
  Sum of atomic charges =     0.000000

                    Cartesian Multipole Moments
 -----------------------------------------------------------------
    Charge (ESU x 10^10)
                -0.0000
    Dipole Moment (Debye)
         X       0.7050      Y       1.4625      Z       3.4964
       Tot       3.8549
    Quadrupole Moments (Debye-Ang)
        XX    -176.2363     XY       1.7239     YY    -158.5620
        XZ      -4.8609     YZ     -11.6939     ZZ    -206.3217

 Total job time:  282.06s(wall), 9328.87s(cpu)
        *  Thank you very much for using Q-Chem.  Have a nice day.  *
