 Q-Chem 5.4, Q-Chem, Inc., Pleasanton, CA (2021)
 Q-Chem 5.4.0 for Intel X86 EM64T Linux

User input:
--------------------------------------------------------------
$molecule
0 1
C	0.093711	-8.519741	-0.255459
C	-0.083869	-7.635967	0.799036
S	0.345260	-7.651740	-1.789425
C	-0.018411	-6.261894	0.418360
H	-0.259169	-7.954738	1.834294
C	0.229701	-6.079985	-0.987769
C	0.302697	-4.798382	-1.555260
C	-0.196459	-5.153542	1.294992
C	-0.127651	-3.869626	0.726408
C	0.123544	-3.688927	-0.680716
O	-0.396706	-5.481075	2.601852
O	0.502673	-4.479871	-2.868193
C	1.262918	-5.356026	-3.691495
H	1.494604	-4.790496	-4.614080
H	0.693738	-6.268513	-3.974195
H	2.212720	-5.658187	-3.199559
C	-0.997016	-4.546999	3.490743
H	-1.226691	-5.107564	4.416630
H	-1.939526	-4.131473	3.073934
H	-0.309214	-3.712085	3.746794
C	0.186133	-2.314326	-1.058247
S	-0.256010	-2.295487	1.527599
C	0.000000	-1.435180	0.000000
H	0.363896	-1.993211	-2.092285
H	0.090328	-9.615985	-0.250435
C	0.000000	0.000000	0.000000
S	0.080615	0.895811	1.510732
C	0.216842	2.465231	0.727629
C	0.079127	0.904769	-1.064665
C	0.198659	2.288406	-0.678287
C	0.074988	0.838492	-2.486150
C	0.185097	2.098524	-3.106916
S	0.290501	3.341568	-1.965735
C	0.211932	2.351623	-4.559972
O	0.133545	1.421416	-5.350277
O	0.326994	3.629649	-5.004375
F	-0.018214	-0.271734	-3.246290
C	0.368367	3.986101	-6.334976
H	0.465270	5.086806	-6.370268
H	-0.553140	3.675878	-6.875609
H	1.229874	3.519263	-6.861878
H	0.297091	3.381746	1.321510
$end

$rem
JOBTYPE		SP
EXCHANGE	HF
CORRELATION	pRIMP2
BASIS		cc-pvtz
METHOD		rimp2
AUX_BASIS	rimp2-cc-pvtz
SOLVENT_METHOD	PCM
PURECART	11111
SYMMETRY	false
MEM_TOTAL	110000
SCF_CONVERGENCE = 6
THRESH=10
GUI = 2
$end

$solvent
dielectric 4.90
$end
--------------------------------------------------------------

             Standard Nuclear Orientation (Angstroms)
    I     Atom           X                Y                Z
 ----------------------------------------------------------------
    1      C       0.0937110000    -8.5197410000    -0.2554590000
    2      C      -0.0838690000    -7.6359670000     0.7990360000
    3      S       0.3452600000    -7.6517400000    -1.7894250000
    4      C      -0.0184110000    -6.2618940000     0.4183600000
    5      H      -0.2591690000    -7.9547380000     1.8342940000
    6      C       0.2297010000    -6.0799850000    -0.9877690000
    7      C       0.3026970000    -4.7983820000    -1.5552600000
    8      C      -0.1964590000    -5.1535420000     1.2949920000
    9      C      -0.1276510000    -3.8696260000     0.7264080000
   10      C       0.1235440000    -3.6889270000    -0.6807160000
   11      O      -0.3967060000    -5.4810750000     2.6018520000
   12      O       0.5026730000    -4.4798710000    -2.8681930000
   13      C       1.2629180000    -5.3560260000    -3.6914950000
   14      H       1.4946040000    -4.7904960000    -4.6140800000
   15      H       0.6937380000    -6.2685130000    -3.9741950000
   16      H       2.2127200000    -5.6581870000    -3.1995590000
   17      C      -0.9970160000    -4.5469990000     3.4907430000
   18      H      -1.2266910000    -5.1075640000     4.4166300000
   19      H      -1.9395260000    -4.1314730000     3.0739340000
   20      H      -0.3092140000    -3.7120850000     3.7467940000
   21      C       0.1861330000    -2.3143260000    -1.0582470000
   22      S      -0.2560100000    -2.2954870000     1.5275990000
   23      C       0.0000000000    -1.4351800000     0.0000000000
   24      H       0.3638960000    -1.9932110000    -2.0922850000
   25      H       0.0903280000    -9.6159850000    -0.2504350000
   26      C       0.0000000000     0.0000000000     0.0000000000
   27      S       0.0806150000     0.8958110000     1.5107320000
   28      C       0.2168420000     2.4652310000     0.7276290000
   29      C       0.0791270000     0.9047690000    -1.0646650000
   30      C       0.1986590000     2.2884060000    -0.6782870000
   31      C       0.0749880000     0.8384920000    -2.4861500000
   32      C       0.1850970000     2.0985240000    -3.1069160000
   33      S       0.2905010000     3.3415680000    -1.9657350000
   34      C       0.2119320000     2.3516230000    -4.5599720000
   35      O       0.1335450000     1.4214160000    -5.3502770000
   36      O       0.3269940000     3.6296490000    -5.0043750000
   37      F      -0.0182140000    -0.2717340000    -3.2462900000
   38      C       0.3683670000     3.9861010000    -6.3349760000
   39      H       0.4652700000     5.0868060000    -6.3702680000
   40      H      -0.5531400000     3.6758780000    -6.8756090000
   41      H       1.2298740000     3.5192630000    -6.8618780000
   42      H       0.2970910000     3.3817460000     1.3215100000
 ----------------------------------------------------------------

   10   -2754.2967880120      8.37e-07  Convergence criterion met
 Total energy in the final basis set =    -2754.2967880120
        RIMP2         total energy =     -2759.3518556962 a.u.

                    Orbital Energies (a.u.)
 --------------------------------------------------------------

 Alpha MOs
 -- Occupied --
-92.0161 -91.9950 -91.9911 -91.9873 -26.3383 -20.6117 -20.5932 -20.5919
-20.5493 -11.4098 -11.3788 -11.3204 -11.3199 -11.3146 -11.2976 -11.2966
-11.2962 -11.2916 -11.2887 -11.2883 -11.2879 -11.2857 -11.2850 -11.2810
-11.2806 -11.2624 -11.2609 -11.2582 -11.2507  -9.0146  -8.9990  -8.9918
 -8.9872  -6.6954  -6.6948  -6.6943  -6.6803  -6.6796  -6.6783  -6.6728
 -6.6721  -6.6711  -6.6681  -6.6675  -6.6667  -1.6527  -1.4714  -1.4173
 -1.4146  -1.3667  -1.2337  -1.1976  -1.1700  -1.1425  -1.0852  -1.0534
 -1.0483  -1.0281  -1.0042  -0.9943  -0.9725  -0.9614  -0.9511  -0.9386
 -0.8974  -0.8696  -0.8525  -0.8074  -0.7965  -0.7891  -0.7726  -0.7697
 -0.7583  -0.7336  -0.7217  -0.7197  -0.7021  -0.6898  -0.6850  -0.6784
 -0.6725  -0.6625  -0.6598  -0.6529  -0.6297  -0.6205  -0.6161  -0.6061
 -0.5999  -0.5939  -0.5887  -0.5762  -0.5698  -0.5611  -0.5530  -0.5490
 -0.5371  -0.5274  -0.5256  -0.5188  -0.5177  -0.5098  -0.5057  -0.4968
 -0.4871  -0.4841  -0.4798  -0.4678  -0.4619  -0.4612  -0.4586  -0.4249
 -0.3988  -0.3863  -0.3601  -0.3508  -0.3260  -0.2846  -0.2475

          Ground-State Mulliken Net Atomic Charges

     Atom                 Charge (a.u.)
  ----------------------------------------
      1 C                    -0.185873
      2 C                    -0.254953
      3 S                    -0.019505
      4 C                    -0.013353
      5 H                     0.196569
      6 C                    -0.029774
      7 C                     0.253925
      8 C                     0.242363
      9 C                    -0.036309
     10 C                    -0.042226
     11 O                    -0.333264
     12 O                    -0.338637
     13 C                    -0.086543
     14 H                     0.124308
     15 H                     0.091686
     16 H                     0.094040
     17 C                    -0.088571
     18 H                     0.126283
     19 H                     0.095263
     20 H                     0.089541
     21 C                    -0.192583
     22 S                    -0.042231
     23 C                    -0.024495
     24 H                     0.210390
     25 H                     0.207011
     26 C                    -0.037611
     27 S                     0.086926
     28 C                    -0.247869
     29 C                    -0.062440
     30 C                    -0.017886
     31 C                     0.396305
     32 C                    -0.139373
     33 S                     0.035910
     34 C                     0.462814
     35 O                    -0.452450
     36 O                    -0.298058
     37 F                    -0.217102
     38 C                    -0.055162
     39 H                     0.116681
     40 H                     0.084540
     41 H                     0.084277
     42 H                     0.217436
  ----------------------------------------
  Sum of atomic charges =     0.000000

                    Cartesian Multipole Moments
 -----------------------------------------------------------------
    Charge (ESU x 10^10)
                 0.0000
    Dipole Moment (Debye)
         X       0.5570      Y       1.0614      Z       3.2289
       Tot       3.4442
    Quadrupole Moments (Debye-Ang)
        XX    -197.8260     XY      -0.1793     YY    -156.2630
        XZ     -10.2799     YZ      -9.8499     ZZ    -185.2986

 Total job time:  294.30s(wall), 9902.17s(cpu)
        *  Thank you very much for using Q-Chem.  Have a nice day.  *
