 Q-Chem 5.4, Q-Chem, Inc., Pleasanton, CA (2021)
 Q-Chem 5.4.0 for Intel X86 EM64T Linux

User input:
--------------------------------------------------------------
$molecule
0 1
C	-0.046574	-8.519741	-0.268090
C	0.326886	-7.635967	0.733920
S	-0.595708	-7.651740	-1.722318
C	0.193236	-6.261894	0.371516
H	0.692700	-7.954738	1.718130
C	-0.294958	-6.079985	-0.970283
C	-0.515487	-4.798382	-1.498243
C	0.477358	-5.153542	1.219725
C	0.252655	-3.869626	0.692914
C	-0.233366	-3.688927	-0.651289
O	0.957369	-5.481075	2.451623
O	-0.998769	-4.479871	-2.735264
C	-0.752029	-5.356026	-3.828387
H	-1.012675	-4.790496	-4.743213
H	-1.386303	-6.268513	-3.788623
H	0.316492	-5.658187	-3.877260
C	0.881930	-4.546999	3.521580
H	1.145969	-5.107564	4.438260
H	-0.142712	-4.131473	3.631868
H	1.605610	-3.712085	3.399425
C	-0.367928	-2.314326	-1.009535
S	0.542088	-2.295487	1.450945
C	-0.000000	-1.435180	-0.000000
H	-0.730999	-1.993211	-1.993920
H	-0.046991	-9.615985	-0.262047
C	0.000000	0.000000	0.000000
S	0.382139	0.814215	1.510732
C	1.046923	2.242395	0.727629
C	0.383804	0.823142	-1.064665
C	0.969360	2.082453	-0.678287
C	0.357247	0.762277	-2.486150
C	0.891671	1.908660	-3.106916
S	1.415865	3.040689	-1.965735
C	1.003453	2.137318	-4.559972
O	0.611644	1.290019	-5.350277
O	1.548687	3.298916	-5.004375
F	-0.110054	-0.249117	-3.246290
C	1.709479	3.619721	-6.334976
H	2.177001	4.620902	-6.370268
H	0.737443	3.643380	-6.875609
H	2.359363	2.886384	-6.861878
H	1.435800	3.076190	1.321510
$end

$rem
JOBTYPE		SP
EXCHANGE	HF
CORRELATION	pRIMP2
BASIS		cc-pvtz
METHOD		rimp2
AUX_BASIS	rimp2-cc-pvtz
SOLVENT_METHOD	PCM
PURECART	11111
SYMMETRY	false
MEM_TOTAL	110000
SCF_CONVERGENCE = 6
THRESH=10
GUI = 2
$end

$solvent
dielectric 4.90
$end
--------------------------------------------------------------

             Standard Nuclear Orientation (Angstroms)
    I     Atom           X                Y                Z
 ----------------------------------------------------------------
    1      C      -0.0465740000    -8.5197410000    -0.2680900000
    2      C       0.3268860000    -7.6359670000     0.7339200000
    3      S      -0.5957080000    -7.6517400000    -1.7223180000
    4      C       0.1932360000    -6.2618940000     0.3715160000
    5      H       0.6927000000    -7.9547380000     1.7181300000
    6      C      -0.2949580000    -6.0799850000    -0.9702830000
    7      C      -0.5154870000    -4.7983820000    -1.4982430000
    8      C       0.4773580000    -5.1535420000     1.2197250000
    9      C       0.2526550000    -3.8696260000     0.6929140000
   10      C      -0.2333660000    -3.6889270000    -0.6512890000
   11      O       0.9573690000    -5.4810750000     2.4516230000
   12      O      -0.9987690000    -4.4798710000    -2.7352640000
   13      C      -0.7520290000    -5.3560260000    -3.8283870000
   14      H      -1.0126750000    -4.7904960000    -4.7432130000
   15      H      -1.3863030000    -6.2685130000    -3.7886230000
   16      H       0.3164920000    -5.6581870000    -3.8772600000
   17      C       0.8819300000    -4.5469990000     3.5215800000
   18      H       1.1459690000    -5.1075640000     4.4382600000
   19      H      -0.1427120000    -4.1314730000     3.6318680000
   20      H       1.6056100000    -3.7120850000     3.3994250000
   21      C      -0.3679280000    -2.3143260000    -1.0095350000
   22      S       0.5420880000    -2.2954870000     1.4509450000
   23      C       0.0000000000    -1.4351800000     0.0000000000
   24      H      -0.7309990000    -1.9932110000    -1.9939200000
   25      H      -0.0469910000    -9.6159850000    -0.2620470000
   26      C       0.0000000000     0.0000000000     0.0000000000
   27      S       0.3821390000     0.8142150000     1.5107320000
   28      C       1.0469230000     2.2423950000     0.7276290000
   29      C       0.3838040000     0.8231420000    -1.0646650000
   30      C       0.9693600000     2.0824530000    -0.6782870000
   31      C       0.3572470000     0.7622770000    -2.4861500000
   32      C       0.8916710000     1.9086600000    -3.1069160000
   33      S       1.4158650000     3.0406890000    -1.9657350000
   34      C       1.0034530000     2.1373180000    -4.5599720000
   35      O       0.6116440000     1.2900190000    -5.3502770000
   36      O       1.5486870000     3.2989160000    -5.0043750000
   37      F      -0.1100540000    -0.2491170000    -3.2462900000
   38      C       1.7094790000     3.6197210000    -6.3349760000
   39      H       2.1770010000     4.6209020000    -6.3702680000
   40      H       0.7374430000     3.6433800000    -6.8756090000
   41      H       2.3593630000     2.8863840000    -6.8618780000
   42      H       1.4358000000     3.0761900000     1.3215100000
 ----------------------------------------------------------------

   10   -2754.2854535902      8.02e-07  Convergence criterion met
 Total energy in the final basis set =    -2754.2854535902
        RIMP2         total energy =     -2759.3446957882 a.u.

                    Orbital Energies (a.u.)
 --------------------------------------------------------------

 Alpha MOs
 -- Occupied --
-92.0164 -91.9970 -91.9906 -91.9861 -26.3373 -20.6126 -20.5926 -20.5903
-20.5509 -11.4111 -11.3784 -11.3194 -11.3171 -11.3091 -11.2992 -11.2987
-11.2973 -11.2961 -11.2888 -11.2876 -11.2856 -11.2848 -11.2841 -11.2838
-11.2793 -11.2609 -11.2586 -11.2529 -11.2498  -9.0150  -9.0009  -8.9912
 -8.9860  -6.6958  -6.6952  -6.6947  -6.6821  -6.6815  -6.6802  -6.6722
 -6.6715  -6.6705  -6.6670  -6.6663  -6.6655  -1.6512  -1.4724  -1.4167
 -1.4131  -1.3678  -1.2356  -1.1961  -1.1695  -1.1431  -1.0843  -1.0519
 -1.0490  -1.0292  -1.0027  -0.9934  -0.9732  -0.9605  -0.9503  -0.9383
 -0.8964  -0.8708  -0.8506  -0.8057  -0.7963  -0.7883  -0.7718  -0.7701
 -0.7571  -0.7318  -0.7212  -0.7187  -0.7010  -0.6901  -0.6839  -0.6791
 -0.6731  -0.6620  -0.6590  -0.6519  -0.6288  -0.6195  -0.6156  -0.6072
 -0.6012  -0.5964  -0.5883  -0.5759  -0.5683  -0.5601  -0.5550  -0.5458
 -0.5372  -0.5280  -0.5217  -0.5196  -0.5172  -0.5094  -0.5053  -0.4958
 -0.4856  -0.4852  -0.4776  -0.4677  -0.4620  -0.4615  -0.4594  -0.4233
 -0.3977  -0.3850  -0.3587  -0.3506  -0.3247  -0.2857  -0.2469

          Ground-State Mulliken Net Atomic Charges

     Atom                 Charge (a.u.)
  ----------------------------------------
      1 C                    -0.189131
      2 C                    -0.254982
      3 S                    -0.021654
      4 C                    -0.014848
      5 H                     0.196105
      6 C                    -0.028309
      7 C                     0.244266
      8 C                     0.241563
      9 C                    -0.045093
     10 C                    -0.024486
     11 O                    -0.333129
     12 O                    -0.339545
     13 C                    -0.085980
     14 H                     0.123893
     15 H                     0.090894
     16 H                     0.093676
     17 C                    -0.088355
     18 H                     0.125797
     19 H                     0.094781
     20 H                     0.089513
     21 C                    -0.237255
     22 S                    -0.029556
     23 C                    -0.038501
     24 H                     0.202444
     25 H                     0.206350
     26 C                     0.007785
     27 S                     0.090820
     28 C                    -0.219253
     29 C                    -0.060599
     30 C                    -0.022901
     31 C                     0.367483
     32 C                    -0.133653
     33 S                     0.046585
     34 C                     0.456403
     35 O                    -0.449316
     36 O                    -0.297892
     37 F                    -0.212911
     38 C                    -0.054769
     39 H                     0.116790
     40 H                     0.084605
     41 H                     0.084584
     42 H                     0.217782
  ----------------------------------------
  Sum of atomic charges =     0.000000

                    Cartesian Multipole Moments
 -----------------------------------------------------------------
    Charge (ESU x 10^10)
                -0.0000
    Dipole Moment (Debye)
         X       1.9103      Y       1.7317      Z       3.1122
       Tot       4.0416
    Quadrupole Moments (Debye-Ang)
        XX    -198.5721     XY       5.0749     YY    -162.0306
        XZ      -1.8237     YZ      -9.0419     ZZ    -181.0393

 Total job time:  302.62s(wall), 9916.92s(cpu)
        *  Thank you very much for using Q-Chem.  Have a nice day.  *
