 Q-Chem 5.4, Q-Chem, Inc., Pleasanton, CA (2021)
 Q-Chem 5.4.0 for Intel X86 EM64T Linux

User input:
--------------------------------------------------------------
$molecule
0 1
C	0.208886	-8.519741	-0.174379
C	-0.472151	-7.635967	0.650052
S	1.193717	-7.651740	-1.377058
C	-0.225125	-6.261894	0.353105
H	-1.141594	-7.954738	1.458961
C	0.692811	-6.079985	-0.740583
C	1.039773	-4.798382	-1.195546
C	-0.817634	-5.153542	1.023267
C	-0.473754	-3.869626	0.565262
C	0.447350	-3.688927	-0.527745
O	-1.644483	-5.481075	2.054917
O	1.869424	-4.479871	-2.232592
C	2.939466	-5.356026	-2.565470
H	3.601405	-4.790496	-3.248608
H	2.587892	-6.268513	-3.094885
H	3.516052	-5.658187	-1.664539
C	-2.608813	-4.546999	2.524564
H	-3.270661	-5.107564	3.211568
H	-3.216646	-4.131473	1.692342
H	-2.141184	-3.712085	3.090211
C	0.690319	-2.314326	-0.823402
S	-0.985511	-2.295487	1.194935
C	0.000000	-1.435180	0.000000
H	1.361286	-1.993211	-1.630024
H	0.203444	-9.615985	-0.171719
C	0.000000	0.000000	0.000000
S	0.309721	0.844422	1.510732
C	0.847502	2.325108	0.727629
C	0.310602	0.853460	-1.064665
C	0.784173	2.159014	-0.678287
C	0.289451	0.790512	-2.486150
C	0.721927	1.979112	-3.106916
S	1.145464	3.152519	-1.965735
C	0.813355	2.216642	-4.559972
O	0.496884	1.338418	-5.350277
O	1.255274	3.421340	-5.004375
F	-0.087923	-0.257761	-3.246290
C	1.387494	3.754937	-6.334976
H	1.765978	4.793056	-6.370268
H	0.417095	3.693789	-6.875609
H	2.098820	3.081033	-6.861878
H	1.162229	3.189623	1.321510
$end

$rem
JOBTYPE		SP
EXCHANGE	HF
CORRELATION	pRIMP2
BASIS		cc-pvtz
METHOD		rimp2
AUX_BASIS	rimp2-cc-pvtz
SOLVENT_METHOD	PCM
PURECART	11111
SYMMETRY	false
MEM_TOTAL	110000
SCF_CONVERGENCE = 6
THRESH=10
GUI = 2
$end

$solvent
dielectric 4.90
$end
--------------------------------------------------------------

             Standard Nuclear Orientation (Angstroms)
    I     Atom           X                Y                Z
 ----------------------------------------------------------------
    1      C       0.2088860000    -8.5197410000    -0.1743790000
    2      C      -0.4721510000    -7.6359670000     0.6500520000
    3      S       1.1937170000    -7.6517400000    -1.3770580000
    4      C      -0.2251250000    -6.2618940000     0.3531050000
    5      H      -1.1415940000    -7.9547380000     1.4589610000
    6      C       0.6928110000    -6.0799850000    -0.7405830000
    7      C       1.0397730000    -4.7983820000    -1.1955460000
    8      C      -0.8176340000    -5.1535420000     1.0232670000
    9      C      -0.4737540000    -3.8696260000     0.5652620000
   10      C       0.4473500000    -3.6889270000    -0.5277450000
   11      O      -1.6444830000    -5.4810750000     2.0549170000
   12      O       1.8694240000    -4.4798710000    -2.2325920000
   13      C       2.9394660000    -5.3560260000    -2.5654700000
   14      H       3.6014050000    -4.7904960000    -3.2486080000
   15      H       2.5878920000    -6.2685130000    -3.0948850000
   16      H       3.5160520000    -5.6581870000    -1.6645390000
   17      C      -2.6088130000    -4.5469990000     2.5245640000
   18      H      -3.2706610000    -5.1075640000     3.2115680000
   19      H      -3.2166460000    -4.1314730000     1.6923420000
   20      H      -2.1411840000    -3.7120850000     3.0902110000
   21      C       0.6903190000    -2.3143260000    -0.8234020000
   22      S      -0.9855110000    -2.2954870000     1.1949350000
   23      C       0.0000000000    -1.4351800000     0.0000000000
   24      H       1.3612860000    -1.9932110000    -1.6300240000
   25      H       0.2034440000    -9.6159850000    -0.1717190000
   26      C       0.0000000000     0.0000000000     0.0000000000
   27      S       0.3097210000     0.8444220000     1.5107320000
   28      C       0.8475020000     2.3251080000     0.7276290000
   29      C       0.3106020000     0.8534600000    -1.0646650000
   30      C       0.7841730000     2.1590140000    -0.6782870000
   31      C       0.2894510000     0.7905120000    -2.4861500000
   32      C       0.7219270000     1.9791120000    -3.1069160000
   33      S       1.1454640000     3.1525190000    -1.9657350000
   34      C       0.8133550000     2.2166420000    -4.5599720000
   35      O       0.4968840000     1.3384180000    -5.3502770000
   36      O       1.2552740000     3.4213400000    -5.0043750000
   37      F      -0.0879230000    -0.2577610000    -3.2462900000
   38      C       1.3874940000     3.7549370000    -6.3349760000
   39      H       1.7659780000     4.7930560000    -6.3702680000
   40      H       0.4170950000     3.6937890000    -6.8756090000
   41      H       2.0988200000     3.0810330000    -6.8618780000
   42      H       1.1622290000     3.1896230000     1.3215100000
 ----------------------------------------------------------------

   10   -2754.2921783553      8.01e-07  Convergence criterion met
 Total energy in the final basis set =    -2754.2921783553
        RIMP2         total energy =     -2759.3478043851 a.u.

                    Orbital Energies (a.u.)
 --------------------------------------------------------------

 Alpha MOs
 -- Occupied --
-92.0161 -91.9957 -91.9899 -91.9866 -26.3344 -20.6121 -20.5927 -20.5914
-20.5501 -11.4105 -11.3776 -11.3197 -11.3185 -11.3089 -11.2979 -11.2976
-11.2962 -11.2958 -11.2885 -11.2874 -11.2870 -11.2858 -11.2844 -11.2828
-11.2801 -11.2618 -11.2595 -11.2581 -11.2501  -9.0145  -8.9997  -8.9904
 -8.9865  -6.6952  -6.6947  -6.6942  -6.6810  -6.6803  -6.6790  -6.6714
 -6.6707  -6.6698  -6.6675  -6.6669  -6.6660  -1.6475  -1.4719  -1.4168
 -1.4141  -1.3672  -1.2343  -1.1966  -1.1692  -1.1426  -1.0846  -1.0525
 -1.0482  -1.0282  -1.0028  -0.9936  -0.9721  -0.9612  -0.9506  -0.9387
 -0.8964  -0.8698  -0.8503  -0.8037  -0.7942  -0.7881  -0.7726  -0.7704
 -0.7577  -0.7328  -0.7190  -0.7158  -0.7017  -0.6892  -0.6831  -0.6785
 -0.6718  -0.6614  -0.6593  -0.6526  -0.6293  -0.6201  -0.6166  -0.6066
 -0.6027  -0.5950  -0.5845  -0.5761  -0.5707  -0.5633  -0.5533  -0.5504
 -0.5354  -0.5261  -0.5258  -0.5166  -0.5155  -0.5084  -0.5041  -0.4970
 -0.4884  -0.4847  -0.4764  -0.4686  -0.4618  -0.4614  -0.4599  -0.4177
 -0.3976  -0.3865  -0.3588  -0.3502  -0.3229  -0.2858  -0.2517

          Ground-State Mulliken Net Atomic Charges

     Atom                 Charge (a.u.)
  ----------------------------------------
      1 C                    -0.187836
      2 C                    -0.254130
      3 S                    -0.020875
      4 C                    -0.015392
      5 H                     0.196420
      6 C                    -0.029677
      7 C                     0.244640
      8 C                     0.243760
      9 C                    -0.043332
     10 C                    -0.029246
     11 O                    -0.333384
     12 O                    -0.338777
     13 C                    -0.085888
     14 H                     0.123175
     15 H                     0.091279
     16 H                     0.093718
     17 C                    -0.087202
     18 H                     0.125568
     19 H                     0.095387
     20 H                     0.089123
     21 C                    -0.201470
     22 S                    -0.022540
     23 C                    -0.004336
     24 H                     0.197037
     25 H                     0.206625
     26 C                    -0.035889
     27 S                     0.117796
     28 C                    -0.238848
     29 C                    -0.114066
     30 C                    -0.006564
     31 C                     0.381838
     32 C                    -0.148065
     33 S                     0.042415
     34 C                     0.461488
     35 O                    -0.449730
     36 O                    -0.298052
     37 F                    -0.211755
     38 C                    -0.054864
     39 H                     0.116622
     40 H                     0.084752
     41 H                     0.084420
     42 H                     0.215856
  ----------------------------------------
  Sum of atomic charges =     0.000000

                    Cartesian Multipole Moments
 -----------------------------------------------------------------
    Charge (ESU x 10^10)
                 0.0000
    Dipole Moment (Debye)
         X       1.4612      Y       1.4732      Z       3.3957
       Tot       3.9794
    Quadrupole Moments (Debye-Ang)
        XX    -183.5830     XY       3.8047     YY    -159.6642
        XZ     -15.9909     YZ     -10.5961     ZZ    -197.4777

 Total job time:  311.35s(wall), 10655.64s(cpu)
        *  Thank you very much for using Q-Chem.  Have a nice day.  *
