 Q-Chem 5.4, Q-Chem, Inc., Pleasanton, CA (2021)
 Q-Chem 5.4.0 for Intel X86 EM64T Linux

User input:
--------------------------------------------------------------
$molecule
0 1
C	-0.092419	-8.519741	-0.255929
C	0.449364	-7.635967	0.666007
S	-0.885736	-7.651740	-1.592708
C	0.254813	-6.261894	0.332317
H	0.980526	-7.954738	1.571741
C	-0.458965	-6.079985	-0.904324
C	-0.767823	-4.798382	-1.385968
C	0.681909	-5.153542	1.118303
C	0.369139	-3.869626	0.638514
C	-0.342916	-3.688927	-0.600871
O	1.368544	-5.481075	2.248132
O	-1.458570	-4.479871	-2.520275
C	-1.405396	-5.356026	-3.639637
H	-1.820940	-4.790496	-4.495304
H	-2.023129	-6.268513	-3.490336
H	-0.361595	-5.658187	-3.873314
C	1.480048	-4.546999	3.314934
H	1.899255	-5.107564	4.171837
H	0.490123	-4.131473	3.601473
H	2.171521	-3.712085	3.068969
C	-0.537642	-2.314326	-0.930308
S	0.785807	-2.295487	1.334769
C	-0.000000	-1.435180	-0.000000
H	-1.066134	-1.993211	-1.836691
H	-0.091781	-9.615985	-0.249906
C	0.000000	0.000000	0.000000
S	0.451648	0.777811	1.510732
C	1.238377	2.142617	0.727629
C	0.454085	0.786559	-1.064665
C	1.147169	1.990043	-0.678287
C	0.422325	0.728240	-2.486150
C	1.054629	1.823683	-3.106916
S	1.675491	2.905718	-1.965735
C	1.185914	2.041729	-4.559972
O	0.721749	1.231802	-5.350277
O	1.830313	3.151386	-5.004375
F	-0.131347	-0.238577	-3.246290
C	2.018453	3.456956	-6.334976
H	2.571455	4.413580	-6.370268
H	1.052178	3.565244	-6.875609
H	2.601950	2.669768	-6.861878
H	1.698444	2.939346	1.321510
$end

$rem
JOBTYPE		SP
EXCHANGE	HF
CORRELATION	pRIMP2
BASIS		cc-pvtz
METHOD		rimp2
AUX_BASIS	rimp2-cc-pvtz
SOLVENT_METHOD	PCM
PURECART	11111
SYMMETRY	false
MEM_TOTAL	110000
SCF_CONVERGENCE = 6
THRESH=10
GUI = 2
$end

$solvent
dielectric 4.90
$end
--------------------------------------------------------------

             Standard Nuclear Orientation (Angstroms)
    I     Atom           X                Y                Z
 ----------------------------------------------------------------
    1      C      -0.0924190000    -8.5197410000    -0.2559290000
    2      C       0.4493640000    -7.6359670000     0.6660070000
    3      S      -0.8857360000    -7.6517400000    -1.5927080000
    4      C       0.2548130000    -6.2618940000     0.3323170000
    5      H       0.9805260000    -7.9547380000     1.5717410000
    6      C      -0.4589650000    -6.0799850000    -0.9043240000
    7      C      -0.7678230000    -4.7983820000    -1.3859680000
    8      C       0.6819090000    -5.1535420000     1.1183030000
    9      C       0.3691390000    -3.8696260000     0.6385140000
   10      C      -0.3429160000    -3.6889270000    -0.6008710000
   11      O       1.3685440000    -5.4810750000     2.2481320000
   12      O      -1.4585700000    -4.4798710000    -2.5202750000
   13      C      -1.4053960000    -5.3560260000    -3.6396370000
   14      H      -1.8209400000    -4.7904960000    -4.4953040000
   15      H      -2.0231290000    -6.2685130000    -3.4903360000
   16      H      -0.3615950000    -5.6581870000    -3.8733140000
   17      C       1.4800480000    -4.5469990000     3.3149340000
   18      H       1.8992550000    -5.1075640000     4.1718370000
   19      H       0.4901230000    -4.1314730000     3.6014730000
   20      H       2.1715210000    -3.7120850000     3.0689690000
   21      C      -0.5376420000    -2.3143260000    -0.9303080000
   22      S       0.7858070000    -2.2954870000     1.3347690000
   23      C       0.0000000000    -1.4351800000     0.0000000000
   24      H      -1.0661340000    -1.9932110000    -1.8366910000
   25      H      -0.0917810000    -9.6159850000    -0.2499060000
   26      C       0.0000000000     0.0000000000     0.0000000000
   27      S       0.4516480000     0.7778110000     1.5107320000
   28      C       1.2383770000     2.1426170000     0.7276290000
   29      C       0.4540850000     0.7865590000    -1.0646650000
   30      C       1.1471690000     1.9900430000    -0.6782870000
   31      C       0.4223250000     0.7282400000    -2.4861500000
   32      C       1.0546290000     1.8236830000    -3.1069160000
   33      S       1.6754910000     2.9057180000    -1.9657350000
   34      C       1.1859140000     2.0417290000    -4.5599720000
   35      O       0.7217490000     1.2318020000    -5.3502770000
   36      O       1.8303130000     3.1513860000    -5.0043750000
   37      F      -0.1313470000    -0.2385770000    -3.2462900000
   38      C       2.0184530000     3.4569560000    -6.3349760000
   39      H       2.5714550000     4.4135800000    -6.3702680000
   40      H       1.0521780000     3.5652440000    -6.8756090000
   41      H       2.6019500000     2.6697680000    -6.8618780000
   42      H       1.6984440000     2.9393460000     1.3215100000
 ----------------------------------------------------------------

   10   -2754.2806315466      8.23e-07  Convergence criterion met
 Total energy in the final basis set =    -2754.2806315466
        RIMP2         total energy =     -2759.3411813518 a.u.

                    Orbital Energies (a.u.)
 --------------------------------------------------------------

 Alpha MOs
 -- Occupied --
-92.0164 -91.9977 -91.9906 -91.9855 -26.3360 -20.6129 -20.5924 -20.5896
-20.5515 -11.4117 -11.3779 -11.3190 -11.3158 -11.3059 -11.3006 -11.3006
-11.2986 -11.2956 -11.2890 -11.2874 -11.2859 -11.2845 -11.2841 -11.2833
-11.2786 -11.2603 -11.2575 -11.2508 -11.2493  -9.0151  -9.0016  -8.9911
 -8.9854  -6.6958  -6.6952  -6.6948  -6.6829  -6.6822  -6.6809  -6.6720
 -6.6713  -6.6703  -6.6664  -6.6658  -6.6649  -1.6494  -1.4728  -1.4164
 -1.4125  -1.3683  -1.2364  -1.1953  -1.1693  -1.1432  -1.0838  -1.0512
 -1.0492  -1.0295  -1.0019  -0.9930  -0.9733  -0.9602  -0.9499  -0.9380
 -0.8958  -0.8713  -0.8495  -0.8043  -0.7955  -0.7878  -0.7716  -0.7703
 -0.7566  -0.7311  -0.7204  -0.7174  -0.7006  -0.6903  -0.6826  -0.6793
 -0.6733  -0.6615  -0.6587  -0.6515  -0.6286  -0.6190  -0.6156  -0.6077
 -0.6019  -0.5973  -0.5882  -0.5758  -0.5676  -0.5606  -0.5550  -0.5448
 -0.5373  -0.5280  -0.5214  -0.5178  -0.5168  -0.5090  -0.5047  -0.4951
 -0.4862  -0.4855  -0.4755  -0.4682  -0.4622  -0.4617  -0.4600  -0.4213
 -0.3969  -0.3846  -0.3575  -0.3507  -0.3232  -0.2866  -0.2477

          Ground-State Mulliken Net Atomic Charges

     Atom                 Charge (a.u.)
  ----------------------------------------
      1 C                    -0.190641
      2 C                    -0.254642
      3 S                    -0.022761
      4 C                    -0.016225
      5 H                     0.195911
      6 C                    -0.027448
      7 C                     0.239576
      8 C                     0.241199
      9 C                    -0.048937
     10 C                    -0.021627
     11 O                    -0.333089
     12 O                    -0.339767
     13 C                    -0.085571
     14 H                     0.123373
     15 H                     0.090420
     16 H                     0.093624
     17 C                    -0.088059
     18 H                     0.125553
     19 H                     0.094601
     20 H                     0.089371
     21 C                    -0.244346
     22 S                    -0.020371
     23 C                    -0.030126
     24 H                     0.195792
     25 H                     0.206049
     26 C                    -0.006862
     27 S                     0.093436
     28 C                    -0.209866
     29 C                    -0.055068
     30 C                    -0.021761
     31 C                     0.363004
     32 C                    -0.132100
     33 S                     0.048740
     34 C                     0.456228
     35 O                    -0.447957
     36 O                    -0.297781
     37 F                    -0.211072
     38 C                    -0.054834
     39 H                     0.116859
     40 H                     0.084710
     41 H                     0.084795
     42 H                     0.217669
  ----------------------------------------
  Sum of atomic charges =     0.000000

                    Cartesian Multipole Moments
 -----------------------------------------------------------------
    Charge (ESU x 10^10)
                -0.0000
    Dipole Moment (Debye)
         X       2.3558      Y       2.0104      Z       3.0877
       Tot       4.3733
    Quadrupole Moments (Debye-Ang)
        XX    -195.5635     XY       6.0620     YY    -164.6524
        XZ       1.2106     YZ      -8.7846     ZZ    -182.4839

 Total job time:  329.14s(wall), 10872.17s(cpu)
        *  Thank you very much for using Q-Chem.  Have a nice day.  *
