 Q-Chem 5.4, Q-Chem, Inc., Pleasanton, CA (2021)
 Q-Chem 5.4.0 for Intel X86 EM64T Linux

User input:
--------------------------------------------------------------
$molecule
0 1
C	-0.208886	-8.519741	0.174379
C	0.472151	-7.635967	-0.650052
S	-1.193717	-7.651740	1.377058
C	0.225125	-6.261894	-0.353105
H	1.141594	-7.954738	-1.458961
C	-0.692811	-6.079985	0.740583
C	-1.039773	-4.798382	1.195546
C	0.817634	-5.153542	-1.023267
C	0.473754	-3.869626	-0.565262
C	-0.447350	-3.688927	0.527745
O	1.644483	-5.481075	-2.054917
O	-1.869424	-4.479871	2.232592
C	-2.939466	-5.356026	2.565470
H	-3.601405	-4.790496	3.248608
H	-2.587892	-6.268513	3.094885
H	-3.516052	-5.658187	1.664539
C	2.608813	-4.546999	-2.524564
H	3.270661	-5.107564	-3.211568
H	3.216646	-4.131473	-1.692342
H	2.141184	-3.712085	-3.090211
C	-0.690319	-2.314326	0.823402
S	0.985511	-2.295487	-1.194935
C	-0.000000	-1.435180	-0.000000
H	-1.361286	-1.993211	1.630024
H	-0.203444	-9.615985	0.171719
C	0.000000	0.000000	0.000000
S	0.451648	0.777811	1.510732
C	1.238377	2.142617	0.727629
C	0.454085	0.786559	-1.064665
C	1.147169	1.990043	-0.678287
C	0.422325	0.728240	-2.486150
C	1.054629	1.823683	-3.106916
S	1.675491	2.905718	-1.965735
C	1.185914	2.041729	-4.559972
O	0.721749	1.231802	-5.350277
O	1.830313	3.151386	-5.004375
F	-0.131347	-0.238577	-3.246290
C	2.018453	3.456956	-6.334976
H	2.571455	4.413580	-6.370268
H	1.052178	3.565244	-6.875609
H	2.601950	2.669768	-6.861878
H	1.698444	2.939346	1.321510
$end

$rem
JOBTYPE		SP
EXCHANGE	HF
CORRELATION	pRIMP2
BASIS		cc-pvtz
METHOD		rimp2
AUX_BASIS	rimp2-cc-pvtz
SOLVENT_METHOD	PCM
PURECART	11111
SYMMETRY	false
MEM_TOTAL	110000
SCF_CONVERGENCE = 6
THRESH=10
GUI = 2
$end

$solvent
dielectric 4.90
$end
--------------------------------------------------------------

             Standard Nuclear Orientation (Angstroms)
    I     Atom           X                Y                Z
 ----------------------------------------------------------------
    1      C      -0.2088860000    -8.5197410000     0.1743790000
    2      C       0.4721510000    -7.6359670000    -0.6500520000
    3      S      -1.1937170000    -7.6517400000     1.3770580000
    4      C       0.2251250000    -6.2618940000    -0.3531050000
    5      H       1.1415940000    -7.9547380000    -1.4589610000
    6      C      -0.6928110000    -6.0799850000     0.7405830000
    7      C      -1.0397730000    -4.7983820000     1.1955460000
    8      C       0.8176340000    -5.1535420000    -1.0232670000
    9      C       0.4737540000    -3.8696260000    -0.5652620000
   10      C      -0.4473500000    -3.6889270000     0.5277450000
   11      O       1.6444830000    -5.4810750000    -2.0549170000
   12      O      -1.8694240000    -4.4798710000     2.2325920000
   13      C      -2.9394660000    -5.3560260000     2.5654700000
   14      H      -3.6014050000    -4.7904960000     3.2486080000
   15      H      -2.5878920000    -6.2685130000     3.0948850000
   16      H      -3.5160520000    -5.6581870000     1.6645390000
   17      C       2.6088130000    -4.5469990000    -2.5245640000
   18      H       3.2706610000    -5.1075640000    -3.2115680000
   19      H       3.2166460000    -4.1314730000    -1.6923420000
   20      H       2.1411840000    -3.7120850000    -3.0902110000
   21      C      -0.6903190000    -2.3143260000     0.8234020000
   22      S       0.9855110000    -2.2954870000    -1.1949350000
   23      C       0.0000000000    -1.4351800000     0.0000000000
   24      H      -1.3612860000    -1.9932110000     1.6300240000
   25      H      -0.2034440000    -9.6159850000     0.1717190000
   26      C       0.0000000000     0.0000000000     0.0000000000
   27      S       0.4516480000     0.7778110000     1.5107320000
   28      C       1.2383770000     2.1426170000     0.7276290000
   29      C       0.4540850000     0.7865590000    -1.0646650000
   30      C       1.1471690000     1.9900430000    -0.6782870000
   31      C       0.4223250000     0.7282400000    -2.4861500000
   32      C       1.0546290000     1.8236830000    -3.1069160000
   33      S       1.6754910000     2.9057180000    -1.9657350000
   34      C       1.1859140000     2.0417290000    -4.5599720000
   35      O       0.7217490000     1.2318020000    -5.3502770000
   36      O       1.8303130000     3.1513860000    -5.0043750000
   37      F      -0.1313470000    -0.2385770000    -3.2462900000
   38      C       2.0184530000     3.4569560000    -6.3349760000
   39      H       2.5714550000     4.4135800000    -6.3702680000
   40      H       1.0521780000     3.5652440000    -6.8756090000
   41      H       2.6019500000     2.6697680000    -6.8618780000
   42      H       1.6984440000     2.9393460000     1.3215100000
 ----------------------------------------------------------------

   10   -2754.2809090969      8.55e-07  Convergence criterion met
 Total energy in the final basis set =    -2754.2809090969
        RIMP2         total energy =     -2759.3411811359 a.u.

                    Orbital Energies (a.u.)
 --------------------------------------------------------------

 Alpha MOs
 -- Occupied --
-92.0163 -91.9977 -91.9882 -91.9856 -26.3339 -20.6130 -20.5916 -20.5907
-20.5516 -11.4118 -11.3778 -11.3185 -11.3162 -11.3042 -11.3011 -11.3007
-11.2981 -11.2949 -11.2890 -11.2863 -11.2857 -11.2849 -11.2847 -11.2832
-11.2787 -11.2603 -11.2575 -11.2527 -11.2493  -9.0147  -9.0016  -8.9888
 -8.9855  -6.6954  -6.6947  -6.6943  -6.6829  -6.6822  -6.6809  -6.6697
 -6.6690  -6.6681  -6.6665  -6.6659  -6.6650  -1.6476  -1.4729  -1.4157
 -1.4134  -1.3684  -1.2364  -1.1950  -1.1685  -1.1430  -1.0842  -1.0515
 -1.0484  -1.0296  -1.0015  -0.9927  -0.9729  -0.9601  -0.9497  -0.9388
 -0.8951  -0.8710  -0.8490  -0.8077  -0.7925  -0.7869  -0.7753  -0.7648
 -0.7570  -0.7318  -0.7190  -0.7159  -0.6998  -0.6894  -0.6821  -0.6793
 -0.6730  -0.6617  -0.6583  -0.6520  -0.6281  -0.6192  -0.6163  -0.6076
 -0.6042  -0.5969  -0.5833  -0.5750  -0.5673  -0.5638  -0.5571  -0.5515
 -0.5321  -0.5275  -0.5240  -0.5158  -0.5146  -0.5081  -0.5022  -0.4961
 -0.4879  -0.4851  -0.4764  -0.4673  -0.4626  -0.4621  -0.4590  -0.4165
 -0.3963  -0.3861  -0.3592  -0.3495  -0.3216  -0.2864  -0.2496

          Ground-State Mulliken Net Atomic Charges

     Atom                 Charge (a.u.)
  ----------------------------------------
      1 C                    -0.190468
      2 C                    -0.254136
      3 S                    -0.024385
      4 C                    -0.017343
      5 H                     0.196296
      6 C                    -0.025272
      7 C                     0.234160
      8 C                     0.241599
      9 C                    -0.044679
     10 C                    -0.004572
     11 O                    -0.333140
     12 O                    -0.340307
     13 C                    -0.085546
     14 H                     0.122056
     15 H                     0.090761
     16 H                     0.094104
     17 C                    -0.088994
     18 H                     0.125587
     19 H                     0.094044
     20 H                     0.091120
     21 C                    -0.271218
     22 S                    -0.012146
     23 C                     0.005068
     24 H                     0.193725
     25 H                     0.206108
     26 C                     0.003592
     27 S                     0.129139
     28 C                    -0.223708
     29 C                    -0.130512
     30 C                    -0.008193
     31 C                     0.364335
     32 C                    -0.140894
     33 S                     0.049782
     34 C                     0.459515
     35 O                    -0.447330
     36 O                    -0.297796
     37 F                    -0.207903
     38 C                    -0.054840
     39 H                     0.116878
     40 H                     0.084948
     41 H                     0.084673
     42 H                     0.215892
  ----------------------------------------
  Sum of atomic charges =     0.000000

                    Cartesian Multipole Moments
 -----------------------------------------------------------------
    Charge (ESU x 10^10)
                -0.0000
    Dipole Moment (Debye)
         X       2.0105      Y       2.0191      Z       2.7642
       Tot       3.9698
    Quadrupole Moments (Debye-Ang)
        XX    -181.4480     XY       8.3828     YY    -164.6611
        XZ     -17.7554     YZ      -8.3299     ZZ    -196.4985

 Total job time:  303.24s(wall), 9909.98s(cpu)
        *  Thank you very much for using Q-Chem.  Have a nice day.  *
