 Q-Chem 5.4, Q-Chem, Inc., Pleasanton, CA (2021)
 Q-Chem 5.4.0 for Intel X86 EM64T Linux

User input:
--------------------------------------------------------------
$molecule
0 1
C	-0.268090	-8.519741	0.046574
C	0.733920	-7.635967	-0.326886
S	-1.722318	-7.651740	0.595708
C	0.371516	-6.261894	-0.193236
H	1.718130	-7.954738	-0.692700
C	-0.970283	-6.079985	0.294958
C	-1.498243	-4.798382	0.515487
C	1.219725	-5.153542	-0.477358
C	0.692914	-3.869626	-0.252655
C	-0.651289	-3.688927	0.233366
O	2.451623	-5.481075	-0.957369
O	-2.735264	-4.479871	0.998769
C	-3.828387	-5.356026	0.752029
H	-4.743213	-4.790496	1.012675
H	-3.788623	-6.268513	1.386303
H	-3.877260	-5.658187	-0.316492
C	3.521580	-4.546999	-0.881930
H	4.438260	-5.107564	-1.145969
H	3.631868	-4.131473	0.142712
H	3.399425	-3.712085	-1.605610
C	-1.009535	-2.314326	0.367928
S	1.450945	-2.295487	-0.542088
C	-0.000000	-1.435180	-0.000000
H	-1.993920	-1.993211	0.730999
H	-0.262047	-9.615985	0.046991
C	0.000000	0.000000	0.000000
S	0.382139	0.814215	1.510732
C	1.046923	2.242395	0.727629
C	0.383804	0.823142	-1.064665
C	0.969360	2.082453	-0.678287
C	0.357247	0.762277	-2.486150
C	0.891671	1.908660	-3.106916
S	1.415865	3.040689	-1.965735
C	1.003453	2.137318	-4.559972
O	0.611644	1.290019	-5.350277
O	1.548687	3.298916	-5.004375
F	-0.110054	-0.249117	-3.246290
C	1.709479	3.619721	-6.334976
H	2.177001	4.620902	-6.370268
H	0.737443	3.643380	-6.875609
H	2.359363	2.886384	-6.861878
H	1.435800	3.076190	1.321510
$end

$rem
JOBTYPE		SP
EXCHANGE	HF
CORRELATION	pRIMP2
BASIS		cc-pvtz
METHOD		rimp2
AUX_BASIS	rimp2-cc-pvtz
SOLVENT_METHOD	PCM
PURECART	11111
SYMMETRY	false
MEM_TOTAL	110000
SCF_CONVERGENCE = 6
THRESH=10
GUI = 2
$end

$solvent
dielectric 4.90
$end
--------------------------------------------------------------

             Standard Nuclear Orientation (Angstroms)
    I     Atom           X                Y                Z
 ----------------------------------------------------------------
    1      C      -0.2680900000    -8.5197410000     0.0465740000
    2      C       0.7339200000    -7.6359670000    -0.3268860000
    3      S      -1.7223180000    -7.6517400000     0.5957080000
    4      C       0.3715160000    -6.2618940000    -0.1932360000
    5      H       1.7181300000    -7.9547380000    -0.6927000000
    6      C      -0.9702830000    -6.0799850000     0.2949580000
    7      C      -1.4982430000    -4.7983820000     0.5154870000
    8      C       1.2197250000    -5.1535420000    -0.4773580000
    9      C       0.6929140000    -3.8696260000    -0.2526550000
   10      C      -0.6512890000    -3.6889270000     0.2333660000
   11      O       2.4516230000    -5.4810750000    -0.9573690000
   12      O      -2.7352640000    -4.4798710000     0.9987690000
   13      C      -3.8283870000    -5.3560260000     0.7520290000
   14      H      -4.7432130000    -4.7904960000     1.0126750000
   15      H      -3.7886230000    -6.2685130000     1.3863030000
   16      H      -3.8772600000    -5.6581870000    -0.3164920000
   17      C       3.5215800000    -4.5469990000    -0.8819300000
   18      H       4.4382600000    -5.1075640000    -1.1459690000
   19      H       3.6318680000    -4.1314730000     0.1427120000
   20      H       3.3994250000    -3.7120850000    -1.6056100000
   21      C      -1.0095350000    -2.3143260000     0.3679280000
   22      S       1.4509450000    -2.2954870000    -0.5420880000
   23      C       0.0000000000    -1.4351800000     0.0000000000
   24      H      -1.9939200000    -1.9932110000     0.7309990000
   25      H      -0.2620470000    -9.6159850000     0.0469910000
   26      C       0.0000000000     0.0000000000     0.0000000000
   27      S       0.3821390000     0.8142150000     1.5107320000
   28      C       1.0469230000     2.2423950000     0.7276290000
   29      C       0.3838040000     0.8231420000    -1.0646650000
   30      C       0.9693600000     2.0824530000    -0.6782870000
   31      C       0.3572470000     0.7622770000    -2.4861500000
   32      C       0.8916710000     1.9086600000    -3.1069160000
   33      S       1.4158650000     3.0406890000    -1.9657350000
   34      C       1.0034530000     2.1373180000    -4.5599720000
   35      O       0.6116440000     1.2900190000    -5.3502770000
   36      O       1.5486870000     3.2989160000    -5.0043750000
   37      F      -0.1100540000    -0.2491170000    -3.2462900000
   38      C       1.7094790000     3.6197210000    -6.3349760000
   39      H       2.1770010000     4.6209020000    -6.3702680000
   40      H       0.7374430000     3.6433800000    -6.8756090000
   41      H       2.3593630000     2.8863840000    -6.8618780000
   42      H       1.4358000000     3.0761900000     1.3215100000
 ----------------------------------------------------------------

   10   -2754.2859210704      8.63e-07  Convergence criterion met
 Total energy in the final basis set =    -2754.2859210704
        RIMP2         total energy =     -2759.3421054958 a.u.

                    Orbital Energies (a.u.)
 --------------------------------------------------------------

 Alpha MOs
 -- Occupied --
-92.0162 -91.9962 -91.9893 -91.9863 -26.3339 -20.6125 -20.5921 -20.5914
-20.5510 -11.4111 -11.3771 -11.3190 -11.3179 -11.3038 -11.2994 -11.2985
-11.2966 -11.2924 -11.2887 -11.2869 -11.2860 -11.2859 -11.2839 -11.2838
-11.2798 -11.2601 -11.2590 -11.2564 -11.2498  -9.0144  -9.0001  -8.9896
 -8.9862  -6.6951  -6.6945  -6.6940  -6.6814  -6.6807  -6.6794  -6.6706
 -6.6699  -6.6689  -6.6672  -6.6665  -6.6657  -1.6468  -1.4723  -1.4163
 -1.4142  -1.3678  -1.2346  -1.1955  -1.1683  -1.1423  -1.0838  -1.0518
 -1.0479  -1.0283  -1.0020  -0.9928  -0.9718  -0.9610  -0.9503  -0.9384
 -0.8956  -0.8700  -0.8495  -0.8058  -0.7906  -0.7880  -0.7744  -0.7671
 -0.7576  -0.7324  -0.7179  -0.7151  -0.7007  -0.6891  -0.6827  -0.6788
 -0.6718  -0.6607  -0.6590  -0.6525  -0.6300  -0.6199  -0.6170  -0.6070
 -0.6031  -0.5958  -0.5817  -0.5785  -0.5665  -0.5655  -0.5562  -0.5499
 -0.5347  -0.5269  -0.5242  -0.5158  -0.5138  -0.5084  -0.5013  -0.4953
 -0.4899  -0.4847  -0.4742  -0.4683  -0.4621  -0.4616  -0.4604  -0.4065
 -0.4014  -0.3864  -0.3567  -0.3501  -0.3157  -0.2889  -0.2576

          Ground-State Mulliken Net Atomic Charges

     Atom                 Charge (a.u.)
  ----------------------------------------
      1 C                    -0.187860
      2 C                    -0.254751
      3 S                    -0.022498
      4 C                    -0.013345
      5 H                     0.196385
      6 C                    -0.027089
      7 C                     0.241871
      8 C                     0.241048
      9 C                    -0.042072
     10 C                    -0.016813
     11 O                    -0.333187
     12 O                    -0.339838
     13 C                    -0.085637
     14 H                     0.122466
     15 H                     0.090910
     16 H                     0.094505
     17 C                    -0.086981
     18 H                     0.125149
     19 H                     0.094240
     20 H                     0.090363
     21 C                    -0.234252
     22 S                    -0.003779
     23 C                    -0.050606
     24 H                     0.196537
     25 H                     0.206479
     26 C                     0.011195
     27 S                     0.125174
     28 C                    -0.228288
     29 C                    -0.146637
     30 C                     0.002938
     31 C                     0.390252
     32 C                    -0.152143
     33 S                     0.045079
     34 C                     0.460094
     35 O                    -0.447967
     36 O                    -0.297790
     37 F                    -0.209813
     38 C                    -0.054826
     39 H                     0.116663
     40 H                     0.084797
     41 H                     0.084663
     42 H                     0.215361
  ----------------------------------------
  Sum of atomic charges =     0.000000

                    Cartesian Multipole Moments
 -----------------------------------------------------------------
    Charge (ESU x 10^10)
                -0.0000
    Dipole Moment (Debye)
         X       1.6777      Y       1.6625      Z       2.9278
       Tot       3.7618
    Quadrupole Moments (Debye-Ang)
        XX    -173.8805     XY       7.1510     YY    -161.5131
        XZ      -7.7172     YZ      -8.6261     ZZ    -205.6097

 Total job time:  311.70s(wall), 9595.17s(cpu)
        *  Thank you very much for using Q-Chem.  Have a nice day.  *
