 Q-Chem 5.4, Q-Chem, Inc., Pleasanton, CA (2021)
 Q-Chem 5.4.0 for Intel X86 EM64T Linux

User input:
--------------------------------------------------------------
$molecule
0 1
C	0.135457	-8.519741	0.235993
C	-0.558188	-7.635967	-0.577858
S	1.148850	-7.651740	1.414705
C	-0.308648	-6.261894	-0.283020
H	-1.238560	-7.954738	-1.377597
C	0.609026	-6.079985	0.810887
C	0.996828	-4.798382	1.231581
C	-0.865740	-5.153542	-0.982901
C	-0.474408	-3.869626	-0.564713
C	0.442046	-3.688927	0.532196
O	-1.738137	-5.481075	-1.976332
O	1.874052	-4.479871	2.228709
C	2.016062	-5.356026	3.340298
H	2.573877	-4.790496	4.110807
H	2.598484	-6.268513	3.085998
H	1.028695	-5.658187	3.751679
C	-2.033195	-4.546999	-3.007565
H	-2.594833	-5.107564	-3.778655
H	-1.108067	-4.131473	-3.461650
H	-2.671451	-3.712085	-2.645264
C	0.691020	-2.314326	0.822814
S	-1.005649	-2.295487	-1.178037
C	0.000000	-1.435180	0.000000
H	1.368875	-1.993211	1.623656
H	0.133782	-9.615985	0.230172
C	0.000000	0.000000	0.000000
S	0.080615	0.895811	1.510732
C	0.216842	2.465231	0.727629
C	0.079127	0.904769	-1.064665
C	0.198659	2.288406	-0.678287
C	0.074988	0.838492	-2.486150
C	0.185097	2.098524	-3.106916
S	0.290501	3.341568	-1.965735
C	0.211932	2.351623	-4.559972
O	0.133545	1.421416	-5.350277
O	0.326994	3.629649	-5.004375
F	-0.018214	-0.271734	-3.246290
C	0.368367	3.986101	-6.334976
H	0.465270	5.086806	-6.370268
H	-0.553140	3.675878	-6.875609
H	1.229874	3.519263	-6.861878
H	0.297091	3.381746	1.321510
$end

$rem
JOBTYPE		SP
EXCHANGE	HF
CORRELATION	pRIMP2
BASIS		cc-pvtz
METHOD		rimp2
AUX_BASIS	rimp2-cc-pvtz
SOLVENT_METHOD	PCM
PURECART	11111
SYMMETRY	false
MEM_TOTAL	110000
SCF_CONVERGENCE = 6
THRESH=10
GUI = 2
$end

$solvent
dielectric 4.90
$end
--------------------------------------------------------------

             Standard Nuclear Orientation (Angstroms)
    I     Atom           X                Y                Z
 ----------------------------------------------------------------
    1      C       0.1354570000    -8.5197410000     0.2359930000
    2      C      -0.5581880000    -7.6359670000    -0.5778580000
    3      S       1.1488500000    -7.6517400000     1.4147050000
    4      C      -0.3086480000    -6.2618940000    -0.2830200000
    5      H      -1.2385600000    -7.9547380000    -1.3775970000
    6      C       0.6090260000    -6.0799850000     0.8108870000
    7      C       0.9968280000    -4.7983820000     1.2315810000
    8      C      -0.8657400000    -5.1535420000    -0.9829010000
    9      C      -0.4744080000    -3.8696260000    -0.5647130000
   10      C       0.4420460000    -3.6889270000     0.5321960000
   11      O      -1.7381370000    -5.4810750000    -1.9763320000
   12      O       1.8740520000    -4.4798710000     2.2287090000
   13      C       2.0160620000    -5.3560260000     3.3402980000
   14      H       2.5738770000    -4.7904960000     4.1108070000
   15      H       2.5984840000    -6.2685130000     3.0859980000
   16      H       1.0286950000    -5.6581870000     3.7516790000
   17      C      -2.0331950000    -4.5469990000    -3.0075650000
   18      H      -2.5948330000    -5.1075640000    -3.7786550000
   19      H      -1.1080670000    -4.1314730000    -3.4616500000
   20      H      -2.6714510000    -3.7120850000    -2.6452640000
   21      C       0.6910200000    -2.3143260000     0.8228140000
   22      S      -1.0056490000    -2.2954870000    -1.1780370000
   23      C       0.0000000000    -1.4351800000     0.0000000000
   24      H       1.3688750000    -1.9932110000     1.6236560000
   25      H       0.1337820000    -9.6159850000     0.2301720000
   26      C       0.0000000000     0.0000000000     0.0000000000
   27      S       0.0806150000     0.8958110000     1.5107320000
   28      C       0.2168420000     2.4652310000     0.7276290000
   29      C       0.0791270000     0.9047690000    -1.0646650000
   30      C       0.1986590000     2.2884060000    -0.6782870000
   31      C       0.0749880000     0.8384920000    -2.4861500000
   32      C       0.1850970000     2.0985240000    -3.1069160000
   33      S       0.2905010000     3.3415680000    -1.9657350000
   34      C       0.2119320000     2.3516230000    -4.5599720000
   35      O       0.1335450000     1.4214160000    -5.3502770000
   36      O       0.3269940000     3.6296490000    -5.0043750000
   37      F      -0.0182140000    -0.2717340000    -3.2462900000
   38      C       0.3683670000     3.9861010000    -6.3349760000
   39      H       0.4652700000     5.0868060000    -6.3702680000
   40      H      -0.5531400000     3.6758780000    -6.8756090000
   41      H       1.2298740000     3.5192630000    -6.8618780000
   42      H       0.2970910000     3.3817460000     1.3215100000
 ----------------------------------------------------------------

   10   -2754.2966666301      8.07e-07  Convergence criterion met
 Total energy in the final basis set =    -2754.2966666301
        RIMP2         total energy =     -2759.3508718967 a.u.

                    Orbital Energies (a.u.)
 --------------------------------------------------------------

 Alpha MOs
 -- Occupied --
-92.0162 -91.9945 -91.9883 -91.9866 -26.3338 -20.6118 -20.5922 -20.5918
-20.5495 -11.4099 -11.3777 -11.3190 -11.3189 -11.3129 -11.2969 -11.2965
-11.2963 -11.2924 -11.2884 -11.2867 -11.2866 -11.2861 -11.2841 -11.2820
-11.2802 -11.2617 -11.2596 -11.2595 -11.2501  -9.0144  -8.9985  -8.9889
 -8.9865  -6.6951  -6.6945  -6.6940  -6.6798  -6.6791  -6.6778  -6.6698
 -6.6691  -6.6681  -6.6675  -6.6669  -6.6660  -1.6476  -1.4715  -1.4161
 -1.4148  -1.3667  -1.2335  -1.1965  -1.1688  -1.1419  -1.0846  -1.0524
 -1.0475  -1.0280  -1.0026  -0.9936  -0.9717  -0.9611  -0.9502  -0.9384
 -0.8960  -0.8691  -0.8515  -0.8081  -0.7920  -0.7874  -0.7749  -0.7650
 -0.7584  -0.7328  -0.7186  -0.7156  -0.7008  -0.6883  -0.6837  -0.6783
 -0.6716  -0.6614  -0.6588  -0.6527  -0.6298  -0.6201  -0.6167  -0.6062
 -0.6014  -0.5944  -0.5870  -0.5739  -0.5696  -0.5677  -0.5569  -0.5522
 -0.5310  -0.5269  -0.5226  -0.5178  -0.5150  -0.5086  -0.5017  -0.4945
 -0.4881  -0.4833  -0.4797  -0.4672  -0.4616  -0.4607  -0.4603  -0.4178
 -0.3967  -0.3868  -0.3586  -0.3502  -0.3221  -0.2854  -0.2517

          Ground-State Mulliken Net Atomic Charges

     Atom                 Charge (a.u.)
  ----------------------------------------
      1 C                    -0.187203
      2 C                    -0.254061
      3 S                    -0.022237
      4 C                    -0.013020
      5 H                     0.196734
      6 C                    -0.029696
      7 C                     0.244809
      8 C                     0.240414
      9 C                    -0.045709
     10 C                    -0.030011
     11 O                    -0.333636
     12 O                    -0.340092
     13 C                    -0.085756
     14 H                     0.122551
     15 H                     0.091443
     16 H                     0.094100
     17 C                    -0.087713
     18 H                     0.124803
     19 H                     0.096396
     20 H                     0.089470
     21 C                    -0.239592
     22 S                    -0.001039
     23 C                    -0.003759
     24 H                     0.196928
     25 H                     0.206643
     26 C                    -0.008160
     27 S                     0.105155
     28 C                    -0.238755
     29 C                    -0.095943
     30 C                    -0.013414
     31 C                     0.384103
     32 C                    -0.146912
     33 S                     0.036534
     34 C                     0.459798
     35 O                    -0.451531
     36 O                    -0.297971
     37 F                    -0.209298
     38 C                    -0.055088
     39 H                     0.116564
     40 H                     0.084359
     41 H                     0.084443
     42 H                     0.215347
  ----------------------------------------
  Sum of atomic charges =     0.000000

                    Cartesian Multipole Moments
 -----------------------------------------------------------------
    Charge (ESU x 10^10)
                -0.0000
    Dipole Moment (Debye)
         X       0.0472      Y       1.4215      Z       3.2709
       Tot       3.5667
    Quadrupole Moments (Debye-Ang)
        XX    -196.7076     XY       2.3322     YY    -158.7424
        XZ       9.3214     YZ     -11.4746     ZZ    -186.3794

 Total job time:  279.07s(wall), 9269.63s(cpu)
        *  Thank you very much for using Q-Chem.  Have a nice day.  *
