 Q-Chem 5.4, Q-Chem, Inc., Pleasanton, CA (2021)
 Q-Chem 5.4.0 for Intel X86 EM64T Linux

User input:
--------------------------------------------------------------
$molecule
0 1
C	-0.255929	-8.519741	0.092419
C	0.666007	-7.635967	-0.449364
S	-1.592708	-7.651740	0.885736
C	0.332317	-6.261894	-0.254813
H	1.571741	-7.954738	-0.980526
C	-0.904324	-6.079985	0.458965
C	-1.385968	-4.798382	0.767823
C	1.118303	-5.153542	-0.681909
C	0.638514	-3.869626	-0.369139
C	-0.600871	-3.688927	0.342916
O	2.248132	-5.481075	-1.368544
O	-2.520275	-4.479871	1.458570
C	-3.639637	-5.356026	1.405396
H	-4.495304	-4.790496	1.820940
H	-3.490336	-6.268513	2.023129
H	-3.873314	-5.658187	0.361595
C	3.314934	-4.546999	-1.480048
H	4.171837	-5.107564	-1.899255
H	3.601473	-4.131473	-0.490123
H	3.068969	-3.712085	-2.171521
C	-0.930308	-2.314326	0.537642
S	1.334769	-2.295487	-0.785807
C	0.000000	-1.435180	0.000000
H	-1.836691	-1.993211	1.066134
H	-0.249906	-9.615985	0.091781
C	0.000000	0.000000	0.000000
S	0.002233	0.899428	1.510732
C	0.001157	2.474749	0.727629
C	-0.000030	0.908223	-1.064665
C	-0.001545	2.297013	-0.678287
C	0.001624	0.841837	-2.486150
C	0.001494	2.106670	-3.106916
S	-0.001841	3.354171	-1.965735
C	0.006168	2.361146	-4.559972
O	0.009152	1.427646	-5.350277
O	0.009405	3.644337	-5.004375
F	0.005539	-0.272288	-3.246290
C	0.019554	4.003038	-6.334976
H	0.020155	5.108000	-6.370268
H	-0.871409	3.613681	-6.875609
H	0.918470	3.613062	-6.861878
H	0.001222	3.394771	1.321510
$end

$rem
JOBTYPE		SP
EXCHANGE	HF
CORRELATION	pRIMP2
BASIS		cc-pvtz
METHOD		rimp2
AUX_BASIS	rimp2-cc-pvtz
SOLVENT_METHOD	PCM
PURECART	11111
SYMMETRY	false
MEM_TOTAL	110000
SCF_CONVERGENCE = 6
THRESH=10
GUI = 2
$end

$solvent
dielectric 4.90
$end
--------------------------------------------------------------

             Standard Nuclear Orientation (Angstroms)
    I     Atom           X                Y                Z
 ----------------------------------------------------------------
    1      C      -0.2559290000    -8.5197410000     0.0924190000
    2      C       0.6660070000    -7.6359670000    -0.4493640000
    3      S      -1.5927080000    -7.6517400000     0.8857360000
    4      C       0.3323170000    -6.2618940000    -0.2548130000
    5      H       1.5717410000    -7.9547380000    -0.9805260000
    6      C      -0.9043240000    -6.0799850000     0.4589650000
    7      C      -1.3859680000    -4.7983820000     0.7678230000
    8      C       1.1183030000    -5.1535420000    -0.6819090000
    9      C       0.6385140000    -3.8696260000    -0.3691390000
   10      C      -0.6008710000    -3.6889270000     0.3429160000
   11      O       2.2481320000    -5.4810750000    -1.3685440000
   12      O      -2.5202750000    -4.4798710000     1.4585700000
   13      C      -3.6396370000    -5.3560260000     1.4053960000
   14      H      -4.4953040000    -4.7904960000     1.8209400000
   15      H      -3.4903360000    -6.2685130000     2.0231290000
   16      H      -3.8733140000    -5.6581870000     0.3615950000
   17      C       3.3149340000    -4.5469990000    -1.4800480000
   18      H       4.1718370000    -5.1075640000    -1.8992550000
   19      H       3.6014730000    -4.1314730000    -0.4901230000
   20      H       3.0689690000    -3.7120850000    -2.1715210000
   21      C      -0.9303080000    -2.3143260000     0.5376420000
   22      S       1.3347690000    -2.2954870000    -0.7858070000
   23      C       0.0000000000    -1.4351800000     0.0000000000
   24      H      -1.8366910000    -1.9932110000     1.0661340000
   25      H      -0.2499060000    -9.6159850000     0.0917810000
   26      C       0.0000000000     0.0000000000     0.0000000000
   27      S       0.0022330000     0.8994280000     1.5107320000
   28      C       0.0011570000     2.4747490000     0.7276290000
   29      C      -0.0000300000     0.9082230000    -1.0646650000
   30      C      -0.0015450000     2.2970130000    -0.6782870000
   31      C       0.0016240000     0.8418370000    -2.4861500000
   32      C       0.0014940000     2.1066700000    -3.1069160000
   33      S      -0.0018410000     3.3541710000    -1.9657350000
   34      C       0.0061680000     2.3611460000    -4.5599720000
   35      O       0.0091520000     1.4276460000    -5.3502770000
   36      O       0.0094050000     3.6443370000    -5.0043750000
   37      F       0.0055390000    -0.2722880000    -3.2462900000
   38      C       0.0195540000     4.0030380000    -6.3349760000
   39      H       0.0201550000     5.1080000000    -6.3702680000
   40      H      -0.8714090000     3.6136810000    -6.8756090000
   41      H       0.9184700000     3.6130620000    -6.8618780000
   42      H       0.0012220000     3.3947710000     1.3215100000
 ----------------------------------------------------------------

   10   -2754.2968792774      8.56e-07  Convergence criterion met
 Total energy in the final basis set =    -2754.2968792774
        RIMP2         total energy =     -2759.3495568282 a.u.

                    Orbital Energies (a.u.)
 --------------------------------------------------------------

 Alpha MOs
 -- Occupied --
-92.0167 -91.9943 -91.9898 -91.9868 -26.3337 -20.6117 -20.5923 -20.5922
-20.5495 -11.4099 -11.3773 -11.3194 -11.3191 -11.3113 -11.2964 -11.2963
-11.2949 -11.2924 -11.2883 -11.2870 -11.2868 -11.2865 -11.2844 -11.2820
-11.2805 -11.2615 -11.2599 -11.2599 -11.2502  -9.0147  -8.9983  -8.9901
 -8.9867  -6.6954  -6.6948  -6.6944  -6.6796  -6.6789  -6.6776  -6.6711
 -6.6704  -6.6694  -6.6677  -6.6670  -6.6662  -1.6468  -1.4715  -1.4165
 -1.4149  -1.3667  -1.2330  -1.1965  -1.1686  -1.1417  -1.0844  -1.0525
 -1.0472  -1.0276  -1.0027  -0.9935  -0.9712  -0.9615  -0.9506  -0.9385
 -0.8961  -0.8689  -0.8512  -0.8067  -0.7904  -0.7882  -0.7747  -0.7664
 -0.7587  -0.7330  -0.7180  -0.7149  -0.7012  -0.6883  -0.6836  -0.6782
 -0.6709  -0.6608  -0.6593  -0.6529  -0.6306  -0.6204  -0.6171  -0.6061
 -0.6018  -0.5941  -0.5849  -0.5767  -0.5690  -0.5659  -0.5569  -0.5523
 -0.5328  -0.5263  -0.5251  -0.5163  -0.5142  -0.5081  -0.5013  -0.4961
 -0.4899  -0.4839  -0.4767  -0.4680  -0.4616  -0.4610  -0.4597  -0.4123
 -0.3989  -0.3871  -0.3580  -0.3495  -0.3188  -0.2868  -0.2565

          Ground-State Mulliken Net Atomic Charges

     Atom                 Charge (a.u.)
  ----------------------------------------
      1 C                    -0.186819
      2 C                    -0.254026
      3 S                    -0.021771
      4 C                    -0.013143
      5 H                     0.196700
      6 C                    -0.027877
      7 C                     0.246878
      8 C                     0.239469
      9 C                    -0.044170
     10 C                    -0.030372
     11 O                    -0.333164
     12 O                    -0.339947
     13 C                    -0.085638
     14 H                     0.122667
     15 H                     0.091016
     16 H                     0.094647
     17 C                    -0.086528
     18 H                     0.124992
     19 H                     0.094291
     20 H                     0.090716
     21 C                    -0.230565
     22 S                    -0.000986
     23 C                    -0.029489
     24 H                     0.198628
     25 H                     0.206730
     26 C                    -0.010660
     27 S                     0.116478
     28 C                    -0.242651
     29 C                    -0.102716
     30 C                    -0.006915
     31 C                     0.395019
     32 C                    -0.153854
     33 S                     0.036650
     34 C                     0.460546
     35 O                    -0.450862
     36 O                    -0.297954
     37 F                    -0.210579
     38 C                    -0.055010
     39 H                     0.116491
     40 H                     0.084567
     41 H                     0.084350
     42 H                     0.214861
  ----------------------------------------
  Sum of atomic charges =     0.000000

                    Cartesian Multipole Moments
 -----------------------------------------------------------------
    Charge (ESU x 10^10)
                -0.0000
    Dipole Moment (Debye)
         X      -0.0455      Y       1.3872      Z       3.0284
       Tot       3.3313
    Quadrupole Moments (Debye-Ang)
        XX    -178.5051     XY       1.1872     YY    -158.0531
        XZ      -7.1207     YZ      -9.4175     ZZ    -204.6898

 Total job time:  310.74s(wall), 9751.73s(cpu)
        *  Thank you very much for using Q-Chem.  Have a nice day.  *
