 Q-Chem 5.4, Q-Chem, Inc., Pleasanton, CA (2021)
 Q-Chem 5.4.0 for Intel X86 EM64T Linux

User input:
--------------------------------------------------------------
$molecule
0 1
C	-0.268090	-8.519741	0.046574
C	0.733920	-7.635967	-0.326886
S	-1.722318	-7.651740	0.595708
C	0.371516	-6.261894	-0.193236
H	1.718130	-7.954738	-0.692700
C	-0.970283	-6.079985	0.294958
C	-1.498243	-4.798382	0.515487
C	1.219725	-5.153542	-0.477358
C	0.692914	-3.869626	-0.252655
C	-0.651289	-3.688927	0.233366
O	2.451623	-5.481075	-0.957369
O	-2.735264	-4.479871	0.998769
C	-3.828387	-5.356026	0.752029
H	-4.743213	-4.790496	1.012675
H	-3.788623	-6.268513	1.386303
H	-3.877260	-5.658187	-0.316492
C	3.521580	-4.546999	-0.881930
H	4.438260	-5.107564	-1.145969
H	3.631868	-4.131473	0.142712
H	3.399425	-3.712085	-1.605610
C	-1.009535	-2.314326	0.367928
S	1.450945	-2.295487	-0.542088
C	0.000000	-1.435180	0.000000
H	-1.993920	-1.993211	0.730999
H	-0.262047	-9.615985	0.046991
C	0.000000	0.000000	0.000000
S	0.309721	0.844422	1.510732
C	0.847502	2.325108	0.727629
C	0.310602	0.853460	-1.064665
C	0.784173	2.159014	-0.678287
C	0.289451	0.790512	-2.486150
C	0.721927	1.979112	-3.106916
S	1.145464	3.152519	-1.965735
C	0.813355	2.216642	-4.559972
O	0.496884	1.338418	-5.350277
O	1.255274	3.421340	-5.004375
F	-0.087923	-0.257761	-3.246290
C	1.387494	3.754937	-6.334976
H	1.765978	4.793056	-6.370268
H	0.417095	3.693789	-6.875609
H	2.098820	3.081033	-6.861878
H	1.162229	3.189623	1.321510
$end

$rem
JOBTYPE		SP
EXCHANGE	HF
CORRELATION	pRIMP2
BASIS		cc-pvtz
METHOD		rimp2
AUX_BASIS	rimp2-cc-pvtz
SOLVENT_METHOD	PCM
PURECART	11111
SYMMETRY	false
MEM_TOTAL	110000
SCF_CONVERGENCE = 6
THRESH=10
GUI = 2
$end

$solvent
dielectric 4.90
$end
--------------------------------------------------------------

             Standard Nuclear Orientation (Angstroms)
    I     Atom           X                Y                Z
 ----------------------------------------------------------------
    1      C      -0.2680900000    -8.5197410000     0.0465740000
    2      C       0.7339200000    -7.6359670000    -0.3268860000
    3      S      -1.7223180000    -7.6517400000     0.5957080000
    4      C       0.3715160000    -6.2618940000    -0.1932360000
    5      H       1.7181300000    -7.9547380000    -0.6927000000
    6      C      -0.9702830000    -6.0799850000     0.2949580000
    7      C      -1.4982430000    -4.7983820000     0.5154870000
    8      C       1.2197250000    -5.1535420000    -0.4773580000
    9      C       0.6929140000    -3.8696260000    -0.2526550000
   10      C      -0.6512890000    -3.6889270000     0.2333660000
   11      O       2.4516230000    -5.4810750000    -0.9573690000
   12      O      -2.7352640000    -4.4798710000     0.9987690000
   13      C      -3.8283870000    -5.3560260000     0.7520290000
   14      H      -4.7432130000    -4.7904960000     1.0126750000
   15      H      -3.7886230000    -6.2685130000     1.3863030000
   16      H      -3.8772600000    -5.6581870000    -0.3164920000
   17      C       3.5215800000    -4.5469990000    -0.8819300000
   18      H       4.4382600000    -5.1075640000    -1.1459690000
   19      H       3.6318680000    -4.1314730000     0.1427120000
   20      H       3.3994250000    -3.7120850000    -1.6056100000
   21      C      -1.0095350000    -2.3143260000     0.3679280000
   22      S       1.4509450000    -2.2954870000    -0.5420880000
   23      C       0.0000000000    -1.4351800000     0.0000000000
   24      H      -1.9939200000    -1.9932110000     0.7309990000
   25      H      -0.2620470000    -9.6159850000     0.0469910000
   26      C       0.0000000000     0.0000000000     0.0000000000
   27      S       0.3097210000     0.8444220000     1.5107320000
   28      C       0.8475020000     2.3251080000     0.7276290000
   29      C       0.3106020000     0.8534600000    -1.0646650000
   30      C       0.7841730000     2.1590140000    -0.6782870000
   31      C       0.2894510000     0.7905120000    -2.4861500000
   32      C       0.7219270000     1.9791120000    -3.1069160000
   33      S       1.1454640000     3.1525190000    -1.9657350000
   34      C       0.8133550000     2.2166420000    -4.5599720000
   35      O       0.4968840000     1.3384180000    -5.3502770000
   36      O       1.2552740000     3.4213400000    -5.0043750000
   37      F      -0.0879230000    -0.2577610000    -3.2462900000
   38      C       1.3874940000     3.7549370000    -6.3349760000
   39      H       1.7659780000     4.7930560000    -6.3702680000
   40      H       0.4170950000     3.6937890000    -6.8756090000
   41      H       2.0988200000     3.0810330000    -6.8618780000
   42      H       1.1622290000     3.1896230000     1.3215100000
 ----------------------------------------------------------------

   10   -2754.2897294298      8.69e-07  Convergence criterion met
 Total energy in the final basis set =    -2754.2897294298
        RIMP2         total energy =     -2759.3444597852 a.u.

                    Orbital Energies (a.u.)
 --------------------------------------------------------------

 Alpha MOs
 -- Occupied --
-92.0163 -91.9954 -91.9897 -91.9865 -26.3339 -20.6122 -20.5923 -20.5917
-20.5505 -11.4107 -11.3771 -11.3192 -11.3184 -11.3062 -11.2984 -11.2969
-11.2958 -11.2929 -11.2885 -11.2869 -11.2864 -11.2861 -11.2840 -11.2832
-11.2801 -11.2605 -11.2594 -11.2576 -11.2500  -9.0144  -8.9994  -8.9900
 -8.9864  -6.6951  -6.6945  -6.6941  -6.6807  -6.6800  -6.6787  -6.6710
 -6.6703  -6.6693  -6.6674  -6.6667  -6.6659  -1.6468  -1.4720  -1.4164
 -1.4144  -1.3674  -1.2340  -1.1958  -1.1683  -1.1421  -1.0840  -1.0521
 -1.0476  -1.0280  -1.0023  -0.9930  -0.9715  -0.9612  -0.9504  -0.9384
 -0.8958  -0.8695  -0.8501  -0.8058  -0.7904  -0.7882  -0.7744  -0.7671
 -0.7580  -0.7326  -0.7179  -0.7151  -0.7009  -0.6888  -0.6830  -0.6786
 -0.6714  -0.6607  -0.6591  -0.6527  -0.6303  -0.6201  -0.6171  -0.6067
 -0.6027  -0.5952  -0.5821  -0.5785  -0.5669  -0.5657  -0.5564  -0.5505
 -0.5347  -0.5266  -0.5244  -0.5160  -0.5139  -0.5083  -0.5012  -0.4954
 -0.4900  -0.4844  -0.4750  -0.4684  -0.4619  -0.4614  -0.4603  -0.4071
 -0.4011  -0.3868  -0.3570  -0.3499  -0.3161  -0.2885  -0.2579

          Ground-State Mulliken Net Atomic Charges

     Atom                 Charge (a.u.)
  ----------------------------------------
      1 C                    -0.187323
      2 C                    -0.254753
      3 S                    -0.022177
      4 C                    -0.012842
      5 H                     0.196479
      6 C                    -0.027235
      7 C                     0.243829
      8 C                     0.240563
      9 C                    -0.041551
     10 C                    -0.019372
     11 O                    -0.333151
     12 O                    -0.339823
     13 C                    -0.085652
     14 H                     0.122551
     15 H                     0.090979
     16 H                     0.094584
     17 C                    -0.086877
     18 H                     0.125113
     19 H                     0.094290
     20 H                     0.090448
     21 C                    -0.232967
     22 S                    -0.002091
     23 C                    -0.049497
     24 H                     0.196605
     25 H                     0.206584
     26 C                     0.011764
     27 S                     0.123115
     28 C                    -0.234085
     29 C                    -0.139318
     30 C                     0.002006
     31 C                     0.391874
     32 C                    -0.154207
     33 S                     0.042435
     34 C                     0.460468
     35 O                    -0.448835
     36 O                    -0.297843
     37 F                    -0.210122
     38 C                    -0.054856
     39 H                     0.116586
     40 H                     0.084753
     41 H                     0.084531
     42 H                     0.215023
  ----------------------------------------
  Sum of atomic charges =     0.000000

                    Cartesian Multipole Moments
 -----------------------------------------------------------------
    Charge (ESU x 10^10)
                 0.0000
    Dipole Moment (Debye)
         X       1.2950      Y       1.5604      Z       2.9698
       Tot       3.5960
    Quadrupole Moments (Debye-Ang)
        XX    -174.8727     XY       6.0980     YY    -160.1784
        XZ      -6.7960     YZ      -8.8959     ZZ    -205.9023

 Total job time:  315.00s(wall), 10439.67s(cpu)
        *  Thank you very much for using Q-Chem.  Have a nice day.  *
