 Q-Chem 5.4, Q-Chem, Inc., Pleasanton, CA (2021)
 Q-Chem 5.4.0 for Intel X86 EM64T Linux

User input:
--------------------------------------------------------------
$molecule
0 1
C	-0.272104	-8.519741	-0.000687
C	0.779533	-7.635967	-0.194476
S	-1.799596	-7.651740	0.287581
C	0.399427	-6.261894	-0.125787
H	1.812314	-7.954738	-0.383826
C	-1.006762	-6.079985	0.121989
C	-1.564994	-4.798382	0.247488
C	1.284087	-5.153542	-0.258303
C	0.726260	-3.869626	-0.128493
C	-0.681918	-3.688927	0.116725
O	2.580622	-5.481075	-0.517104
O	-2.867144	-4.479871	0.508622
C	-3.900814	-5.356026	0.075811
H	-4.847002	-4.790496	0.173640
H	-3.971794	-6.268513	0.707354
H	-3.763397	-5.658187	-0.984963
C	3.621225	-4.546999	-0.257016
H	4.569828	-5.107564	-0.357864
H	3.551910	-4.131473	0.771211
H	3.626592	-3.712085	-0.990913
C	-1.058088	-2.314326	0.187034
S	1.523035	-2.295487	-0.281899
C	-0.000000	-1.435180	-0.000000
H	-2.090565	-1.993211	0.373653
H	-0.266226	-9.615985	0.000773
C	0.000000	0.000000	0.000000
S	0.451648	0.777811	1.510732
C	1.238377	2.142617	0.727629
C	0.454085	0.786559	-1.064665
C	1.147169	1.990043	-0.678287
C	0.422325	0.728240	-2.486150
C	1.054629	1.823683	-3.106916
S	1.675491	2.905718	-1.965735
C	1.185914	2.041729	-4.559972
O	0.721749	1.231802	-5.350277
O	1.830313	3.151386	-5.004375
F	-0.131347	-0.238577	-3.246290
C	2.018453	3.456956	-6.334976
H	2.571455	4.413580	-6.370268
H	1.052178	3.565244	-6.875609
H	2.601950	2.669768	-6.861878
H	1.698444	2.939346	1.321510
$end

$rem
JOBTYPE		SP
EXCHANGE	HF
CORRELATION	pRIMP2
BASIS		cc-pvtz
METHOD		rimp2
AUX_BASIS	rimp2-cc-pvtz
SOLVENT_METHOD	PCM
PURECART	11111
SYMMETRY	false
MEM_TOTAL	110000
SCF_CONVERGENCE = 6
THRESH=10
GUI = 2
$end

$solvent
dielectric 4.90
$end
--------------------------------------------------------------

             Standard Nuclear Orientation (Angstroms)
    I     Atom           X                Y                Z
 ----------------------------------------------------------------
    1      C      -0.2721040000    -8.5197410000    -0.0006870000
    2      C       0.7795330000    -7.6359670000    -0.1944760000
    3      S      -1.7995960000    -7.6517400000     0.2875810000
    4      C       0.3994270000    -6.2618940000    -0.1257870000
    5      H       1.8123140000    -7.9547380000    -0.3838260000
    6      C      -1.0067620000    -6.0799850000     0.1219890000
    7      C      -1.5649940000    -4.7983820000     0.2474880000
    8      C       1.2840870000    -5.1535420000    -0.2583030000
    9      C       0.7262600000    -3.8696260000    -0.1284930000
   10      C      -0.6819180000    -3.6889270000     0.1167250000
   11      O       2.5806220000    -5.4810750000    -0.5171040000
   12      O      -2.8671440000    -4.4798710000     0.5086220000
   13      C      -3.9008140000    -5.3560260000     0.0758110000
   14      H      -4.8470020000    -4.7904960000     0.1736400000
   15      H      -3.9717940000    -6.2685130000     0.7073540000
   16      H      -3.7633970000    -5.6581870000    -0.9849630000
   17      C       3.6212250000    -4.5469990000    -0.2570160000
   18      H       4.5698280000    -5.1075640000    -0.3578640000
   19      H       3.5519100000    -4.1314730000     0.7712110000
   20      H       3.6265920000    -3.7120850000    -0.9909130000
   21      C      -1.0580880000    -2.3143260000     0.1870340000
   22      S       1.5230350000    -2.2954870000    -0.2818990000
   23      C       0.0000000000    -1.4351800000     0.0000000000
   24      H      -2.0905650000    -1.9932110000     0.3736530000
   25      H      -0.2662260000    -9.6159850000     0.0007730000
   26      C       0.0000000000     0.0000000000     0.0000000000
   27      S       0.4516480000     0.7778110000     1.5107320000
   28      C       1.2383770000     2.1426170000     0.7276290000
   29      C       0.4540850000     0.7865590000    -1.0646650000
   30      C       1.1471690000     1.9900430000    -0.6782870000
   31      C       0.4223250000     0.7282400000    -2.4861500000
   32      C       1.0546290000     1.8236830000    -3.1069160000
   33      S       1.6754910000     2.9057180000    -1.9657350000
   34      C       1.1859140000     2.0417290000    -4.5599720000
   35      O       0.7217490000     1.2318020000    -5.3502770000
   36      O       1.8303130000     3.1513860000    -5.0043750000
   37      F      -0.1313470000    -0.2385770000    -3.2462900000
   38      C       2.0184530000     3.4569560000    -6.3349760000
   39      H       2.5714550000     4.4135800000    -6.3702680000
   40      H       1.0521780000     3.5652440000    -6.8756090000
   41      H       2.6019500000     2.6697680000    -6.8618780000
   42      H       1.6984440000     2.9393460000     1.3215100000
 ----------------------------------------------------------------

   10   -2754.2805403505      8.75e-07  Convergence criterion met
 Total energy in the final basis set =    -2754.2805403505
        RIMP2         total energy =     -2759.3381889996 a.u.

                    Orbital Energies (a.u.)
 --------------------------------------------------------------

 Alpha MOs
 -- Occupied --
-92.0158 -91.9970 -91.9882 -91.9860 -26.3338 -20.6129 -20.5919 -20.5911
-20.5516 -11.4117 -11.3768 -11.3186 -11.3175 -11.3010 -11.3007 -11.3000
-11.2968 -11.2911 -11.2888 -11.2868 -11.2857 -11.2854 -11.2850 -11.2834
-11.2795 -11.2593 -11.2587 -11.2552 -11.2496  -9.0141  -9.0009  -8.9886
 -8.9859  -6.6948  -6.6941  -6.6937  -6.6821  -6.6815  -6.6802  -6.6695
 -6.6688  -6.6679  -6.6669  -6.6663  -6.6654  -1.6467  -1.4728  -1.4160
 -1.4138  -1.3683  -1.2352  -1.1949  -1.1681  -1.1425  -1.0833  -1.0514
 -1.0481  -1.0286  -1.0014  -0.9924  -0.9720  -0.9608  -0.9501  -0.9381
 -0.8952  -0.8704  -0.8486  -0.8050  -0.7909  -0.7876  -0.7741  -0.7677
 -0.7571  -0.7321  -0.7179  -0.7151  -0.7005  -0.6895  -0.6822  -0.6791
 -0.6722  -0.6605  -0.6587  -0.6522  -0.6299  -0.6196  -0.6169  -0.6074
 -0.6032  -0.5965  -0.5819  -0.5786  -0.5661  -0.5647  -0.5557  -0.5483
 -0.5354  -0.5270  -0.5236  -0.5155  -0.5136  -0.5083  -0.5012  -0.4943
 -0.4901  -0.4851  -0.4726  -0.4683  -0.4625  -0.4618  -0.4606  -0.4044
 -0.4013  -0.3862  -0.3559  -0.3502  -0.3129  -0.2909  -0.2586

          Ground-State Mulliken Net Atomic Charges

     Atom                 Charge (a.u.)
  ----------------------------------------
      1 C                    -0.188317
      2 C                    -0.254727
      3 S                    -0.022712
      4 C                    -0.013255
      5 H                     0.196283
      6 C                    -0.028043
      7 C                     0.242212
      8 C                     0.240785
      9 C                    -0.041942
     10 C                    -0.020303
     11 O                    -0.333300
     12 O                    -0.339744
     13 C                    -0.085567
     14 H                     0.122433
     15 H                     0.090723
     16 H                     0.094498
     17 C                    -0.086775
     18 H                     0.124996
     19 H                     0.094158
     20 H                     0.090130
     21 C                    -0.221871
     22 S                    -0.004401
     23 C                    -0.068999
     24 H                     0.196706
     25 H                     0.206380
     26 C                     0.004016
     27 S                     0.126183
     28 C                    -0.220237
     29 C                    -0.137035
     30 C                     0.004507
     31 C                     0.382705
     32 C                    -0.150570
     33 S                     0.047925
     34 C                     0.459406
     35 O                    -0.446798
     36 O                    -0.297639
     37 F                    -0.209314
     38 C                    -0.054888
     39 H                     0.116758
     40 H                     0.084880
     41 H                     0.084862
     42 H                     0.215892
  ----------------------------------------
  Sum of atomic charges =     0.000000

                    Cartesian Multipole Moments
 -----------------------------------------------------------------
    Charge (ESU x 10^10)
                 0.0000
    Dipole Moment (Debye)
         X       2.1147      Y       1.7634      Z       2.8670
       Tot       3.9751
    Quadrupole Moments (Debye-Ang)
        XX    -172.4327     XY       7.9530     YY    -163.0029
        XZ      -4.2469     YZ      -8.2072     ZZ    -205.4703

 Total job time:  331.62s(wall), 10770.33s(cpu)
        *  Thank you very much for using Q-Chem.  Have a nice day.  *
