 Q-Chem 5.4, Q-Chem, Inc., Pleasanton, CA (2021)
 Q-Chem 5.4.0 for Intel X86 EM64T Linux

User input:
--------------------------------------------------------------
$molecule
0 1
C	0.208002	-8.519741	0.175432
C	-0.722164	-7.635967	-0.352097
S	1.563424	-7.651740	0.936458
C	-0.386833	-6.261894	-0.160388
H	-1.635031	-7.954738	-0.870905
C	0.849637	-6.079985	0.553685
C	1.357938	-4.798382	0.816372
C	-1.149702	-5.153542	-0.627524
C	-0.638941	-3.869626	-0.368399
C	0.597409	-3.688927	0.348912
O	-2.309260	-5.481075	-1.262667
O	2.523296	-4.479871	1.453338
C	3.036927	-5.356026	2.449320
H	3.824632	-4.790496	2.982577
H	3.497250	-6.268513	2.011155
H	2.249807	-5.658187	3.173591
C	-2.939226	-4.546999	-2.130793
H	-3.730721	-5.107564	-2.663289
H	-2.225196	-4.131473	-2.873906
H	-3.415077	-3.712085	-1.572045
C	0.930765	-2.314326	0.536849
S	-1.347913	-2.295487	-0.763041
C	-0.000000	-1.435180	-0.000000
H	1.841645	-1.993211	1.057554
H	0.204438	-9.615985	0.170535
C	0.000000	0.000000	0.000000
S	0.382139	0.814215	1.510732
C	1.046923	2.242395	0.727629
C	0.383804	0.823142	-1.064665
C	0.969360	2.082453	-0.678287
C	0.357247	0.762277	-2.486150
C	0.891671	1.908660	-3.106916
S	1.415865	3.040689	-1.965735
C	1.003453	2.137318	-4.559972
O	0.611644	1.290019	-5.350277
O	1.548687	3.298916	-5.004375
F	-0.110054	-0.249117	-3.246290
C	1.709479	3.619721	-6.334976
H	2.177001	4.620902	-6.370268
H	0.737443	3.643380	-6.875609
H	2.359363	2.886384	-6.861878
H	1.435800	3.076190	1.321510
$end

$rem
JOBTYPE		SP
EXCHANGE	HF
CORRELATION	pRIMP2
BASIS		cc-pvtz
METHOD		rimp2
AUX_BASIS	rimp2-cc-pvtz
SOLVENT_METHOD	PCM
PURECART	11111
SYMMETRY	false
MEM_TOTAL	110000
SCF_CONVERGENCE = 6
THRESH=10
GUI = 2
$end

$solvent
dielectric 4.90
$end
--------------------------------------------------------------

             Standard Nuclear Orientation (Angstroms)
    I     Atom           X                Y                Z
 ----------------------------------------------------------------
    1      C       0.2080020000    -8.5197410000     0.1754320000
    2      C      -0.7221640000    -7.6359670000    -0.3520970000
    3      S       1.5634240000    -7.6517400000     0.9364580000
    4      C      -0.3868330000    -6.2618940000    -0.1603880000
    5      H      -1.6350310000    -7.9547380000    -0.8709050000
    6      C       0.8496370000    -6.0799850000     0.5536850000
    7      C       1.3579380000    -4.7983820000     0.8163720000
    8      C      -1.1497020000    -5.1535420000    -0.6275240000
    9      C      -0.6389410000    -3.8696260000    -0.3683990000
   10      C       0.5974090000    -3.6889270000     0.3489120000
   11      O      -2.3092600000    -5.4810750000    -1.2626670000
   12      O       2.5232960000    -4.4798710000     1.4533380000
   13      C       3.0369270000    -5.3560260000     2.4493200000
   14      H       3.8246320000    -4.7904960000     2.9825770000
   15      H       3.4972500000    -6.2685130000     2.0111550000
   16      H       2.2498070000    -5.6581870000     3.1735910000
   17      C      -2.9392260000    -4.5469990000    -2.1307930000
   18      H      -3.7307210000    -5.1075640000    -2.6632890000
   19      H      -2.2251960000    -4.1314730000    -2.8739060000
   20      H      -3.4150770000    -3.7120850000    -1.5720450000
   21      C       0.9307650000    -2.3143260000     0.5368490000
   22      S      -1.3479130000    -2.2954870000    -0.7630410000
   23      C       0.0000000000    -1.4351800000     0.0000000000
   24      H       1.8416450000    -1.9932110000     1.0575540000
   25      H       0.2044380000    -9.6159850000     0.1705350000
   26      C       0.0000000000     0.0000000000     0.0000000000
   27      S       0.3821390000     0.8142150000     1.5107320000
   28      C       1.0469230000     2.2423950000     0.7276290000
   29      C       0.3838040000     0.8231420000    -1.0646650000
   30      C       0.9693600000     2.0824530000    -0.6782870000
   31      C       0.3572470000     0.7622770000    -2.4861500000
   32      C       0.8916710000     1.9086600000    -3.1069160000
   33      S       1.4158650000     3.0406890000    -1.9657350000
   34      C       1.0034530000     2.1373180000    -4.5599720000
   35      O       0.6116440000     1.2900190000    -5.3502770000
   36      O       1.5486870000     3.2989160000    -5.0043750000
   37      F      -0.1100540000    -0.2491170000    -3.2462900000
   38      C       1.7094790000     3.6197210000    -6.3349760000
   39      H       2.1770010000     4.6209020000    -6.3702680000
   40      H       0.7374430000     3.6433800000    -6.8756090000
   41      H       2.3593630000     2.8863840000    -6.8618780000
   42      H       1.4358000000     3.0761900000     1.3215100000
 ----------------------------------------------------------------

   10   -2754.2854914229      8.95e-07  Convergence criterion met
 Total energy in the final basis set =    -2754.2854914229
        RIMP2         total energy =     -2759.3426136853 a.u.

                    Orbital Energies (a.u.)
 --------------------------------------------------------------

 Alpha MOs
 -- Occupied --
-92.0170 -91.9962 -91.9871 -91.9859 -26.3338 -20.6124 -20.5915 -20.5913
-20.5508 -11.4110 -11.3768 -11.3184 -11.3174 -11.3048 -11.2991 -11.2984
-11.2968 -11.2949 -11.2886 -11.2861 -11.2859 -11.2849 -11.2848 -11.2834
-11.2793 -11.2603 -11.2583 -11.2566 -11.2495  -9.0151  -9.0001  -8.9875
 -8.9858  -6.6957  -6.6951  -6.6947  -6.6814  -6.6807  -6.6794  -6.6685
 -6.6678  -6.6668  -6.6668  -6.6662  -6.6653  -1.6469  -1.4723  -1.4157
 -1.4140  -1.3677  -1.2345  -1.1952  -1.1682  -1.1422  -1.0837  -1.0513
 -1.0480  -1.0285  -1.0013  -0.9928  -0.9719  -0.9604  -0.9497  -0.9386
 -0.8948  -0.8701  -0.8492  -0.8067  -0.7907  -0.7875  -0.7749  -0.7665
 -0.7573  -0.7319  -0.7181  -0.7152  -0.7005  -0.6890  -0.6825  -0.6788
 -0.6719  -0.6606  -0.6582  -0.6522  -0.6298  -0.6196  -0.6161  -0.6069
 -0.6019  -0.5964  -0.5862  -0.5738  -0.5701  -0.5667  -0.5547  -0.5525
 -0.5294  -0.5272  -0.5227  -0.5161  -0.5140  -0.5078  -0.5017  -0.4930
 -0.4896  -0.4854  -0.4760  -0.4657  -0.4618  -0.4616  -0.4595  -0.4123
 -0.3975  -0.3859  -0.3580  -0.3479  -0.3175  -0.2885  -0.2552

          Ground-State Mulliken Net Atomic Charges

     Atom                 Charge (a.u.)
  ----------------------------------------
      1 C                    -0.189107
      2 C                    -0.254099
      3 S                    -0.023178
      4 C                    -0.015501
      5 H                     0.196394
      6 C                    -0.029183
      7 C                     0.241489
      8 C                     0.244372
      9 C                    -0.048160
     10 C                    -0.022309
     11 O                    -0.333771
     12 O                    -0.340444
     13 C                    -0.085555
     14 H                     0.122207
     15 H                     0.091160
     16 H                     0.093834
     17 C                    -0.086645
     18 H                     0.124387
     19 H                     0.096051
     20 H                     0.089326
     21 C                    -0.228690
     22 S                    -0.001916
     23 C                    -0.026251
     24 H                     0.200965
     25 H                     0.206282
     26 C                    -0.042148
     27 S                     0.114735
     28 C                    -0.223499
     29 C                    -0.078112
     30 C                    -0.008476
     31 C                     0.367812
     32 C                    -0.146203
     33 S                     0.044968
     34 C                     0.458087
     35 O                    -0.448434
     36 O                    -0.297789
     37 F                    -0.209222
     38 C                    -0.054826
     39 H                     0.116655
     40 H                     0.084604
     41 H                     0.084698
     42 H                     0.215493
  ----------------------------------------
  Sum of atomic charges =     0.000000

                    Cartesian Multipole Moments
 -----------------------------------------------------------------
    Charge (ESU x 10^10)
                -0.0000
    Dipole Moment (Debye)
         X       1.4250      Y       1.8441      Z       3.2912
       Tot       4.0328
    Quadrupole Moments (Debye-Ang)
        XX    -185.6272     XY       6.8931     YY    -162.8804
        XZ       7.8665     YZ     -11.0971     ZZ    -194.1111

 Total job time:  314.31s(wall), 9467.02s(cpu)
        *  Thank you very much for using Q-Chem.  Have a nice day.  *
