 Q-Chem 5.4, Q-Chem, Inc., Pleasanton, CA (2021)
 Q-Chem 5.4.0 for Intel X86 EM64T Linux

User input:
--------------------------------------------------------------
$molecule
0 1
C	-0.255459	-8.519741	-0.093711
C	0.799036	-7.635967	0.083869
S	-1.789425	-7.651740	-0.345260
C	0.418360	-6.261894	0.018411
H	1.834294	-7.954738	0.259169
C	-0.987769	-6.079985	-0.229701
C	-1.555260	-4.798382	-0.302697
C	1.294992	-5.153542	0.196459
C	0.726408	-3.869626	0.127651
C	-0.680716	-3.688927	-0.123544
O	2.601852	-5.481075	0.396706
O	-2.868193	-4.479871	-0.502673
C	-3.691495	-5.356026	-1.262918
H	-4.614080	-4.790496	-1.494604
H	-3.974195	-6.268513	-0.693738
H	-3.199559	-5.658187	-2.212720
C	3.490743	-4.546999	0.997016
H	4.416630	-5.107564	1.226691
H	3.073934	-4.131473	1.939526
H	3.746794	-3.712085	0.309214
C	-1.058247	-2.314326	-0.186133
S	1.527599	-2.295487	0.256010
C	-0.000000	-1.435180	-0.000000
H	-2.092285	-1.993211	-0.363896
H	-0.250435	-9.615985	-0.090328
C	0.000000	0.000000	0.000000
S	0.579852	0.687566	1.510732
C	1.591625	1.895024	0.727629
C	0.583771	0.695758	-1.064665
C	1.475308	1.760606	-0.678287
C	0.542366	0.643841	-2.486150
C	1.355286	1.612843	-3.106916
S	2.154609	2.570627	-1.965735
C	1.522440	1.804778	-4.559972
O	0.924684	1.087757	-5.350277
O	2.349739	2.785679	-5.004375
F	-0.170780	-0.212144	-3.246290
C	2.588082	3.053936	-6.334976
H	3.298799	3.899999	-6.370268
H	1.655291	3.328371	-6.875609
H	3.026021	2.177385	-6.861878
H	2.183053	2.599759	1.321510
$end

$rem
JOBTYPE		SP
EXCHANGE	HF
CORRELATION	pRIMP2
BASIS		cc-pvtz
METHOD		rimp2
AUX_BASIS	rimp2-cc-pvtz
SOLVENT_METHOD	PCM
PURECART	11111
SYMMETRY	false
MEM_TOTAL	110000
SCF_CONVERGENCE = 6
THRESH=10
GUI = 2
$end

$solvent
dielectric 4.90
$end
--------------------------------------------------------------

             Standard Nuclear Orientation (Angstroms)
    I     Atom           X                Y                Z
 ----------------------------------------------------------------
    1      C      -0.2554590000    -8.5197410000    -0.0937110000
    2      C       0.7990360000    -7.6359670000     0.0838690000
    3      S      -1.7894250000    -7.6517400000    -0.3452600000
    4      C       0.4183600000    -6.2618940000     0.0184110000
    5      H       1.8342940000    -7.9547380000     0.2591690000
    6      C      -0.9877690000    -6.0799850000    -0.2297010000
    7      C      -1.5552600000    -4.7983820000    -0.3026970000
    8      C       1.2949920000    -5.1535420000     0.1964590000
    9      C       0.7264080000    -3.8696260000     0.1276510000
   10      C      -0.6807160000    -3.6889270000    -0.1235440000
   11      O       2.6018520000    -5.4810750000     0.3967060000
   12      O      -2.8681930000    -4.4798710000    -0.5026730000
   13      C      -3.6914950000    -5.3560260000    -1.2629180000
   14      H      -4.6140800000    -4.7904960000    -1.4946040000
   15      H      -3.9741950000    -6.2685130000    -0.6937380000
   16      H      -3.1995590000    -5.6581870000    -2.2127200000
   17      C       3.4907430000    -4.5469990000     0.9970160000
   18      H       4.4166300000    -5.1075640000     1.2266910000
   19      H       3.0739340000    -4.1314730000     1.9395260000
   20      H       3.7467940000    -3.7120850000     0.3092140000
   21      C      -1.0582470000    -2.3143260000    -0.1861330000
   22      S       1.5275990000    -2.2954870000     0.2560100000
   23      C       0.0000000000    -1.4351800000     0.0000000000
   24      H      -2.0922850000    -1.9932110000    -0.3638960000
   25      H      -0.2504350000    -9.6159850000    -0.0903280000
   26      C       0.0000000000     0.0000000000     0.0000000000
   27      S       0.5798520000     0.6875660000     1.5107320000
   28      C       1.5916250000     1.8950240000     0.7276290000
   29      C       0.5837710000     0.6957580000    -1.0646650000
   30      C       1.4753080000     1.7606060000    -0.6782870000
   31      C       0.5423660000     0.6438410000    -2.4861500000
   32      C       1.3552860000     1.6128430000    -3.1069160000
   33      S       2.1546090000     2.5706270000    -1.9657350000
   34      C       1.5224400000     1.8047780000    -4.5599720000
   35      O       0.9246840000     1.0877570000    -5.3502770000
   36      O       2.3497390000     2.7856790000    -5.0043750000
   37      F      -0.1707800000    -0.2121440000    -3.2462900000
   38      C       2.5880820000     3.0539360000    -6.3349760000
   39      H       3.2987990000     3.8999990000    -6.3702680000
   40      H       1.6552910000     3.3283710000    -6.8756090000
   41      H       3.0260210000     2.1773850000    -6.8618780000
   42      H       2.1830530000     2.5997590000     1.3215100000
 ----------------------------------------------------------------

   11   -2754.2670799324      4.74e-07  Convergence criterion met
 Total energy in the final basis set =    -2754.2670799324
        RIMP2         total energy =     -2759.3290815890 a.u.

                    Orbital Energies (a.u.)
 --------------------------------------------------------------

 Alpha MOs
 -- Occupied --
-92.0152 -91.9992 -91.9859 -91.9852 -26.3337 -20.6138 -20.5916 -20.5900
-20.5532 -11.4130 -11.3764 -11.3178 -11.3160 -11.3076 -11.3039 -11.2977
-11.2922 -11.2897 -11.2893 -11.2880 -11.2868 -11.2850 -11.2839 -11.2825
-11.2786 -11.2578 -11.2575 -11.2513 -11.2491  -9.0138  -9.0030  -8.9866
 -8.9852  -6.6944  -6.6937  -6.6934  -6.6842  -6.6836  -6.6823  -6.6675
 -6.6668  -6.6662  -6.6658  -6.6655  -6.6647  -1.6466  -1.4737  -1.4156
 -1.4128  -1.3695  -1.2372  -1.1939  -1.1682  -1.1430  -1.0827  -1.0503
 -1.0490  -1.0296  -1.0003  -0.9919  -0.9730  -0.9601  -0.9497  -0.9377
 -0.8945  -0.8718  -0.8468  -0.8036  -0.7923  -0.7867  -0.7740  -0.7684
 -0.7557  -0.7312  -0.7179  -0.7152  -0.7000  -0.6905  -0.6811  -0.6799
 -0.6735  -0.6604  -0.6582  -0.6516  -0.6294  -0.6189  -0.6165  -0.6086
 -0.6035  -0.5983  -0.5846  -0.5770  -0.5657  -0.5632  -0.5547  -0.5443
 -0.5362  -0.5274  -0.5224  -0.5148  -0.5135  -0.5082  -0.5015  -0.4922
 -0.4902  -0.4860  -0.4703  -0.4676  -0.4636  -0.4624  -0.4608  -0.4082
 -0.3960  -0.3854  -0.3550  -0.3504  -0.3095  -0.2940  -0.2574

          Ground-State Mulliken Net Atomic Charges

     Atom                 Charge (a.u.)
  ----------------------------------------
      1 C                    -0.190011
      2 C                    -0.254731
      3 S                    -0.023605
      4 C                    -0.014946
      5 H                     0.195938
      6 C                    -0.028207
      7 C                     0.241107
      8 C                     0.240411
      9 C                    -0.042391
     10 C                    -0.023411
     11 O                    -0.333570
     12 O                    -0.339803
     13 C                    -0.085496
     14 H                     0.122327
     15 H                     0.090385
     16 H                     0.094180
     17 C                    -0.086533
     18 H                     0.124892
     19 H                     0.093920
     20 H                     0.089564
     21 C                    -0.216397
     22 S                    -0.010869
     23 C                    -0.080219
     24 H                     0.195952
     25 H                     0.206025
     26 C                    -0.035414
     27 S                     0.127039
     28 C                    -0.199474
     29 C                    -0.085867
     30 C                    -0.003562
     31 C                     0.363476
     32 C                    -0.142667
     33 S                     0.054520
     34 C                     0.458289
     35 O                    -0.444194
     36 O                    -0.297338
     37 F                    -0.208839
     38 C                    -0.054671
     39 H                     0.116948
     40 H                     0.085115
     41 H                     0.085084
     42 H                     0.217043
  ----------------------------------------
  Sum of atomic charges =     0.000000

                    Cartesian Multipole Moments
 -----------------------------------------------------------------
    Charge (ESU x 10^10)
                -0.0000
    Dipole Moment (Debye)
         X       3.1324      Y       2.0544      Z       2.7483
       Tot       4.6460
    Quadrupole Moments (Debye-Ang)
        XX    -173.3922     XY       8.8663     YY    -167.2823
        XZ       1.5877     YZ      -7.2592     ZZ    -200.5912

 Total job time:  300.64s(wall), 9785.43s(cpu)
        *  Thank you very much for using Q-Chem.  Have a nice day.  *
