 Q-Chem 5.4, Q-Chem, Inc., Pleasanton, CA (2021)
 Q-Chem 5.4.0 for Intel X86 EM64T Linux

User input:
--------------------------------------------------------------
$molecule
0 1
C	1.432238	-8.398629	0.267851
C	1.270668	-7.529711	-0.801461
S	1.299871	-7.540578	1.822194
C	1.033679	-6.176229	-0.415201
H	1.318997	-7.844878	-1.851431
C	1.001923	-5.997113	1.012650
C	0.805626	-4.730351	1.584194
C	0.863981	-5.080701	-1.309433
C	0.671533	-3.810912	-0.737539
C	0.637166	-3.633485	0.691828
O	0.891580	-5.408420	-2.631211
O	0.780896	-4.411287	2.911907
C	0.336511	-5.379315	3.854716
H	0.171379	-4.834178	4.803517
H	1.095324	-6.172080	4.034285
H	-0.616308	-5.854145	3.535185
C	1.159578	-4.412679	-3.610841
H	1.321333	-4.953370	-4.562544
H	2.072791	-3.829719	-3.364029
H	0.303747	-3.715791	-3.743566
C	0.402329	-2.279087	1.074491
S	0.385663	-2.262896	-1.548848
C	0.249216	-1.413377	0.000000
H	0.350996	-1.962069	2.123688
H	1.625021	-9.477792	0.262315
C	0.000000	0.000000	0.000000
S	0.158383	0.885376	1.510732
C	0.430876	2.436951	0.727629
C	0.157682	0.894430	-1.064665
C	0.397351	2.262384	-0.678287
C	0.147783	0.828765	-2.486150
C	0.367291	2.074406	-3.106916
S	0.580633	3.303533	-1.965735
C	0.416083	2.324204	-4.559972
O	0.256921	1.404367	-5.350277
O	0.642094	3.587338	-5.004375
F	-0.041828	-0.269113	-3.246290
C	0.714377	3.938827	-6.334976
H	0.906844	5.026898	-6.370268
H	-0.230661	3.710099	-6.875609
H	1.531918	3.398681	-6.861878
H	0.590699	3.342984	1.321510
$end

$rem
JOBTYPE		SP
EXCHANGE	HF
CORRELATION	pRIMP2
BASIS		cc-pvtz
METHOD		rimp2
AUX_BASIS	rimp2-cc-pvtz
SOLVENT_METHOD	PCM
PURECART	11111
SYMMETRY	false
MEM_TOTAL	110000
SCF_CONVERGENCE = 6
THRESH=10
GUI = 2
$end

$solvent
dielectric 4.90
$end
--------------------------------------------------------------

             Standard Nuclear Orientation (Angstroms)
    I     Atom           X                Y                Z
 ----------------------------------------------------------------
    1      C       1.4322380000    -8.3986290000     0.2678510000
    2      C       1.2706680000    -7.5297110000    -0.8014610000
    3      S       1.2998710000    -7.5405780000     1.8221940000
    4      C       1.0336790000    -6.1762290000    -0.4152010000
    5      H       1.3189970000    -7.8448780000    -1.8514310000
    6      C       1.0019230000    -5.9971130000     1.0126500000
    7      C       0.8056260000    -4.7303510000     1.5841940000
    8      C       0.8639810000    -5.0807010000    -1.3094330000
    9      C       0.6715330000    -3.8109120000    -0.7375390000
   10      C       0.6371660000    -3.6334850000     0.6918280000
   11      O       0.8915800000    -5.4084200000    -2.6312110000
   12      O       0.7808960000    -4.4112870000     2.9119070000
   13      C       0.3365110000    -5.3793150000     3.8547160000
   14      H       0.1713790000    -4.8341780000     4.8035170000
   15      H       1.0953240000    -6.1720800000     4.0342850000
   16      H      -0.6163080000    -5.8541450000     3.5351850000
   17      C       1.1595780000    -4.4126790000    -3.6108410000
   18      H       1.3213330000    -4.9533700000    -4.5625440000
   19      H       2.0727910000    -3.8297190000    -3.3640290000
   20      H       0.3037470000    -3.7157910000    -3.7435660000
   21      C       0.4023290000    -2.2790870000     1.0744910000
   22      S       0.3856630000    -2.2628960000    -1.5488480000
   23      C       0.2492160000    -1.4133770000     0.0000000000
   24      H       0.3509960000    -1.9620690000     2.1236880000
   25      H       1.6250210000    -9.4777920000     0.2623150000
   26      C       0.0000000000     0.0000000000     0.0000000000
   27      S       0.1583830000     0.8853760000     1.5107320000
   28      C       0.4308760000     2.4369510000     0.7276290000
   29      C       0.1576820000     0.8944300000    -1.0646650000
   30      C       0.3973510000     2.2623840000    -0.6782870000
   31      C       0.1477830000     0.8287650000    -2.4861500000
   32      C       0.3672910000     2.0744060000    -3.1069160000
   33      S       0.5806330000     3.3035330000    -1.9657350000
   34      C       0.4160830000     2.3242040000    -4.5599720000
   35      O       0.2569210000     1.4043670000    -5.3502770000
   36      O       0.6420940000     3.5873380000    -5.0043750000
   37      F      -0.0418280000    -0.2691130000    -3.2462900000
   38      C       0.7143770000     3.9388270000    -6.3349760000
   39      H       0.9068440000     5.0268980000    -6.3702680000
   40      H      -0.2306610000     3.7100990000    -6.8756090000
   41      H       1.5319180000     3.3986810000    -6.8618780000
   42      H       0.5906990000     3.3429840000     1.3215100000
 ----------------------------------------------------------------

   10   -2754.2850771395      8.39e-07  Convergence criterion met
 Total energy in the final basis set =    -2754.2850771395
        RIMP2         total energy =     -2759.3442801620 a.u.

                    Orbital Energies (a.u.)
 --------------------------------------------------------------

 Alpha MOs
 -- Occupied --
-92.0145 -91.9964 -91.9859 -91.9845 -26.3365 -20.6127 -20.5913 -20.5910
-20.5509 -11.4112 -11.3791 -11.3181 -11.3170 -11.3110 -11.2992 -11.2982
-11.2972 -11.2965 -11.2889 -11.2861 -11.2853 -11.2843 -11.2834 -11.2832
-11.2791 -11.2609 -11.2581 -11.2565 -11.2495  -9.0132  -9.0003  -8.9858
 -8.9856  -6.6939  -6.6933  -6.6928  -6.6816  -6.6809  -6.6796  -6.6668
 -6.6664  -6.6662  -6.6657  -6.6653  -6.6646  -1.6525  -1.4725  -1.4153
 -1.4139  -1.3679  -1.2355  -1.1955  -1.1689  -1.1425  -1.0844  -1.0516
 -1.0487  -1.0295  -1.0016  -0.9936  -0.9731  -0.9601  -0.9495  -0.9382
 -0.8954  -0.8707  -0.8514  -0.8102  -0.7964  -0.7871  -0.7751  -0.7631
 -0.7577  -0.7320  -0.7218  -0.7193  -0.7001  -0.6892  -0.6838  -0.6792
 -0.6746  -0.6622  -0.6581  -0.6520  -0.6281  -0.6191  -0.6158  -0.6073
 -0.6026  -0.5970  -0.5881  -0.5700  -0.5689  -0.5647  -0.5590  -0.5527
 -0.5305  -0.5262  -0.5235  -0.5190  -0.5144  -0.5085  -0.5020  -0.4949
 -0.4858  -0.4832  -0.4798  -0.4639  -0.4620  -0.4616  -0.4567  -0.4250
 -0.3947  -0.3863  -0.3606  -0.3499  -0.3249  -0.2839  -0.2458

          Ground-State Mulliken Net Atomic Charges

     Atom                 Charge (a.u.)
  ----------------------------------------
      1 C                    -0.189379
      2 C                    -0.254343
      3 S                    -0.023918
      4 C                    -0.015049
      5 H                     0.196446
      6 C                    -0.028348
      7 C                     0.239908
      8 C                     0.242764
      9 C                    -0.040721
     10 C                    -0.022026
     11 O                    -0.333789
     12 O                    -0.340854
     13 C                    -0.085592
     14 H                     0.122111
     15 H                     0.091074
     16 H                     0.094081
     17 C                    -0.088855
     18 H                     0.125449
     19 H                     0.094291
     20 H                     0.091637
     21 C                    -0.246896
     22 S                    -0.026283
     23 C                    -0.007666
     24 H                     0.186843
     25 H                     0.206275
     26 C                     0.040372
     27 S                     0.096559
     28 C                    -0.225842
     29 C                    -0.092773
     30 C                    -0.029894
     31 C                     0.356863
     32 C                    -0.127332
     33 S                     0.044499
     34 C                     0.457618
     35 O                    -0.449643
     36 O                    -0.297702
     37 F                    -0.208511
     38 C                    -0.054807
     39 H                     0.116886
     40 H                     0.084645
     41 H                     0.084500
     42 H                     0.217404
  ----------------------------------------
  Sum of atomic charges =     0.000000

                    Cartesian Multipole Moments
 -----------------------------------------------------------------
    Charge (ESU x 10^10)
                 0.0000
    Dipole Moment (Debye)
         X       0.6838      Y       2.0717      Z       2.8081
       Tot       3.5560
    Quadrupole Moments (Debye-Ang)
        XX    -199.9050     XY       0.1987     YY    -161.1861
        XZ      -7.5537     YZ     -11.5441     ZZ    -181.7935

 Total job time:  420.66s(wall), 10585.04s(cpu)
        *  Thank you very much for using Q-Chem.  Have a nice day.  *
