 Q-Chem 5.4, Q-Chem, Inc., Pleasanton, CA (2021)
 Q-Chem 5.4.0 for Intel X86 EM64T Linux

User input:
--------------------------------------------------------------
$molecule
0 1
C	0.175432	-8.519741	-0.208002
C	-0.352097	-7.635967	0.722164
S	0.936458	-7.651740	-1.563424
C	-0.160388	-6.261894	0.386833
H	-0.870905	-7.954738	1.635031
C	0.553685	-6.079985	-0.849637
C	0.816372	-4.798382	-1.357938
C	-0.627524	-5.153542	1.149702
C	-0.368399	-3.869626	0.638941
C	0.348912	-3.688927	-0.597409
O	-1.262667	-5.481075	2.309260
O	1.453338	-4.479871	-2.523296
C	2.449320	-5.356026	-3.036927
H	2.982577	-4.790496	-3.824632
H	2.011155	-6.268513	-3.497250
H	3.173591	-5.658187	-2.249807
C	-2.130793	-4.546999	2.939226
H	-2.663289	-5.107564	3.730721
H	-2.873906	-4.131473	2.225196
H	-1.572045	-3.712085	3.415077
C	0.536849	-2.314326	-0.930765
S	-0.763041	-2.295487	1.347913
C	-0.000000	-1.435180	-0.000000
H	1.057554	-1.993211	-1.841645
H	0.170535	-9.615985	-0.204438
C	0.000000	0.000000	0.000000
S	0.451648	0.777811	1.510732
C	1.238377	2.142617	0.727629
C	0.454085	0.786559	-1.064665
C	1.147169	1.990043	-0.678287
C	0.422325	0.728240	-2.486150
C	1.054629	1.823683	-3.106916
S	1.675491	2.905718	-1.965735
C	1.185914	2.041729	-4.559972
O	0.721749	1.231802	-5.350277
O	1.830313	3.151386	-5.004375
F	-0.131347	-0.238577	-3.246290
C	2.018453	3.456956	-6.334976
H	2.571455	4.413580	-6.370268
H	1.052178	3.565244	-6.875609
H	2.601950	2.669768	-6.861878
H	1.698444	2.939346	1.321510
$end

$rem
JOBTYPE		SP
EXCHANGE	HF
CORRELATION	pRIMP2
BASIS		cc-pvtz
METHOD		rimp2
AUX_BASIS	rimp2-cc-pvtz
SOLVENT_METHOD	PCM
PURECART	11111
SYMMETRY	false
MEM_TOTAL	110000
SCF_CONVERGENCE = 6
THRESH=10
GUI = 2
$end

$solvent
dielectric 4.90
$end
--------------------------------------------------------------

             Standard Nuclear Orientation (Angstroms)
    I     Atom           X                Y                Z
 ----------------------------------------------------------------
    1      C       0.1754320000    -8.5197410000    -0.2080020000
    2      C      -0.3520970000    -7.6359670000     0.7221640000
    3      S       0.9364580000    -7.6517400000    -1.5634240000
    4      C      -0.1603880000    -6.2618940000     0.3868330000
    5      H      -0.8709050000    -7.9547380000     1.6350310000
    6      C       0.5536850000    -6.0799850000    -0.8496370000
    7      C       0.8163720000    -4.7983820000    -1.3579380000
    8      C      -0.6275240000    -5.1535420000     1.1497020000
    9      C      -0.3683990000    -3.8696260000     0.6389410000
   10      C       0.3489120000    -3.6889270000    -0.5974090000
   11      O      -1.2626670000    -5.4810750000     2.3092600000
   12      O       1.4533380000    -4.4798710000    -2.5232960000
   13      C       2.4493200000    -5.3560260000    -3.0369270000
   14      H       2.9825770000    -4.7904960000    -3.8246320000
   15      H       2.0111550000    -6.2685130000    -3.4972500000
   16      H       3.1735910000    -5.6581870000    -2.2498070000
   17      C      -2.1307930000    -4.5469990000     2.9392260000
   18      H      -2.6632890000    -5.1075640000     3.7307210000
   19      H      -2.8739060000    -4.1314730000     2.2251960000
   20      H      -1.5720450000    -3.7120850000     3.4150770000
   21      C       0.5368490000    -2.3143260000    -0.9307650000
   22      S      -0.7630410000    -2.2954870000     1.3479130000
   23      C       0.0000000000    -1.4351800000     0.0000000000
   24      H       1.0575540000    -1.9932110000    -1.8416450000
   25      H       0.1705350000    -9.6159850000    -0.2044380000
   26      C       0.0000000000     0.0000000000     0.0000000000
   27      S       0.4516480000     0.7778110000     1.5107320000
   28      C       1.2383770000     2.1426170000     0.7276290000
   29      C       0.4540850000     0.7865590000    -1.0646650000
   30      C       1.1471690000     1.9900430000    -0.6782870000
   31      C       0.4223250000     0.7282400000    -2.4861500000
   32      C       1.0546290000     1.8236830000    -3.1069160000
   33      S       1.6754910000     2.9057180000    -1.9657350000
   34      C       1.1859140000     2.0417290000    -4.5599720000
   35      O       0.7217490000     1.2318020000    -5.3502770000
   36      O       1.8303130000     3.1513860000    -5.0043750000
   37      F      -0.1313470000    -0.2385770000    -3.2462900000
   38      C       2.0184530000     3.4569560000    -6.3349760000
   39      H       2.5714550000     4.4135800000    -6.3702680000
   40      H       1.0521780000     3.5652440000    -6.8756090000
   41      H       2.6019500000     2.6697680000    -6.8618780000
   42      H       1.6984440000     2.9393460000     1.3215100000
 ----------------------------------------------------------------

   10   -2754.2832883868      8.66e-07  Convergence criterion met
 Total energy in the final basis set =    -2754.2832883868
        RIMP2         total energy =     -2759.3428521154 a.u.

                    Orbital Energies (a.u.)
 --------------------------------------------------------------

 Alpha MOs
 -- Occupied --
-92.0165 -91.9979 -91.9883 -91.9860 -26.3352 -20.6129 -20.5923 -20.5905
-20.5514 -11.4116 -11.3777 -11.3191 -11.3171 -11.3048 -11.3014 -11.3005
-11.2985 -11.2961 -11.2889 -11.2871 -11.2859 -11.2852 -11.2846 -11.2837
-11.2792 -11.2611 -11.2584 -11.2548 -11.2497  -9.0151  -9.0018  -8.9890
 -8.9859  -6.6958  -6.6952  -6.6947  -6.6830  -6.6824  -6.6811  -6.6700
 -6.6693  -6.6684  -6.6669  -6.6663  -6.6654  -1.6486  -1.4728  -1.4164
 -1.4133  -1.3682  -1.2361  -1.1958  -1.1692  -1.1433  -1.0844  -1.0519
 -1.0491  -1.0293  -1.0020  -0.9933  -0.9731  -0.9605  -0.9502  -0.9388
 -0.8959  -0.8710  -0.8492  -0.8037  -0.7955  -0.7879  -0.7721  -0.7712
 -0.7569  -0.7324  -0.7202  -0.7168  -0.7011  -0.6901  -0.6823  -0.6791
 -0.6732  -0.6616  -0.6589  -0.6520  -0.6282  -0.6195  -0.6159  -0.6076
 -0.6037  -0.5968  -0.5843  -0.5754  -0.5699  -0.5621  -0.5546  -0.5486
 -0.5346  -0.5264  -0.5255  -0.5164  -0.5161  -0.5083  -0.5055  -0.4970
 -0.4871  -0.4856  -0.4761  -0.4677  -0.4623  -0.4620  -0.4593  -0.4199
 -0.3972  -0.3853  -0.3582  -0.3511  -0.3239  -0.2856  -0.2492

          Ground-State Mulliken Net Atomic Charges

     Atom                 Charge (a.u.)
  ----------------------------------------
      1 C                    -0.189650
      2 C                    -0.254265
      3 S                    -0.021790
      4 C                    -0.016571
      5 H                     0.196136
      6 C                    -0.028215
      7 C                     0.243644
      8 C                     0.244009
      9 C                    -0.039973
     10 C                    -0.028702
     11 O                    -0.333444
     12 O                    -0.339385
     13 C                    -0.085930
     14 H                     0.123057
     15 H                     0.091230
     16 H                     0.093461
     17 C                    -0.087500
     18 H                     0.125735
     19 H                     0.095302
     20 H                     0.089075
     21 C                    -0.212248
     22 S                    -0.035107
     23 C                    -0.003722
     24 H                     0.194085
     25 H                     0.206285
     26 C                    -0.022288
     27 S                     0.120995
     28 C                    -0.227445
     29 C                    -0.102738
     30 C                    -0.012423
     31 C                     0.355674
     32 C                    -0.140120
     33 S                     0.051025
     34 C                     0.460349
     35 O                    -0.447824
     36 O                    -0.297900
     37 F                    -0.211759
     38 C                    -0.054822
     39 H                     0.116848
     40 H                     0.084906
     41 H                     0.084690
     42 H                     0.217316
  ----------------------------------------
  Sum of atomic charges =     0.000000

                    Cartesian Multipole Moments
 -----------------------------------------------------------------
    Charge (ESU x 10^10)
                 0.0000
    Dipole Moment (Debye)
         X       2.2355      Y       1.8380      Z       3.3089
       Tot       4.3960
    Quadrupole Moments (Debye-Ang)
        XX    -185.6519     XY       6.0231     YY    -163.0580
        XZ     -18.2751     YZ      -9.9483     ZZ    -192.5194

 Total job time:  326.95s(wall), 11287.07s(cpu)
        *  Thank you very much for using Q-Chem.  Have a nice day.  *
