 Q-Chem 5.4, Q-Chem, Inc., Pleasanton, CA (2021)
 Q-Chem 5.4.0 for Intel X86 EM64T Linux

User input:
--------------------------------------------------------------
$molecule
0 1
C	-0.000687	-8.519741	0.272104
C	-0.194476	-7.635967	-0.779533
S	0.287581	-7.651740	1.799596
C	-0.125787	-6.261894	-0.399427
H	-0.383826	-7.954738	-1.812314
C	0.121989	-6.079985	1.006762
C	0.247488	-4.798382	1.564994
C	-0.258303	-5.153542	-1.284087
C	-0.128493	-3.869626	-0.726260
C	0.116725	-3.688927	0.681918
O	-0.517104	-5.481075	-2.580622
O	0.508622	-4.479871	2.867144
C	0.075811	-5.356026	3.900814
H	0.173640	-4.790496	4.847002
H	0.707354	-6.268513	3.971794
H	-0.984963	-5.658187	3.763397
C	-0.257016	-4.546999	-3.621225
H	-0.357864	-5.107564	-4.569828
H	0.771211	-4.131473	-3.551910
H	-0.990913	-3.712085	-3.626592
C	0.187034	-2.314326	1.058088
S	-0.281899	-2.295487	-1.523035
C	-0.000000	-1.435180	-0.000000
H	0.373653	-1.993211	2.090565
H	0.000773	-9.615985	0.266226
C	0.000000	0.000000	0.000000
S	0.451648	0.777811	1.510732
C	1.238377	2.142617	0.727629
C	0.454085	0.786559	-1.064665
C	1.147169	1.990043	-0.678287
C	0.422325	0.728240	-2.486150
C	1.054629	1.823683	-3.106916
S	1.675491	2.905718	-1.965735
C	1.185914	2.041729	-4.559972
O	0.721749	1.231802	-5.350277
O	1.830313	3.151386	-5.004375
F	-0.131347	-0.238577	-3.246290
C	2.018453	3.456956	-6.334976
H	2.571455	4.413580	-6.370268
H	1.052178	3.565244	-6.875609
H	2.601950	2.669768	-6.861878
H	1.698444	2.939346	1.321510
$end

$rem
JOBTYPE		SP
EXCHANGE	HF
CORRELATION	pRIMP2
BASIS		cc-pvtz
METHOD		rimp2
AUX_BASIS	rimp2-cc-pvtz
SOLVENT_METHOD	PCM
PURECART	11111
SYMMETRY	false
MEM_TOTAL	110000
SCF_CONVERGENCE = 6
THRESH=10
GUI = 2
$end

$solvent
dielectric 4.90
$end
--------------------------------------------------------------

             Standard Nuclear Orientation (Angstroms)
    I     Atom           X                Y                Z
 ----------------------------------------------------------------
    1      C      -0.0006870000    -8.5197410000     0.2721040000
    2      C      -0.1944760000    -7.6359670000    -0.7795330000
    3      S       0.2875810000    -7.6517400000     1.7995960000
    4      C      -0.1257870000    -6.2618940000    -0.3994270000
    5      H      -0.3838260000    -7.9547380000    -1.8123140000
    6      C       0.1219890000    -6.0799850000     1.0067620000
    7      C       0.2474880000    -4.7983820000     1.5649940000
    8      C      -0.2583030000    -5.1535420000    -1.2840870000
    9      C      -0.1284930000    -3.8696260000    -0.7262600000
   10      C       0.1167250000    -3.6889270000     0.6819180000
   11      O      -0.5171040000    -5.4810750000    -2.5806220000
   12      O       0.5086220000    -4.4798710000     2.8671440000
   13      C       0.0758110000    -5.3560260000     3.9008140000
   14      H       0.1736400000    -4.7904960000     4.8470020000
   15      H       0.7073540000    -6.2685130000     3.9717940000
   16      H      -0.9849630000    -5.6581870000     3.7633970000
   17      C      -0.2570160000    -4.5469990000    -3.6212250000
   18      H      -0.3578640000    -5.1075640000    -4.5698280000
   19      H       0.7712110000    -4.1314730000    -3.5519100000
   20      H      -0.9909130000    -3.7120850000    -3.6265920000
   21      C       0.1870340000    -2.3143260000     1.0580880000
   22      S      -0.2818990000    -2.2954870000    -1.5230350000
   23      C       0.0000000000    -1.4351800000     0.0000000000
   24      H       0.3736530000    -1.9932110000     2.0905650000
   25      H       0.0007730000    -9.6159850000     0.2662260000
   26      C       0.0000000000     0.0000000000     0.0000000000
   27      S       0.4516480000     0.7778110000     1.5107320000
   28      C       1.2383770000     2.1426170000     0.7276290000
   29      C       0.4540850000     0.7865590000    -1.0646650000
   30      C       1.1471690000     1.9900430000    -0.6782870000
   31      C       0.4223250000     0.7282400000    -2.4861500000
   32      C       1.0546290000     1.8236830000    -3.1069160000
   33      S       1.6754910000     2.9057180000    -1.9657350000
   34      C       1.1859140000     2.0417290000    -4.5599720000
   35      O       0.7217490000     1.2318020000    -5.3502770000
   36      O       1.8303130000     3.1513860000    -5.0043750000
   37      F      -0.1313470000    -0.2385770000    -3.2462900000
   38      C       2.0184530000     3.4569560000    -6.3349760000
   39      H       2.5714550000     4.4135800000    -6.3702680000
   40      H       1.0521780000     3.5652440000    -6.8756090000
   41      H       2.6019500000     2.6697680000    -6.8618780000
   42      H       1.6984440000     2.9393460000     1.3215100000
 ----------------------------------------------------------------

   10   -2754.2764864635      8.38e-07  Convergence criterion met
 Total energy in the final basis set =    -2754.2764864635
        RIMP2         total energy =     -2759.3386209806 a.u.

                    Orbital Energies (a.u.)
 --------------------------------------------------------------

 Alpha MOs
 -- Occupied --
-92.0149 -91.9982 -91.9851 -91.9834 -26.3363 -20.6134 -20.5905 -20.5902
-20.5523 -11.4124 -11.3788 -11.3175 -11.3152 -11.3061 -11.3022 -11.3019
-11.2988 -11.2973 -11.2893 -11.2870 -11.2856 -11.2849 -11.2826 -11.2818
-11.2779 -11.2598 -11.2565 -11.2524 -11.2489  -9.0136  -9.0021  -8.9850
 -8.9845  -6.6943  -6.6937  -6.6932  -6.6834  -6.6827  -6.6814  -6.6660
 -6.6654  -6.6653  -6.6647  -6.6645  -6.6636  -1.6519  -1.4733  -1.4147
 -1.4129  -1.3689  -1.2372  -1.1945  -1.1687  -1.1430  -1.0841  -1.0511
 -1.0489  -1.0305  -1.0006  -0.9931  -0.9738  -0.9593  -0.9489  -0.9384
 -0.8944  -0.8719  -0.8498  -0.8101  -0.7961  -0.7869  -0.7751  -0.7631
 -0.7568  -0.7310  -0.7219  -0.7190  -0.6995  -0.6898  -0.6828  -0.6798
 -0.6753  -0.6621  -0.6575  -0.6514  -0.6274  -0.6184  -0.6152  -0.6081
 -0.6034  -0.5989  -0.5881  -0.5694  -0.5677  -0.5655  -0.5573  -0.5526
 -0.5309  -0.5258  -0.5215  -0.5194  -0.5137  -0.5084  -0.5023  -0.4943
 -0.4857  -0.4838  -0.4784  -0.4633  -0.4627  -0.4625  -0.4553  -0.4250
 -0.3938  -0.3853  -0.3594  -0.3504  -0.3243  -0.2843  -0.2456

          Ground-State Mulliken Net Atomic Charges

     Atom                 Charge (a.u.)
  ----------------------------------------
      1 C                    -0.191872
      2 C                    -0.253826
      3 S                    -0.025254
      4 C                    -0.016501
      5 H                     0.196219
      6 C                    -0.027088
      7 C                     0.236680
      8 C                     0.243047
      9 C                    -0.042672
     10 C                    -0.021256
     11 O                    -0.333899
     12 O                    -0.341255
     13 C                    -0.085558
     14 H                     0.121758
     15 H                     0.090886
     16 H                     0.093735
     17 C                    -0.087793
     18 H                     0.124915
     19 H                     0.094488
     20 H                     0.090808
     21 C                    -0.251036
     22 S                    -0.025029
     23 C                    -0.017284
     24 H                     0.187456
     25 H                     0.205864
     26 C                     0.008646
     27 S                     0.097624
     28 C                    -0.205781
     29 C                    -0.067206
     30 C                    -0.033764
     31 C                     0.354042
     32 C                    -0.123420
     33 S                     0.050448
     34 C                     0.456283
     35 O                    -0.447428
     36 O                    -0.297507
     37 F                    -0.207821
     38 C                    -0.054814
     39 H                     0.117053
     40 H                     0.084831
     41 H                     0.084797
     42 H                     0.218482
  ----------------------------------------
  Sum of atomic charges =     0.000000

                    Cartesian Multipole Moments
 -----------------------------------------------------------------
    Charge (ESU x 10^10)
                -0.0000
    Dipole Moment (Debye)
         X       1.8033      Y       2.3837      Z       2.6581
       Tot       3.9999
    Quadrupole Moments (Debye-Ang)
        XX    -197.4792     XY       8.9856     YY    -166.5003
        XZ      -7.1895     YZ      -9.4389     ZZ    -180.0838

 Total job time:  352.90s(wall), 11837.60s(cpu)
        *  Thank you very much for using Q-Chem.  Have a nice day.  *
