 Q-Chem 5.4, Q-Chem, Inc., Pleasanton, CA (2021)
 Q-Chem 5.4.0 for Intel X86 EM64T Linux

User input:
--------------------------------------------------------------
$molecule
0 1
C	-0.208002	-8.519741	-0.175432
C	0.722164	-7.635967	0.352097
S	-1.563424	-7.651740	-0.936458
C	0.386833	-6.261894	0.160388
H	1.635031	-7.954738	0.870905
C	-0.849637	-6.079985	-0.553685
C	-1.357938	-4.798382	-0.816372
C	1.149702	-5.153542	0.627524
C	0.638941	-3.869626	0.368399
C	-0.597409	-3.688927	-0.348912
O	2.309260	-5.481075	1.262667
O	-2.523296	-4.479871	-1.453338
C	-3.036927	-5.356026	-2.449320
H	-3.824632	-4.790496	-2.982577
H	-3.497250	-6.268513	-2.011155
H	-2.249807	-5.658187	-3.173591
C	2.939226	-4.546999	2.130793
H	3.730721	-5.107564	2.663289
H	2.225196	-4.131473	2.873906
H	3.415077	-3.712085	1.572045
C	-0.930765	-2.314326	-0.536849
S	1.347913	-2.295487	0.763041
C	0.000000	-1.435180	0.000000
H	-1.841645	-1.993211	-1.057554
H	-0.204438	-9.615985	-0.170535
C	0.000000	0.000000	0.000000
S	0.234946	0.868203	1.510732
C	0.641630	2.390125	0.727629
C	0.235036	0.877284	-1.064665
C	0.593019	2.219143	-0.678287
C	0.219452	0.812732	-2.486150
C	0.546689	2.034501	-3.106916
S	0.866345	3.240357	-1.965735
C	0.617067	2.279095	-4.559972
O	0.378342	1.376631	-5.350277
O	0.952308	3.517725	-5.004375
F	-0.065123	-0.264443	-3.246290
C	1.054950	3.861577	-6.334976
H	1.341516	4.928732	-6.370268
H	0.093573	3.716085	-6.875609
H	1.822303	3.252232	-6.861878
H	0.879812	3.278780	1.321510
$end

$rem
JOBTYPE		SP
EXCHANGE	HF
CORRELATION	pRIMP2
BASIS		cc-pvtz
METHOD		rimp2
AUX_BASIS	rimp2-cc-pvtz
SOLVENT_METHOD	PCM
PURECART	11111
SYMMETRY	false
MEM_TOTAL	110000
SCF_CONVERGENCE = 6
THRESH=10
GUI = 2
$end

$solvent
dielectric 4.90
$end
--------------------------------------------------------------

             Standard Nuclear Orientation (Angstroms)
    I     Atom           X                Y                Z
 ----------------------------------------------------------------
    1      C      -0.2080020000    -8.5197410000    -0.1754320000
    2      C       0.7221640000    -7.6359670000     0.3520970000
    3      S      -1.5634240000    -7.6517400000    -0.9364580000
    4      C       0.3868330000    -6.2618940000     0.1603880000
    5      H       1.6350310000    -7.9547380000     0.8709050000
    6      C      -0.8496370000    -6.0799850000    -0.5536850000
    7      C      -1.3579380000    -4.7983820000    -0.8163720000
    8      C       1.1497020000    -5.1535420000     0.6275240000
    9      C       0.6389410000    -3.8696260000     0.3683990000
   10      C      -0.5974090000    -3.6889270000    -0.3489120000
   11      O       2.3092600000    -5.4810750000     1.2626670000
   12      O      -2.5232960000    -4.4798710000    -1.4533380000
   13      C      -3.0369270000    -5.3560260000    -2.4493200000
   14      H      -3.8246320000    -4.7904960000    -2.9825770000
   15      H      -3.4972500000    -6.2685130000    -2.0111550000
   16      H      -2.2498070000    -5.6581870000    -3.1735910000
   17      C       2.9392260000    -4.5469990000     2.1307930000
   18      H       3.7307210000    -5.1075640000     2.6632890000
   19      H       2.2251960000    -4.1314730000     2.8739060000
   20      H       3.4150770000    -3.7120850000     1.5720450000
   21      C      -0.9307650000    -2.3143260000    -0.5368490000
   22      S       1.3479130000    -2.2954870000     0.7630410000
   23      C       0.0000000000    -1.4351800000     0.0000000000
   24      H      -1.8416450000    -1.9932110000    -1.0575540000
   25      H      -0.2044380000    -9.6159850000    -0.1705350000
   26      C       0.0000000000     0.0000000000     0.0000000000
   27      S       0.2349460000     0.8682030000     1.5107320000
   28      C       0.6416300000     2.3901250000     0.7276290000
   29      C       0.2350360000     0.8772840000    -1.0646650000
   30      C       0.5930190000     2.2191430000    -0.6782870000
   31      C       0.2194520000     0.8127320000    -2.4861500000
   32      C       0.5466890000     2.0345010000    -3.1069160000
   33      S       0.8663450000     3.2403570000    -1.9657350000
   34      C       0.6170670000     2.2790950000    -4.5599720000
   35      O       0.3783420000     1.3766310000    -5.3502770000
   36      O       0.9523080000     3.5177250000    -5.0043750000
   37      F      -0.0651230000    -0.2644430000    -3.2462900000
   38      C       1.0549500000     3.8615770000    -6.3349760000
   39      H       1.3415160000     4.9287320000    -6.3702680000
   40      H       0.0935730000     3.7160850000    -6.8756090000
   41      H       1.8223030000     3.2522320000    -6.8618780000
   42      H       0.8798120000     3.2787800000     1.3215100000
 ----------------------------------------------------------------

   10   -2754.2926612272      8.20e-07  Convergence criterion met
 Total energy in the final basis set =    -2754.2926612272
        RIMP2         total energy =     -2759.3465742094 a.u.

                    Orbital Energies (a.u.)
 --------------------------------------------------------------

 Alpha MOs
 -- Occupied --
-92.0159 -91.9948 -91.9910 -91.9864 -26.3339 -20.6120 -20.5927 -20.5913
-20.5501 -11.4103 -11.3771 -11.3195 -11.3183 -11.3091 -11.2975 -11.2965
-11.2946 -11.2937 -11.2884 -11.2875 -11.2866 -11.2856 -11.2841 -11.2832
-11.2801 -11.2609 -11.2594 -11.2576 -11.2500  -9.0142  -8.9988  -8.9913
 -8.9863  -6.6949  -6.6943  -6.6939  -6.6800  -6.6794  -6.6780  -6.6723
 -6.6716  -6.6706  -6.6673  -6.6667  -6.6658  -1.6467  -1.4718  -1.4167
 -1.4141  -1.3671  -1.2335  -1.1961  -1.1686  -1.1420  -1.0840  -1.0522
 -1.0475  -1.0277  -1.0026  -0.9932  -0.9715  -0.9613  -0.9505  -0.9381
 -0.8962  -0.8693  -0.8505  -0.8037  -0.7923  -0.7879  -0.7723  -0.7701
 -0.7580  -0.7326  -0.7182  -0.7150  -0.7014  -0.6889  -0.6830  -0.6784
 -0.6712  -0.6605  -0.6593  -0.6525  -0.6304  -0.6200  -0.6170  -0.6064
 -0.6018  -0.5948  -0.5854  -0.5781  -0.5677  -0.5622  -0.5558  -0.5488
 -0.5373  -0.5261  -0.5233  -0.5163  -0.5155  -0.5080  -0.5026  -0.4938
 -0.4895  -0.4841  -0.4758  -0.4702  -0.4619  -0.4612  -0.4609  -0.4124
 -0.3975  -0.3870  -0.3577  -0.3495  -0.3180  -0.2880  -0.2557

          Ground-State Mulliken Net Atomic Charges

     Atom                 Charge (a.u.)
  ----------------------------------------
      1 C                    -0.187340
      2 C                    -0.254973
      3 S                    -0.021373
      4 C                    -0.013084
      5 H                     0.196355
      6 C                    -0.026738
      7 C                     0.244119
      8 C                     0.240008
      9 C                    -0.044124
     10 C                    -0.027904
     11 O                    -0.333061
     12 O                    -0.339817
     13 C                    -0.085569
     14 H                     0.122942
     15 H                     0.090706
     16 H                     0.094662
     17 C                    -0.086963
     18 H                     0.125083
     19 H                     0.094457
     20 H                     0.089889
     21 C                    -0.220273
     22 S                    -0.002588
     23 C                    -0.057347
     24 H                     0.196019
     25 H                     0.206576
     26 C                    -0.002508
     27 S                     0.110008
     28 C                    -0.232228
     29 C                    -0.078075
     30 C                    -0.006163
     31 C                     0.374255
     32 C                    -0.151071
     33 S                     0.039339
     34 C                     0.458879
     35 O                    -0.449843
     36 O                    -0.297846
     37 F                    -0.210409
     38 C                    -0.054903
     39 H                     0.116551
     40 H                     0.084510
     41 H                     0.084534
     42 H                     0.215308
  ----------------------------------------
  Sum of atomic charges =     0.000000

                    Cartesian Multipole Moments
 -----------------------------------------------------------------
    Charge (ESU x 10^10)
                 0.0000
    Dipole Moment (Debye)
         X       1.1178      Y       1.4860      Z       3.0414
       Tot       3.5648
    Quadrupole Moments (Debye-Ang)
        XX    -187.2993     XY       3.6334     YY    -159.4093
        XZ       9.8495     YZ      -8.7670     ZZ    -194.5944

 Total job time:  307.67s(wall), 9752.61s(cpu)
        *  Thank you very much for using Q-Chem.  Have a nice day.  *
