 Q-Chem 5.4, Q-Chem, Inc., Pleasanton, CA (2021)
 Q-Chem 5.4.0 for Intel X86 EM64T Linux

User input:
--------------------------------------------------------------
$molecule
0 1
C	0.175432	-8.519741	-0.208002
C	-0.352097	-7.635967	0.722164
S	0.936458	-7.651740	-1.563424
C	-0.160388	-6.261894	0.386833
H	-0.870905	-7.954738	1.635031
C	0.553685	-6.079985	-0.849637
C	0.816372	-4.798382	-1.357938
C	-0.627524	-5.153542	1.149702
C	-0.368399	-3.869626	0.638941
C	0.348912	-3.688927	-0.597409
O	-1.262667	-5.481075	2.309260
O	1.453338	-4.479871	-2.523296
C	2.449320	-5.356026	-3.036927
H	2.982577	-4.790496	-3.824632
H	2.011155	-6.268513	-3.497250
H	3.173591	-5.658187	-2.249807
C	-2.130793	-4.546999	2.939226
H	-2.663289	-5.107564	3.730721
H	-2.873906	-4.131473	2.225196
H	-1.572045	-3.712085	3.415077
C	0.536849	-2.314326	-0.930765
S	-0.763041	-2.295487	1.347913
C	0.000000	-1.435180	0.000000
H	1.057554	-1.993211	-1.841645
H	0.170535	-9.615985	-0.204438
C	0.000000	0.000000	0.000000
S	0.080615	0.895811	1.510732
C	0.216842	2.465231	0.727629
C	0.079127	0.904769	-1.064665
C	0.198659	2.288406	-0.678287
C	0.074988	0.838492	-2.486150
C	0.185097	2.098524	-3.106916
S	0.290501	3.341568	-1.965735
C	0.211932	2.351623	-4.559972
O	0.133545	1.421416	-5.350277
O	0.326994	3.629649	-5.004375
F	-0.018214	-0.271734	-3.246290
C	0.368367	3.986101	-6.334976
H	0.465270	5.086806	-6.370268
H	-0.553140	3.675878	-6.875609
H	1.229874	3.519263	-6.861878
H	0.297091	3.381746	1.321510
$end

$rem
JOBTYPE		SP
EXCHANGE	HF
CORRELATION	pRIMP2
BASIS		cc-pvtz
METHOD		rimp2
AUX_BASIS	rimp2-cc-pvtz
SOLVENT_METHOD	PCM
PURECART	11111
SYMMETRY	false
MEM_TOTAL	110000
SCF_CONVERGENCE = 6
THRESH=10
GUI = 2
$end

$solvent
dielectric 4.90
$end
--------------------------------------------------------------

             Standard Nuclear Orientation (Angstroms)
    I     Atom           X                Y                Z
 ----------------------------------------------------------------
    1      C       0.1754320000    -8.5197410000    -0.2080020000
    2      C      -0.3520970000    -7.6359670000     0.7221640000
    3      S       0.9364580000    -7.6517400000    -1.5634240000
    4      C      -0.1603880000    -6.2618940000     0.3868330000
    5      H      -0.8709050000    -7.9547380000     1.6350310000
    6      C       0.5536850000    -6.0799850000    -0.8496370000
    7      C       0.8163720000    -4.7983820000    -1.3579380000
    8      C      -0.6275240000    -5.1535420000     1.1497020000
    9      C      -0.3683990000    -3.8696260000     0.6389410000
   10      C       0.3489120000    -3.6889270000    -0.5974090000
   11      O      -1.2626670000    -5.4810750000     2.3092600000
   12      O       1.4533380000    -4.4798710000    -2.5232960000
   13      C       2.4493200000    -5.3560260000    -3.0369270000
   14      H       2.9825770000    -4.7904960000    -3.8246320000
   15      H       2.0111550000    -6.2685130000    -3.4972500000
   16      H       3.1735910000    -5.6581870000    -2.2498070000
   17      C      -2.1307930000    -4.5469990000     2.9392260000
   18      H      -2.6632890000    -5.1075640000     3.7307210000
   19      H      -2.8739060000    -4.1314730000     2.2251960000
   20      H      -1.5720450000    -3.7120850000     3.4150770000
   21      C       0.5368490000    -2.3143260000    -0.9307650000
   22      S      -0.7630410000    -2.2954870000     1.3479130000
   23      C       0.0000000000    -1.4351800000     0.0000000000
   24      H       1.0575540000    -1.9932110000    -1.8416450000
   25      H       0.1705350000    -9.6159850000    -0.2044380000
   26      C       0.0000000000     0.0000000000     0.0000000000
   27      S       0.0806150000     0.8958110000     1.5107320000
   28      C       0.2168420000     2.4652310000     0.7276290000
   29      C       0.0791270000     0.9047690000    -1.0646650000
   30      C       0.1986590000     2.2884060000    -0.6782870000
   31      C       0.0749880000     0.8384920000    -2.4861500000
   32      C       0.1850970000     2.0985240000    -3.1069160000
   33      S       0.2905010000     3.3415680000    -1.9657350000
   34      C       0.2119320000     2.3516230000    -4.5599720000
   35      O       0.1335450000     1.4214160000    -5.3502770000
   36      O       0.3269940000     3.6296490000    -5.0043750000
   37      F      -0.0182140000    -0.2717340000    -3.2462900000
   38      C       0.3683670000     3.9861010000    -6.3349760000
   39      H       0.4652700000     5.0868060000    -6.3702680000
   40      H      -0.5531400000     3.6758780000    -6.8756090000
   41      H       1.2298740000     3.5192630000    -6.8618780000
   42      H       0.2970910000     3.3817460000     1.3215100000
 ----------------------------------------------------------------

   10   -2754.2984755017      7.89e-07  Convergence criterion met
 Total energy in the final basis set =    -2754.2984755017
        RIMP2         total energy =     -2759.3523752906 a.u.

                    Orbital Energies (a.u.)
 --------------------------------------------------------------

 Alpha MOs
 -- Occupied --
-92.0161 -91.9946 -91.9915 -91.9871 -26.3355 -20.6116 -20.5931 -20.5919
-20.5492 -11.4097 -11.3779 -11.3203 -11.3196 -11.3136 -11.2972 -11.2963
-11.2960 -11.2921 -11.2883 -11.2882 -11.2878 -11.2858 -11.2849 -11.2810
-11.2808 -11.2625 -11.2606 -11.2595 -11.2506  -9.0145  -8.9986  -8.9920
 -8.9870  -6.6952  -6.6947  -6.6942  -6.6799  -6.6792  -6.6779  -6.6730
 -6.6723  -6.6714  -6.6680  -6.6673  -6.6665  -1.6489  -1.4713  -1.4173
 -1.4146  -1.3666  -1.2334  -1.1974  -1.1697  -1.1423  -1.0850  -1.0532
 -1.0478  -1.0277  -1.0038  -0.9941  -0.9719  -0.9616  -0.9510  -0.9385
 -0.8972  -0.8692  -0.8518  -0.8049  -0.7949  -0.7886  -0.7727  -0.7696
 -0.7583  -0.7334  -0.7196  -0.7168  -0.7021  -0.6890  -0.6840  -0.6782
 -0.6717  -0.6620  -0.6597  -0.6529  -0.6298  -0.6205  -0.6167  -0.6060
 -0.6011  -0.5937  -0.5874  -0.5761  -0.5704  -0.5628  -0.5528  -0.5499
 -0.5370  -0.5266  -0.5259  -0.5173  -0.5165  -0.5090  -0.5049  -0.4970
 -0.4884  -0.4839  -0.4783  -0.4689  -0.4618  -0.4611  -0.4594  -0.4215
 -0.3982  -0.3866  -0.3593  -0.3506  -0.3246  -0.2851  -0.2501

          Ground-State Mulliken Net Atomic Charges

     Atom                 Charge (a.u.)
  ----------------------------------------
      1 C                    -0.186337
      2 C                    -0.254416
      3 S                    -0.019494
      4 C                    -0.013445
      5 H                     0.196535
      6 C                    -0.029990
      7 C                     0.248935
      8 C                     0.240168
      9 C                    -0.040868
     10 C                    -0.037670
     11 O                    -0.333235
     12 O                    -0.338141
     13 C                    -0.086118
     14 H                     0.123636
     15 H                     0.091437
     16 H                     0.093927
     17 C                    -0.087689
     18 H                     0.125772
     19 H                     0.095444
     20 H                     0.089410
     21 C                    -0.191731
     22 S                    -0.027588
     23 C                    -0.011964
     24 H                     0.195620
     25 H                     0.206888
     26 C                    -0.034290
     27 S                     0.100225
     28 C                    -0.248594
     29 C                    -0.082716
     30 C                    -0.011645
     31 C                     0.391071
     32 C                    -0.144361
     33 S                     0.036482
     34 C                     0.462139
     35 O                    -0.451906
     36 O                    -0.298125
     37 F                    -0.213825
     38 C                    -0.055119
     39 H                     0.116557
     40 H                     0.084587
     41 H                     0.084265
     42 H                     0.216166
  ----------------------------------------
  Sum of atomic charges =     0.000000

                    Cartesian Multipole Moments
 -----------------------------------------------------------------
    Charge (ESU x 10^10)
                 0.0000
    Dipole Moment (Debye)
         X       0.5364      Y       1.1260      Z       3.3782
       Tot       3.6011
    Quadrupole Moments (Debye-Ang)
        XX    -189.7648     XY      -0.2015     YY    -156.7100
        XZ     -13.7945     YZ     -10.5392     ZZ    -193.4401

 Total job time:  277.51s(wall), 9189.47s(cpu)
        *  Thank you very much for using Q-Chem.  Have a nice day.  *
