 Q-Chem 5.4, Q-Chem, Inc., Pleasanton, CA (2021)
 Q-Chem 5.4.0 for Intel X86 EM64T Linux

User input:
--------------------------------------------------------------
$molecule
0 1
C	-0.272104	-8.519741	-0.000687
C	0.779533	-7.635967	-0.194476
S	-1.799596	-7.651740	0.287581
C	0.399427	-6.261894	-0.125787
H	1.812314	-7.954738	-0.383826
C	-1.006762	-6.079985	0.121989
C	-1.564994	-4.798382	0.247488
C	1.284087	-5.153542	-0.258303
C	0.726260	-3.869626	-0.128493
C	-0.681918	-3.688927	0.116725
O	2.580622	-5.481075	-0.517104
O	-2.867144	-4.479871	0.508622
C	-3.900814	-5.356026	0.075811
H	-4.847002	-4.790496	0.173640
H	-3.971794	-6.268513	0.707354
H	-3.763397	-5.658187	-0.984963
C	3.621225	-4.546999	-0.257016
H	4.569828	-5.107564	-0.357864
H	3.551910	-4.131473	0.771211
H	3.626592	-3.712085	-0.990913
C	-1.058088	-2.314326	0.187034
S	1.523035	-2.295487	-0.281899
C	-0.000000	-1.435180	-0.000000
H	-2.090565	-1.993211	0.373653
H	-0.266226	-9.615985	0.000773
C	0.000000	0.000000	0.000000
S	0.690437	0.576430	1.510732
C	1.896512	1.589852	0.727629
C	0.695720	0.583817	-1.064665
C	1.758621	1.477674	-0.678287
C	0.645928	0.539878	-2.486150
C	1.614763	1.352997	-3.106916
S	2.568261	2.157430	-1.965735
C	1.812707	1.512991	-4.559972
O	1.099523	0.910662	-5.350277
O	2.797769	2.335330	-5.004375
F	-0.205024	-0.179266	-3.246290
C	3.079074	2.558124	-6.334976
H	3.925910	3.267919	-6.370268
H	2.208109	2.990367	-6.875609
H	3.358147	1.618843	-6.861878
H	2.601331	2.181180	1.321510
$end

$rem
JOBTYPE		SP
EXCHANGE	HF
CORRELATION	pRIMP2
BASIS		cc-pvtz
METHOD		rimp2
AUX_BASIS	rimp2-cc-pvtz
SOLVENT_METHOD	PCM
PURECART	11111
SYMMETRY	false
MEM_TOTAL	110000
SCF_CONVERGENCE = 6
THRESH=10
GUI = 2
$end

$solvent
dielectric 4.90
$end
--------------------------------------------------------------

             Standard Nuclear Orientation (Angstroms)
    I     Atom           X                Y                Z
 ----------------------------------------------------------------
    1      C      -0.2721040000    -8.5197410000    -0.0006870000
    2      C       0.7795330000    -7.6359670000    -0.1944760000
    3      S      -1.7995960000    -7.6517400000     0.2875810000
    4      C       0.3994270000    -6.2618940000    -0.1257870000
    5      H       1.8123140000    -7.9547380000    -0.3838260000
    6      C      -1.0067620000    -6.0799850000     0.1219890000
    7      C      -1.5649940000    -4.7983820000     0.2474880000
    8      C       1.2840870000    -5.1535420000    -0.2583030000
    9      C       0.7262600000    -3.8696260000    -0.1284930000
   10      C      -0.6819180000    -3.6889270000     0.1167250000
   11      O       2.5806220000    -5.4810750000    -0.5171040000
   12      O      -2.8671440000    -4.4798710000     0.5086220000
   13      C      -3.9008140000    -5.3560260000     0.0758110000
   14      H      -4.8470020000    -4.7904960000     0.1736400000
   15      H      -3.9717940000    -6.2685130000     0.7073540000
   16      H      -3.7633970000    -5.6581870000    -0.9849630000
   17      C       3.6212250000    -4.5469990000    -0.2570160000
   18      H       4.5698280000    -5.1075640000    -0.3578640000
   19      H       3.5519100000    -4.1314730000     0.7712110000
   20      H       3.6265920000    -3.7120850000    -0.9909130000
   21      C      -1.0580880000    -2.3143260000     0.1870340000
   22      S       1.5230350000    -2.2954870000    -0.2818990000
   23      C       0.0000000000    -1.4351800000     0.0000000000
   24      H      -2.0905650000    -1.9932110000     0.3736530000
   25      H      -0.2662260000    -9.6159850000     0.0007730000
   26      C       0.0000000000     0.0000000000     0.0000000000
   27      S       0.6904370000     0.5764300000     1.5107320000
   28      C       1.8965120000     1.5898520000     0.7276290000
   29      C       0.6957200000     0.5838170000    -1.0646650000
   30      C       1.7586210000     1.4776740000    -0.6782870000
   31      C       0.6459280000     0.5398780000    -2.4861500000
   32      C       1.6147630000     1.3529970000    -3.1069160000
   33      S       2.5682610000     2.1574300000    -1.9657350000
   34      C       1.8127070000     1.5129910000    -4.5599720000
   35      O       1.0995230000     0.9106620000    -5.3502770000
   36      O       2.7977690000     2.3353300000    -5.0043750000
   37      F      -0.2050240000    -0.1792660000    -3.2462900000
   38      C       3.0790740000     2.5581240000    -6.3349760000
   39      H       3.9259100000     3.2679190000    -6.3702680000
   40      H       2.2081090000     2.9903670000    -6.8756090000
   41      H       3.3581470000     1.6188430000    -6.8618780000
   42      H       2.6013310000     2.1811800000     1.3215100000
 ----------------------------------------------------------------

   11   -2754.2519588902      5.28e-07  Convergence criterion met
 Total energy in the final basis set =    -2754.2519588902
        RIMP2         total energy =     -2759.3189809369 a.u.

                    Orbital Energies (a.u.)
 --------------------------------------------------------------

 Alpha MOs
 -- Occupied --
-92.0157 -92.0028 -91.9846 -91.9836 -26.3341 -20.6149 -20.5911 -20.5892
-20.5552 -11.4147 -11.3766 -11.3171 -11.3161 -11.3145 -11.3080 -11.2996
-11.2908 -11.2899 -11.2889 -11.2863 -11.2846 -11.2824 -11.2819 -11.2818
-11.2777 -11.2567 -11.2562 -11.2486 -11.2473  -9.0144  -9.0064  -8.9846
 -8.9844  -6.6950  -6.6942  -6.6939  -6.6876  -6.6870  -6.6857  -6.6656
 -6.6654  -6.6649  -6.6647  -6.6641  -6.6637  -1.6470  -1.4750  -1.4151
 -1.4120  -1.3709  -1.2406  -1.1930  -1.1689  -1.1438  -1.0830  -1.0507
 -1.0488  -1.0313  -0.9993  -0.9916  -0.9743  -0.9593  -0.9492  -0.9381
 -0.8936  -0.8738  -0.8449  -0.8048  -0.7929  -0.7861  -0.7765  -0.7665
 -0.7543  -0.7308  -0.7178  -0.7155  -0.6993  -0.6914  -0.6809  -0.6801
 -0.6753  -0.6617  -0.6577  -0.6511  -0.6287  -0.6183  -0.6162  -0.6101
 -0.6060  -0.5993  -0.5828  -0.5766  -0.5645  -0.5641  -0.5542  -0.5437
 -0.5346  -0.5286  -0.5222  -0.5146  -0.5134  -0.5085  -0.5011  -0.4937
 -0.4900  -0.4864  -0.4679  -0.4666  -0.4651  -0.4630  -0.4595  -0.4046
 -0.3978  -0.3840  -0.3545  -0.3511  -0.3092  -0.2954  -0.2563

          Ground-State Mulliken Net Atomic Charges

     Atom                 Charge (a.u.)
  ----------------------------------------
      1 C                    -0.191984
      2 C                    -0.254260
      3 S                    -0.024727
      4 C                    -0.017132
      5 H                     0.195738
      6 C                    -0.027804
      7 C                     0.239902
      8 C                     0.241233
      9 C                    -0.041554
     10 C                    -0.014589
     11 O                    -0.333561
     12 O                    -0.339909
     13 C                    -0.085539
     14 H                     0.121958
     15 H                     0.090296
     16 H                     0.093909
     17 C                    -0.086744
     18 H                     0.124836
     19 H                     0.093677
     20 H                     0.089530
     21 C                    -0.237434
     22 S                    -0.027767
     23 C                    -0.055240
     24 H                     0.194850
     25 H                     0.205689
     26 C                    -0.082469
     27 S                     0.139088
     28 C                    -0.173324
     29 C                    -0.111909
     30 C                    -0.008416
     31 C                     0.391176
     32 C                    -0.137175
     33 S                     0.064817
     34 C                     0.458853
     35 O                    -0.440856
     36 O                    -0.296992
     37 F                    -0.208490
     38 C                    -0.054627
     39 H                     0.117182
     40 H                     0.085480
     41 H                     0.085481
     42 H                     0.218806
  ----------------------------------------
  Sum of atomic charges =     0.000000

                    Cartesian Multipole Moments
 -----------------------------------------------------------------
    Charge (ESU x 10^10)
                 0.0000
    Dipole Moment (Debye)
         X       4.1381      Y       2.2325      Z       2.5507
       Tot       5.3492
    Quadrupole Moments (Debye-Ang)
        XX    -165.8793     XY       9.9606     YY    -171.7046
        XZ      -7.8385     YZ      -6.2935     ZZ    -203.1795

 Total job time:  305.28s(wall), 9883.64s(cpu)
        *  Thank you very much for using Q-Chem.  Have a nice day.  *
