 Q-Chem 5.4, Q-Chem, Inc., Pleasanton, CA (2021)
 Q-Chem 5.4.0 for Intel X86 EM64T Linux

User input:
--------------------------------------------------------------
$molecule
0 1
C	-0.046574	-8.519741	-0.268090
C	0.326886	-7.635967	0.733920
S	-0.595708	-7.651740	-1.722318
C	0.193236	-6.261894	0.371516
H	0.692700	-7.954738	1.718130
C	-0.294958	-6.079985	-0.970283
C	-0.515487	-4.798382	-1.498243
C	0.477358	-5.153542	1.219725
C	0.252655	-3.869626	0.692914
C	-0.233366	-3.688927	-0.651289
O	0.957369	-5.481075	2.451623
O	-0.998769	-4.479871	-2.735264
C	-0.752029	-5.356026	-3.828387
H	-1.012675	-4.790496	-4.743213
H	-1.386303	-6.268513	-3.788623
H	0.316492	-5.658187	-3.877260
C	0.881930	-4.546999	3.521580
H	1.145969	-5.107564	4.438260
H	-0.142712	-4.131473	3.631868
H	1.605610	-3.712085	3.399425
C	-0.367928	-2.314326	-1.009535
S	0.542088	-2.295487	1.450945
C	0.000000	-1.435180	0.000000
H	-0.730999	-1.993211	-1.993920
H	-0.046991	-9.615985	-0.262047
C	0.000000	0.000000	0.000000
S	0.780044	0.447780	1.510732
C	2.143774	1.236372	0.727629
C	0.786529	0.454137	-1.064665
C	1.988499	1.149844	-0.678287
C	0.729864	0.419512	-2.486150
C	1.825177	1.052041	-3.106916
S	2.903877	1.678680	-1.965735
C	2.047896	1.175232	-4.559972
O	1.240953	0.705897	-5.350277
O	3.160791	1.814024	-5.004375
F	-0.233039	-0.140940	-3.246290
C	3.476510	1.984585	-6.334976
H	4.433735	2.536545	-6.370268
H	2.693835	2.561503	-6.875609
H	3.588239	1.011113	-6.861878
H	2.940569	1.696327	1.321510
$end

$rem
JOBTYPE		SP
EXCHANGE	HF
CORRELATION	pRIMP2
BASIS		cc-pvtz
METHOD		rimp2
AUX_BASIS	rimp2-cc-pvtz
SOLVENT_METHOD	PCM
PURECART	11111
SYMMETRY	false
MEM_TOTAL	110000
SCF_CONVERGENCE = 6
THRESH=10
GUI = 2
$end

$solvent
dielectric 4.90
$end
--------------------------------------------------------------

             Standard Nuclear Orientation (Angstroms)
    I     Atom           X                Y                Z
 ----------------------------------------------------------------
    1      C      -0.0465740000    -8.5197410000    -0.2680900000
    2      C       0.3268860000    -7.6359670000     0.7339200000
    3      S      -0.5957080000    -7.6517400000    -1.7223180000
    4      C       0.1932360000    -6.2618940000     0.3715160000
    5      H       0.6927000000    -7.9547380000     1.7181300000
    6      C      -0.2949580000    -6.0799850000    -0.9702830000
    7      C      -0.5154870000    -4.7983820000    -1.4982430000
    8      C       0.4773580000    -5.1535420000     1.2197250000
    9      C       0.2526550000    -3.8696260000     0.6929140000
   10      C      -0.2333660000    -3.6889270000    -0.6512890000
   11      O       0.9573690000    -5.4810750000     2.4516230000
   12      O      -0.9987690000    -4.4798710000    -2.7352640000
   13      C      -0.7520290000    -5.3560260000    -3.8283870000
   14      H      -1.0126750000    -4.7904960000    -4.7432130000
   15      H      -1.3863030000    -6.2685130000    -3.7886230000
   16      H       0.3164920000    -5.6581870000    -3.8772600000
   17      C       0.8819300000    -4.5469990000     3.5215800000
   18      H       1.1459690000    -5.1075640000     4.4382600000
   19      H      -0.1427120000    -4.1314730000     3.6318680000
   20      H       1.6056100000    -3.7120850000     3.3994250000
   21      C      -0.3679280000    -2.3143260000    -1.0095350000
   22      S       0.5420880000    -2.2954870000     1.4509450000
   23      C       0.0000000000    -1.4351800000     0.0000000000
   24      H      -0.7309990000    -1.9932110000    -1.9939200000
   25      H      -0.0469910000    -9.6159850000    -0.2620470000
   26      C       0.0000000000     0.0000000000     0.0000000000
   27      S       0.7800440000     0.4477800000     1.5107320000
   28      C       2.1437740000     1.2363720000     0.7276290000
   29      C       0.7865290000     0.4541370000    -1.0646650000
   30      C       1.9884990000     1.1498440000    -0.6782870000
   31      C       0.7298640000     0.4195120000    -2.4861500000
   32      C       1.8251770000     1.0520410000    -3.1069160000
   33      S       2.9038770000     1.6786800000    -1.9657350000
   34      C       2.0478960000     1.1752320000    -4.5599720000
   35      O       1.2409530000     0.7058970000    -5.3502770000
   36      O       3.1607910000     1.8140240000    -5.0043750000
   37      F      -0.2330390000    -0.1409400000    -3.2462900000
   38      C       3.4765100000     1.9845850000    -6.3349760000
   39      H       4.4337350000     2.5365450000    -6.3702680000
   40      H       2.6938350000     2.5615030000    -6.8756090000
   41      H       3.5882390000     1.0111130000    -6.8618780000
   42      H       2.9405690000     1.6963270000     1.3215100000
 ----------------------------------------------------------------

   11   -2754.2228125450      7.20e-07  Convergence criterion met
 Total energy in the final basis set =    -2754.2228125450
        RIMP2         total energy =     -2759.2988557703 a.u.

                    Orbital Energies (a.u.)
 --------------------------------------------------------------

 Alpha MOs
 -- Occupied --
-92.0177 -92.0099 -91.9852 -91.9811 -26.3373 -20.6174 -20.5901 -20.5840
-20.5594 -11.4184 -11.3778 -11.3297 -11.3166 -11.3152 -11.3057 -11.3044
-11.3009 -11.2960 -11.2913 -11.2861 -11.2816 -11.2790 -11.2786 -11.2726
-11.2722 -11.2551 -11.2489 -11.2461 -11.2291  -9.0174  -9.0132  -8.9861
 -8.9811  -6.6980  -6.6971  -6.6970  -6.6944  -6.6938  -6.6925  -6.6670
 -6.6660  -6.6651  -6.6621  -6.6615  -6.6606  -1.6511  -1.4778  -1.4139
 -1.4069  -1.3742  -1.2477  -1.1919  -1.1716  -1.1435  -1.0842  -1.0542
 -1.0456  -1.0353  -0.9978  -0.9921  -0.9780  -0.9568  -0.9469  -0.9366
 -0.8936  -0.8776  -0.8438  -0.8027  -0.8006  -0.7872  -0.7743  -0.7665
 -0.7527  -0.7279  -0.7233  -0.7178  -0.6978  -0.6943  -0.6834  -0.6816
 -0.6751  -0.6629  -0.6560  -0.6478  -0.6259  -0.6156  -0.6138  -0.6128
 -0.6085  -0.6028  -0.5883  -0.5732  -0.5636  -0.5623  -0.5520  -0.5407
 -0.5359  -0.5323  -0.5196  -0.5178  -0.5152  -0.5093  -0.5021  -0.4948
 -0.4891  -0.4806  -0.4716  -0.4666  -0.4648  -0.4567  -0.4549  -0.4239
 -0.3933  -0.3784  -0.3564  -0.3458  -0.3239  -0.2893  -0.2415

          Ground-State Mulliken Net Atomic Charges

     Atom                 Charge (a.u.)
  ----------------------------------------
      1 C                    -0.203679
      2 C                    -0.253078
      3 S                    -0.030654
      4 C                    -0.029645
      5 H                     0.194244
      6 C                    -0.023713
      7 C                     0.224903
      8 C                     0.246307
      9 C                    -0.058889
     10 C                     0.000707
     11 O                    -0.333469
     12 O                    -0.342170
     13 C                    -0.085699
     14 H                     0.121832
     15 H                     0.089606
     16 H                     0.091160
     17 C                    -0.087949
     18 H                     0.125161
     19 H                     0.094223
     20 H                     0.088266
     21 C                    -0.321647
     22 S                    -0.036536
     23 C                     0.015920
     24 H                     0.199117
     25 H                     0.203604
     26 C                    -0.125666
     27 S                     0.115159
     28 C                    -0.141282
     29 C                     0.005527
     30 C                    -0.035750
     31 C                     0.340558
     32 C                    -0.102401
     33 S                     0.082654
     34 C                     0.455908
     35 O                    -0.435215
     36 O                    -0.296200
     37 F                    -0.210930
     38 C                    -0.054600
     39 H                     0.117889
     40 H                     0.086124
     41 H                     0.086126
     42 H                     0.224178
  ----------------------------------------
  Sum of atomic charges =     0.000000

                    Cartesian Multipole Moments
 -----------------------------------------------------------------
    Charge (ESU x 10^10)
                -0.0000
    Dipole Moment (Debye)
         X       6.0064      Y       3.9308      Z       2.9181
       Tot       7.7488
    Quadrupole Moments (Debye-Ang)
        XX    -184.8487     XY       7.8192     YY    -186.1630
        XZ      -9.0331     YZ      -7.8913     ZZ    -177.1402

 Total job time:  309.92s(wall), 10126.35s(cpu)
        *  Thank you very much for using Q-Chem.  Have a nice day.  *
