 Q-Chem 5.4, Q-Chem, Inc., Pleasanton, CA (2021)
 Q-Chem 5.4.0 for Intel X86 EM64T Linux

User input:
--------------------------------------------------------------
$molecule
0 1
C	0.267851	-8.519741	0.047927
C	-0.801461	-7.635967	0.056157
S	1.822194	-7.651740	0.029285
C	-0.415201	-6.261894	0.054516
H	-1.851431	-7.954738	0.063290
C	1.012650	-6.079985	0.054687
C	1.584194	-4.798382	0.028030
C	-1.309433	-5.153542	0.031399
C	-0.737539	-3.869626	0.000427
C	0.691828	-3.688927	0.003462
O	-2.631211	-5.481075	0.061128
O	2.911907	-4.479871	-0.003021
C	3.854716	-5.356026	0.602710
H	4.803517	-4.790496	0.670671
H	4.034285	-6.268513	-0.006913
H	3.535185	-5.658187	1.623507
C	-3.610841	-4.546999	-0.375708
H	-4.562544	-5.107564	-0.441115
H	-3.364029	-4.131473	-1.376277
H	-3.743566	-3.712085	0.346107
C	1.074491	-2.314326	-0.000458
S	-1.548848	-2.295487	0.013144
C	0.000000	-1.435180	0.000000
H	2.123688	-1.993211	-0.004953
H	0.262315	-9.615985	0.045468
C	0.000000	0.000000	0.000000
S	0.309721	0.844422	1.510732
C	0.847502	2.325108	0.727629
C	0.310602	0.853460	-1.064665
C	0.784173	2.159014	-0.678287
C	0.289451	0.790512	-2.486150
C	0.721927	1.979112	-3.106916
S	1.145464	3.152519	-1.965735
C	0.813355	2.216642	-4.559972
O	0.496884	1.338418	-5.350277
O	1.255274	3.421340	-5.004375
F	-0.087923	-0.257761	-3.246290
C	1.387494	3.754937	-6.334976
H	1.765978	4.793056	-6.370268
H	0.417095	3.693789	-6.875609
H	2.098820	3.081033	-6.861878
H	1.162229	3.189623	1.321510
$end

$rem
JOBTYPE		SP
EXCHANGE	HF
CORRELATION	pRIMP2
BASIS		cc-pvtz
METHOD		rimp2
AUX_BASIS	rimp2-cc-pvtz
SOLVENT_METHOD	PCM
PURECART	11111
SYMMETRY	false
MEM_TOTAL	110000
SCF_CONVERGENCE = 6
THRESH=10
GUI = 2
$end

$solvent
dielectric 4.90
$end
--------------------------------------------------------------

             Standard Nuclear Orientation (Angstroms)
    I     Atom           X                Y                Z
 ----------------------------------------------------------------
    1      C       0.2678510000    -8.5197410000     0.0479270000
    2      C      -0.8014610000    -7.6359670000     0.0561570000
    3      S       1.8221940000    -7.6517400000     0.0292850000
    4      C      -0.4152010000    -6.2618940000     0.0545160000
    5      H      -1.8514310000    -7.9547380000     0.0632900000
    6      C       1.0126500000    -6.0799850000     0.0546870000
    7      C       1.5841940000    -4.7983820000     0.0280300000
    8      C      -1.3094330000    -5.1535420000     0.0313990000
    9      C      -0.7375390000    -3.8696260000     0.0004270000
   10      C       0.6918280000    -3.6889270000     0.0034620000
   11      O      -2.6312110000    -5.4810750000     0.0611280000
   12      O       2.9119070000    -4.4798710000    -0.0030210000
   13      C       3.8547160000    -5.3560260000     0.6027100000
   14      H       4.8035170000    -4.7904960000     0.6706710000
   15      H       4.0342850000    -6.2685130000    -0.0069130000
   16      H       3.5351850000    -5.6581870000     1.6235070000
   17      C      -3.6108410000    -4.5469990000    -0.3757080000
   18      H      -4.5625440000    -5.1075640000    -0.4411150000
   19      H      -3.3640290000    -4.1314730000    -1.3762770000
   20      H      -3.7435660000    -3.7120850000     0.3461070000
   21      C       1.0744910000    -2.3143260000    -0.0004580000
   22      S      -1.5488480000    -2.2954870000     0.0131440000
   23      C       0.0000000000    -1.4351800000     0.0000000000
   24      H       2.1236880000    -1.9932110000    -0.0049530000
   25      H       0.2623150000    -9.6159850000     0.0454680000
   26      C       0.0000000000     0.0000000000     0.0000000000
   27      S       0.3097210000     0.8444220000     1.5107320000
   28      C       0.8475020000     2.3251080000     0.7276290000
   29      C       0.3106020000     0.8534600000    -1.0646650000
   30      C       0.7841730000     2.1590140000    -0.6782870000
   31      C       0.2894510000     0.7905120000    -2.4861500000
   32      C       0.7219270000     1.9791120000    -3.1069160000
   33      S       1.1454640000     3.1525190000    -1.9657350000
   34      C       0.8133550000     2.2166420000    -4.5599720000
   35      O       0.4968840000     1.3384180000    -5.3502770000
   36      O       1.2552740000     3.4213400000    -5.0043750000
   37      F      -0.0879230000    -0.2577610000    -3.2462900000
   38      C       1.3874940000     3.7549370000    -6.3349760000
   39      H       1.7659780000     4.7930560000    -6.3702680000
   40      H       0.4170950000     3.6937890000    -6.8756090000
   41      H       2.0988200000     3.0810330000    -6.8618780000
   42      H       1.1622290000     3.1896230000     1.3215100000
 ----------------------------------------------------------------

   10   -2754.2875769242      9.04e-07  Convergence criterion met
 Total energy in the final basis set =    -2754.2875769242
        RIMP2         total energy =     -2759.3425128092 a.u.

                    Orbital Energies (a.u.)
 --------------------------------------------------------------

 Alpha MOs
 -- Occupied --
-92.0161 -91.9953 -91.9880 -91.9862 -26.3337 -20.6123 -20.5920 -20.5915
-20.5507 -11.4108 -11.3767 -11.3187 -11.3181 -11.3049 -11.2987 -11.2972
-11.2957 -11.2929 -11.2885 -11.2865 -11.2862 -11.2855 -11.2841 -11.2837
-11.2798 -11.2605 -11.2589 -11.2583 -11.2498  -9.0143  -8.9993  -8.9884
 -8.9861  -6.6949  -6.6943  -6.6939  -6.6806  -6.6799  -6.6786  -6.6693
 -6.6686  -6.6677  -6.6671  -6.6665  -6.6656  -1.6466  -1.4721  -1.4161
 -1.4142  -1.3675  -1.2336  -1.1954  -1.1679  -1.1418  -1.0836  -1.0516
 -1.0476  -1.0278  -1.0016  -0.9929  -0.9714  -0.9609  -0.9501  -0.9384
 -0.8952  -0.8695  -0.8495  -0.8047  -0.7906  -0.7879  -0.7740  -0.7688
 -0.7577  -0.7324  -0.7179  -0.7149  -0.7011  -0.6890  -0.6827  -0.6786
 -0.6714  -0.6604  -0.6584  -0.6525  -0.6303  -0.6199  -0.6166  -0.6067
 -0.6021  -0.5953  -0.5827  -0.5766  -0.5709  -0.5659  -0.5537  -0.5525
 -0.5323  -0.5264  -0.5240  -0.5160  -0.5138  -0.5075  -0.5012  -0.4935
 -0.4908  -0.4848  -0.4753  -0.4666  -0.4617  -0.4614  -0.4602  -0.4042
 -0.4010  -0.3871  -0.3586  -0.3467  -0.3135  -0.2909  -0.2588

          Ground-State Mulliken Net Atomic Charges

     Atom                 Charge (a.u.)
  ----------------------------------------
      1 C                    -0.188035
      2 C                    -0.254388
      3 S                    -0.022371
      4 C                    -0.014971
      5 H                     0.196526
      6 C                    -0.029244
      7 C                     0.242911
      8 C                     0.244077
      9 C                    -0.054656
     10 C                    -0.020917
     11 O                    -0.333492
     12 O                    -0.339929
     13 C                    -0.085594
     14 H                     0.122519
     15 H                     0.091180
     16 H                     0.093758
     17 C                    -0.086253
     18 H                     0.124482
     19 H                     0.095429
     20 H                     0.089203
     21 C                    -0.202767
     22 S                     0.003387
     23 C                    -0.032622
     24 H                     0.198752
     25 H                     0.206453
     26 C                    -0.048888
     27 S                     0.121578
     28 C                    -0.231469
     29 C                    -0.104020
     30 C                    -0.002204
     31 C                     0.385348
     32 C                    -0.155035
     33 S                     0.041846
     34 C                     0.459667
     35 O                    -0.448497
     36 O                    -0.297688
     37 F                    -0.210382
     38 C                    -0.054884
     39 H                     0.116590
     40 H                     0.084720
     41 H                     0.084624
     42 H                     0.215259
  ----------------------------------------
  Sum of atomic charges =     0.000000

                    Cartesian Multipole Moments
 -----------------------------------------------------------------
    Charge (ESU x 10^10)
                -0.0000
    Dipole Moment (Debye)
         X       1.2662      Y       1.7091      Z       3.4478
       Tot       4.0511
    Quadrupole Moments (Debye-Ang)
        XX    -176.0012     XY       4.8095     YY    -161.0053
        XZ       1.8779     YZ     -11.6677     ZZ    -204.8129

 Total job time:  495.55s(wall), 11975.72s(cpu)
        *  Thank you very much for using Q-Chem.  Have a nice day.  *
