 Q-Chem 5.4, Q-Chem, Inc., Pleasanton, CA (2021)
 Q-Chem 5.4.0 for Intel X86 EM64T Linux

User input:
--------------------------------------------------------------
$molecule
0 1
C	0.093711	-8.519741	-0.255459
C	-0.083869	-7.635967	0.799036
S	0.345260	-7.651740	-1.789425
C	-0.018411	-6.261894	0.418360
H	-0.259169	-7.954738	1.834294
C	0.229701	-6.079985	-0.987769
C	0.302697	-4.798382	-1.555260
C	-0.196459	-5.153542	1.294992
C	-0.127651	-3.869626	0.726408
C	0.123544	-3.688927	-0.680716
O	-0.396706	-5.481075	2.601852
O	0.502673	-4.479871	-2.868193
C	1.262918	-5.356026	-3.691495
H	1.494604	-4.790496	-4.614080
H	0.693738	-6.268513	-3.974195
H	2.212720	-5.658187	-3.199559
C	-0.997016	-4.546999	3.490743
H	-1.226691	-5.107564	4.416630
H	-1.939526	-4.131473	3.073934
H	-0.309214	-3.712085	3.746794
C	0.186133	-2.314326	-1.058247
S	-0.256010	-2.295487	1.527599
C	-0.000000	-1.435180	-0.000000
H	0.363896	-1.993211	-2.092285
H	0.090328	-9.615985	-0.250435
C	0.000000	0.000000	0.000000
S	0.690437	0.576430	1.510732
C	1.896512	1.589852	0.727629
C	0.695720	0.583817	-1.064665
C	1.758621	1.477674	-0.678287
C	0.645928	0.539878	-2.486150
C	1.614763	1.352997	-3.106916
S	2.568261	2.157430	-1.965735
C	1.812707	1.512991	-4.559972
O	1.099523	0.910662	-5.350277
O	2.797769	2.335330	-5.004375
F	-0.205024	-0.179266	-3.246290
C	3.079074	2.558124	-6.334976
H	3.925910	3.267919	-6.370268
H	2.208109	2.990367	-6.875609
H	3.358147	1.618843	-6.861878
H	2.601331	2.181180	1.321510
$end

$rem
JOBTYPE		SP
EXCHANGE	HF
CORRELATION	pRIMP2
BASIS		cc-pvtz
METHOD		rimp2
AUX_BASIS	rimp2-cc-pvtz
SOLVENT_METHOD	PCM
PURECART	11111
SYMMETRY	false
MEM_TOTAL	110000
SCF_CONVERGENCE = 6
THRESH=10
GUI = 2
$end

$solvent
dielectric 4.90
$end
--------------------------------------------------------------

             Standard Nuclear Orientation (Angstroms)
    I     Atom           X                Y                Z
 ----------------------------------------------------------------
    1      C       0.0937110000    -8.5197410000    -0.2554590000
    2      C      -0.0838690000    -7.6359670000     0.7990360000
    3      S       0.3452600000    -7.6517400000    -1.7894250000
    4      C      -0.0184110000    -6.2618940000     0.4183600000
    5      H      -0.2591690000    -7.9547380000     1.8342940000
    6      C       0.2297010000    -6.0799850000    -0.9877690000
    7      C       0.3026970000    -4.7983820000    -1.5552600000
    8      C      -0.1964590000    -5.1535420000     1.2949920000
    9      C      -0.1276510000    -3.8696260000     0.7264080000
   10      C       0.1235440000    -3.6889270000    -0.6807160000
   11      O      -0.3967060000    -5.4810750000     2.6018520000
   12      O       0.5026730000    -4.4798710000    -2.8681930000
   13      C       1.2629180000    -5.3560260000    -3.6914950000
   14      H       1.4946040000    -4.7904960000    -4.6140800000
   15      H       0.6937380000    -6.2685130000    -3.9741950000
   16      H       2.2127200000    -5.6581870000    -3.1995590000
   17      C      -0.9970160000    -4.5469990000     3.4907430000
   18      H      -1.2266910000    -5.1075640000     4.4166300000
   19      H      -1.9395260000    -4.1314730000     3.0739340000
   20      H      -0.3092140000    -3.7120850000     3.7467940000
   21      C       0.1861330000    -2.3143260000    -1.0582470000
   22      S      -0.2560100000    -2.2954870000     1.5275990000
   23      C       0.0000000000    -1.4351800000     0.0000000000
   24      H       0.3638960000    -1.9932110000    -2.0922850000
   25      H       0.0903280000    -9.6159850000    -0.2504350000
   26      C       0.0000000000     0.0000000000     0.0000000000
   27      S       0.6904370000     0.5764300000     1.5107320000
   28      C       1.8965120000     1.5898520000     0.7276290000
   29      C       0.6957200000     0.5838170000    -1.0646650000
   30      C       1.7586210000     1.4776740000    -0.6782870000
   31      C       0.6459280000     0.5398780000    -2.4861500000
   32      C       1.6147630000     1.3529970000    -3.1069160000
   33      S       2.5682610000     2.1574300000    -1.9657350000
   34      C       1.8127070000     1.5129910000    -4.5599720000
   35      O       1.0995230000     0.9106620000    -5.3502770000
   36      O       2.7977690000     2.3353300000    -5.0043750000
   37      F      -0.2050240000    -0.1792660000    -3.2462900000
   38      C       3.0790740000     2.5581240000    -6.3349760000
   39      H       3.9259100000     3.2679190000    -6.3702680000
   40      H       2.2081090000     2.9903670000    -6.8756090000
   41      H       3.3581470000     1.6188430000    -6.8618780000
   42      H       2.6013310000     2.1811800000     1.3215100000
 ----------------------------------------------------------------

   11   -2754.2494099938      5.89e-07  Convergence criterion met
 Total energy in the final basis set =    -2754.2494099938
        RIMP2         total energy =     -2759.3197768972 a.u.

                    Orbital Energies (a.u.)
 --------------------------------------------------------------

 Alpha MOs
 -- Occupied --
-92.0179 -92.0055 -91.9839 -91.9834 -26.3374 -20.6157 -20.5909 -20.5871
-20.5563 -11.4158 -11.3777 -11.3190 -11.3169 -11.3111 -11.3104 -11.3021
-11.2964 -11.2926 -11.2904 -11.2890 -11.2863 -11.2833 -11.2811 -11.2802
-11.2753 -11.2578 -11.2533 -11.2477 -11.2409  -9.0170  -9.0091  -8.9850
 -8.9834  -6.6977  -6.6969  -6.6966  -6.6903  -6.6896  -6.6884  -6.6661
 -6.6653  -6.6644  -6.6643  -6.6637  -6.6629  -1.6514  -1.4759  -1.4148
 -1.4099  -1.3719  -1.2425  -1.1930  -1.1701  -1.1445  -1.0842  -1.0525
 -1.0479  -1.0332  -0.9991  -0.9927  -0.9761  -0.9583  -0.9484  -0.9382
 -0.8942  -0.8753  -0.8458  -0.8034  -0.7992  -0.7871  -0.7738  -0.7694
 -0.7545  -0.7315  -0.7235  -0.7180  -0.6990  -0.6931  -0.6823  -0.6796
 -0.6761  -0.6622  -0.6571  -0.6498  -0.6256  -0.6172  -0.6140  -0.6112
 -0.6061  -0.6020  -0.5846  -0.5736  -0.5666  -0.5603  -0.5562  -0.5441
 -0.5348  -0.5275  -0.5221  -0.5180  -0.5159  -0.5092  -0.5052  -0.4964
 -0.4881  -0.4826  -0.4732  -0.4682  -0.4642  -0.4606  -0.4562  -0.4238
 -0.3954  -0.3812  -0.3572  -0.3502  -0.3246  -0.2859  -0.2443

          Ground-State Mulliken Net Atomic Charges

     Atom                 Charge (a.u.)
  ----------------------------------------
      1 C                    -0.197202
      2 C                    -0.254097
      3 S                    -0.026730
      4 C                    -0.022532
      5 H                     0.195162
      6 C                    -0.024724
      7 C                     0.235943
      8 C                     0.246655
      9 C                    -0.047394
     10 C                    -0.013951
     11 O                    -0.333611
     12 O                    -0.341771
     13 C                    -0.086322
     14 H                     0.122655
     15 H                     0.090799
     16 H                     0.092163
     17 C                    -0.087682
     18 H                     0.125328
     19 H                     0.094795
     20 H                     0.088802
     21 C                    -0.261118
     22 S                    -0.048625
     23 C                    -0.010623
     24 H                     0.199141
     25 H                     0.204877
     26 C                    -0.075150
     27 S                     0.124505
     28 C                    -0.171602
     29 C                    -0.033129
     30 C                    -0.033212
     31 C                     0.326095
     32 C                    -0.116731
     33 S                     0.073615
     34 C                     0.459873
     35 O                    -0.440602
     36 O                    -0.296978
     37 F                    -0.212888
     38 C                    -0.054461
     39 H                     0.117468
     40 H                     0.085638
     41 H                     0.085455
     42 H                     0.222165
  ----------------------------------------
  Sum of atomic charges =     0.000000

                    Cartesian Multipole Moments
 -----------------------------------------------------------------
    Charge (ESU x 10^10)
                 0.0000
    Dipole Moment (Debye)
         X       4.4055      Y       3.1840      Z       3.1104
       Tot       6.2626
    Quadrupole Moments (Debye-Ang)
        XX    -185.9196     XY       8.8483     YY    -176.0104
        XZ     -18.5235     YZ      -8.8251     ZZ    -182.4616

 Total job time:  307.17s(wall), 9921.20s(cpu)
        *  Thank you very much for using Q-Chem.  Have a nice day.  *
