 Q-Chem 5.4, Q-Chem, Inc., Pleasanton, CA (2021)
 Q-Chem 5.4.0 for Intel X86 EM64T Linux

User input:
--------------------------------------------------------------
$molecule
0 1
C	0.175432	-8.519741	-0.208002
C	-0.352097	-7.635967	0.722164
S	0.936458	-7.651740	-1.563424
C	-0.160388	-6.261894	0.386833
H	-0.870905	-7.954738	1.635031
C	0.553685	-6.079985	-0.849637
C	0.816372	-4.798382	-1.357938
C	-0.627524	-5.153542	1.149702
C	-0.368399	-3.869626	0.638941
C	0.348912	-3.688927	-0.597409
O	-1.262667	-5.481075	2.309260
O	1.453338	-4.479871	-2.523296
C	2.449320	-5.356026	-3.036927
H	2.982577	-4.790496	-3.824632
H	2.011155	-6.268513	-3.497250
H	3.173591	-5.658187	-2.249807
C	-2.130793	-4.546999	2.939226
H	-2.663289	-5.107564	3.730721
H	-2.873906	-4.131473	2.225196
H	-1.572045	-3.712085	3.415077
C	0.536849	-2.314326	-0.930765
S	-0.763041	-2.295487	1.347913
C	-0.000000	-1.435180	-0.000000
H	1.057554	-1.993211	-1.841645
H	0.170535	-9.615985	-0.204438
C	0.000000	0.000000	0.000000
S	0.158383	0.885376	1.510732
C	0.430876	2.436951	0.727629
C	0.157682	0.894430	-1.064665
C	0.397351	2.262384	-0.678287
C	0.147783	0.828765	-2.486150
C	0.367291	2.074406	-3.106916
S	0.580633	3.303533	-1.965735
C	0.416083	2.324204	-4.559972
O	0.256921	1.404367	-5.350277
O	0.642094	3.587338	-5.004375
F	-0.041828	-0.269113	-3.246290
C	0.714377	3.938827	-6.334976
H	0.906844	5.026898	-6.370268
H	-0.230661	3.710099	-6.875609
H	1.531918	3.398681	-6.861878
H	0.590699	3.342984	1.321510
$end

$rem
JOBTYPE		SP
EXCHANGE	HF
CORRELATION	pRIMP2
BASIS		cc-pvtz
METHOD		rimp2
AUX_BASIS	rimp2-cc-pvtz
SOLVENT_METHOD	PCM
PURECART	11111
SYMMETRY	false
MEM_TOTAL	110000
SCF_CONVERGENCE = 6
THRESH=10
GUI = 2
$end

$solvent
dielectric 4.90
$end
--------------------------------------------------------------

             Standard Nuclear Orientation (Angstroms)
    I     Atom           X                Y                Z
 ----------------------------------------------------------------
    1      C       0.1754320000    -8.5197410000    -0.2080020000
    2      C      -0.3520970000    -7.6359670000     0.7221640000
    3      S       0.9364580000    -7.6517400000    -1.5634240000
    4      C      -0.1603880000    -6.2618940000     0.3868330000
    5      H      -0.8709050000    -7.9547380000     1.6350310000
    6      C       0.5536850000    -6.0799850000    -0.8496370000
    7      C       0.8163720000    -4.7983820000    -1.3579380000
    8      C      -0.6275240000    -5.1535420000     1.1497020000
    9      C      -0.3683990000    -3.8696260000     0.6389410000
   10      C       0.3489120000    -3.6889270000    -0.5974090000
   11      O      -1.2626670000    -5.4810750000     2.3092600000
   12      O       1.4533380000    -4.4798710000    -2.5232960000
   13      C       2.4493200000    -5.3560260000    -3.0369270000
   14      H       2.9825770000    -4.7904960000    -3.8246320000
   15      H       2.0111550000    -6.2685130000    -3.4972500000
   16      H       3.1735910000    -5.6581870000    -2.2498070000
   17      C      -2.1307930000    -4.5469990000     2.9392260000
   18      H      -2.6632890000    -5.1075640000     3.7307210000
   19      H      -2.8739060000    -4.1314730000     2.2251960000
   20      H      -1.5720450000    -3.7120850000     3.4150770000
   21      C       0.5368490000    -2.3143260000    -0.9307650000
   22      S      -0.7630410000    -2.2954870000     1.3479130000
   23      C       0.0000000000    -1.4351800000     0.0000000000
   24      H       1.0575540000    -1.9932110000    -1.8416450000
   25      H       0.1705350000    -9.6159850000    -0.2044380000
   26      C       0.0000000000     0.0000000000     0.0000000000
   27      S       0.1583830000     0.8853760000     1.5107320000
   28      C       0.4308760000     2.4369510000     0.7276290000
   29      C       0.1576820000     0.8944300000    -1.0646650000
   30      C       0.3973510000     2.2623840000    -0.6782870000
   31      C       0.1477830000     0.8287650000    -2.4861500000
   32      C       0.3672910000     2.0744060000    -3.1069160000
   33      S       0.5806330000     3.3035330000    -1.9657350000
   34      C       0.4160830000     2.3242040000    -4.5599720000
   35      O       0.2569210000     1.4043670000    -5.3502770000
   36      O       0.6420940000     3.5873380000    -5.0043750000
   37      F      -0.0418280000    -0.2691130000    -3.2462900000
   38      C       0.7143770000     3.9388270000    -6.3349760000
   39      H       0.9068440000     5.0268980000    -6.3702680000
   40      H      -0.2306610000     3.7100990000    -6.8756090000
   41      H       1.5319180000     3.3986810000    -6.8618780000
   42      H       0.5906990000     3.3429840000     1.3215100000
 ----------------------------------------------------------------

   10   -2754.2972653945      7.90e-07  Convergence criterion met
 Total energy in the final basis set =    -2754.2972653945
        RIMP2         total energy =     -2759.3516386397 a.u.

                    Orbital Energies (a.u.)
 --------------------------------------------------------------

 Alpha MOs
 -- Occupied --
-92.0161 -91.9949 -91.9911 -91.9870 -26.3355 -20.6117 -20.5931 -20.5918
-20.5494 -11.4098 -11.3779 -11.3202 -11.3194 -11.3128 -11.2973 -11.2964
-11.2963 -11.2929 -11.2883 -11.2881 -11.2877 -11.2858 -11.2848 -11.2813
-11.2807 -11.2624 -11.2604 -11.2593 -11.2505  -9.0145  -8.9989  -8.9917
 -8.9869  -6.6953  -6.6947  -6.6942  -6.6802  -6.6795  -6.6782  -6.6727
 -6.6720  -6.6710  -6.6679  -6.6673  -6.6664  -1.6488  -1.4714  -1.4172
 -1.4145  -1.3667  -1.2336  -1.1973  -1.1696  -1.1424  -1.0849  -1.0531
 -1.0479  -1.0279  -1.0036  -0.9940  -0.9720  -0.9615  -0.9509  -0.9386
 -0.8971  -0.8694  -0.8515  -0.8048  -0.7949  -0.7885  -0.7727  -0.7698
 -0.7582  -0.7333  -0.7197  -0.7168  -0.7020  -0.6890  -0.6838  -0.6782
 -0.6718  -0.6619  -0.6597  -0.6528  -0.6297  -0.6204  -0.6166  -0.6061
 -0.6014  -0.5940  -0.5869  -0.5760  -0.5705  -0.5628  -0.5529  -0.5500
 -0.5367  -0.5265  -0.5259  -0.5172  -0.5165  -0.5089  -0.5049  -0.4971
 -0.4882  -0.4840  -0.4782  -0.4688  -0.4618  -0.4611  -0.4594  -0.4212
 -0.3981  -0.3865  -0.3592  -0.3506  -0.3245  -0.2851  -0.2501

          Ground-State Mulliken Net Atomic Charges

     Atom                 Charge (a.u.)
  ----------------------------------------
      1 C                    -0.186623
      2 C                    -0.254364
      3 S                    -0.019646
      4 C                    -0.014079
      5 H                     0.196504
      6 C                    -0.029894
      7 C                     0.247494
      8 C                     0.241408
      9 C                    -0.041139
     10 C                    -0.035673
     11 O                    -0.333284
     12 O                    -0.338244
     13 C                    -0.086098
     14 H                     0.123587
     15 H                     0.091432
     16 H                     0.093898
     17 C                    -0.087593
     18 H                     0.125780
     19 H                     0.095438
     20 H                     0.089323
     21 C                    -0.190917
     22 S                    -0.027780
     23 C                    -0.007246
     24 H                     0.195612
     25 H                     0.206848
     26 C                    -0.034582
     27 S                     0.105368
     28 C                    -0.248808
     29 C                    -0.093872
     30 C                    -0.009834
     31 C                     0.387393
     32 C                    -0.144521
     33 S                     0.038276
     34 C                     0.462433
     35 O                    -0.451465
     36 O                    -0.298131
     37 F                    -0.213521
     38 C                    -0.054988
     39 H                     0.116565
     40 H                     0.084580
     41 H                     0.084299
     42 H                     0.216063
  ----------------------------------------
  Sum of atomic charges =     0.000000

                    Cartesian Multipole Moments
 -----------------------------------------------------------------
    Charge (ESU x 10^10)
                 0.0000
    Dipole Moment (Debye)
         X       0.8404      Y       1.1870      Z       3.3706
       Tot       3.6710
    Quadrupole Moments (Debye-Ang)
        XX    -189.4003     XY       1.1387     YY    -157.2104
        XZ     -14.7156     YZ     -10.4816     ZZ    -193.3643

 Total job time:  281.81s(wall), 9297.50s(cpu)
        *  Thank you very much for using Q-Chem.  Have a nice day.  *
