 Q-Chem 5.4, Q-Chem, Inc., Pleasanton, CA (2021)
 Q-Chem 5.4.0 for Intel X86 EM64T Linux

User input:
--------------------------------------------------------------
$molecule
0 1
C	0.136647	-8.519741	-0.235306
C	-0.221346	-7.635967	0.772334
S	0.650746	-7.651740	-1.702286
C	-0.090779	-6.261894	0.408807
H	-0.573754	-7.954738	1.761423
C	0.397735	-6.079985	-0.932876
C	0.568166	-4.798382	-1.479069
C	-0.418347	-5.153542	1.241204
C	-0.251852	-3.869626	0.693206
C	0.239872	-3.688927	-0.648921
O	-0.842486	-5.481075	2.493437
O	0.993092	-4.479871	-2.737331
C	1.884752	-5.356026	-3.416110
H	2.273124	-4.790496	-4.284447
H	1.373310	-6.268513	-3.793352
H	2.734702	-5.658187	-2.766716
C	-1.588030	-4.546999	3.264581
H	-1.974995	-5.107564	4.136519
H	-2.443843	-4.131473	2.690439
H	-0.955140	-3.712085	3.636177
C	0.367068	-2.314326	-1.009848
S	-0.517386	-2.295487	1.459936
C	-0.000000	-1.435180	-0.000000
H	0.721689	-1.993211	-1.997308
H	0.132444	-9.615985	-0.230945
C	0.000000	0.000000	0.000000
S	0.382139	0.814215	1.510732
C	1.046923	2.242395	0.727629
C	0.383804	0.823142	-1.064665
C	0.969360	2.082453	-0.678287
C	0.357247	0.762277	-2.486150
C	0.891671	1.908660	-3.106916
S	1.415865	3.040689	-1.965735
C	1.003453	2.137318	-4.559972
O	0.611644	1.290019	-5.350277
O	1.548687	3.298916	-5.004375
F	-0.110054	-0.249117	-3.246290
C	1.709479	3.619721	-6.334976
H	2.177001	4.620902	-6.370268
H	0.737443	3.643380	-6.875609
H	2.359363	2.886384	-6.861878
H	1.435800	3.076190	1.321510
$end

$rem
JOBTYPE		SP
EXCHANGE	HF
CORRELATION	pRIMP2
BASIS		cc-pvtz
METHOD		rimp2
AUX_BASIS	rimp2-cc-pvtz
SOLVENT_METHOD	PCM
PURECART	11111
SYMMETRY	false
MEM_TOTAL	110000
SCF_CONVERGENCE = 6
THRESH=10
GUI = 2
$end

$solvent
dielectric 4.90
$end
--------------------------------------------------------------

             Standard Nuclear Orientation (Angstroms)
    I     Atom           X                Y                Z
 ----------------------------------------------------------------
    1      C       0.1366470000    -8.5197410000    -0.2353060000
    2      C      -0.2213460000    -7.6359670000     0.7723340000
    3      S       0.6507460000    -7.6517400000    -1.7022860000
    4      C      -0.0907790000    -6.2618940000     0.4088070000
    5      H      -0.5737540000    -7.9547380000     1.7614230000
    6      C       0.3977350000    -6.0799850000    -0.9328760000
    7      C       0.5681660000    -4.7983820000    -1.4790690000
    8      C      -0.4183470000    -5.1535420000     1.2412040000
    9      C      -0.2518520000    -3.8696260000     0.6932060000
   10      C       0.2398720000    -3.6889270000    -0.6489210000
   11      O      -0.8424860000    -5.4810750000     2.4934370000
   12      O       0.9930920000    -4.4798710000    -2.7373310000
   13      C       1.8847520000    -5.3560260000    -3.4161100000
   14      H       2.2731240000    -4.7904960000    -4.2844470000
   15      H       1.3733100000    -6.2685130000    -3.7933520000
   16      H       2.7347020000    -5.6581870000    -2.7667160000
   17      C      -1.5880300000    -4.5469990000     3.2645810000
   18      H      -1.9749950000    -5.1075640000     4.1365190000
   19      H      -2.4438430000    -4.1314730000     2.6904390000
   20      H      -0.9551400000    -3.7120850000     3.6361770000
   21      C       0.3670680000    -2.3143260000    -1.0098480000
   22      S      -0.5173860000    -2.2954870000     1.4599360000
   23      C       0.0000000000    -1.4351800000     0.0000000000
   24      H       0.7216890000    -1.9932110000    -1.9973080000
   25      H       0.1324440000    -9.6159850000    -0.2309450000
   26      C       0.0000000000     0.0000000000     0.0000000000
   27      S       0.3821390000     0.8142150000     1.5107320000
   28      C       1.0469230000     2.2423950000     0.7276290000
   29      C       0.3838040000     0.8231420000    -1.0646650000
   30      C       0.9693600000     2.0824530000    -0.6782870000
   31      C       0.3572470000     0.7622770000    -2.4861500000
   32      C       0.8916710000     1.9086600000    -3.1069160000
   33      S       1.4158650000     3.0406890000    -1.9657350000
   34      C       1.0034530000     2.1373180000    -4.5599720000
   35      O       0.6116440000     1.2900190000    -5.3502770000
   36      O       1.5486870000     3.2989160000    -5.0043750000
   37      F      -0.1100540000    -0.2491170000    -3.2462900000
   38      C       1.7094790000     3.6197210000    -6.3349760000
   39      H       2.1770010000     4.6209020000    -6.3702680000
   40      H       0.7374430000     3.6433800000    -6.8756090000
   41      H       2.3593630000     2.8863840000    -6.8618780000
   42      H       1.4358000000     3.0761900000     1.3215100000
 ----------------------------------------------------------------

   10   -2754.2871305869      8.26e-07  Convergence criterion met
 Total energy in the final basis set =    -2754.2871305869
        RIMP2         total energy =     -2759.3458271940 a.u.

                    Orbital Energies (a.u.)
 --------------------------------------------------------------

 Alpha MOs
 -- Occupied --
-92.0164 -91.9972 -91.9892 -91.9864 -26.3366 -20.6126 -20.5926 -20.5909
-20.5509 -11.4111 -11.3780 -11.3196 -11.3179 -11.3082 -11.2994 -11.2989
-11.2977 -11.2964 -11.2888 -11.2874 -11.2868 -11.2853 -11.2841 -11.2832
-11.2797 -11.2615 -11.2591 -11.2555 -11.2500  -9.0150  -9.0011  -8.9899
 -8.9863  -6.6957  -6.6951  -6.6947  -6.6824  -6.6817  -6.6804  -6.6709
 -6.6702  -6.6693  -6.6673  -6.6666  -6.6658  -1.6503  -1.4724  -1.4167
 -1.4136  -1.3678  -1.2354  -1.1964  -1.1695  -1.1432  -1.0846  -1.0523
 -1.0489  -1.0290  -1.0027  -0.9937  -0.9730  -0.9608  -0.9504  -0.9387
 -0.8965  -0.8707  -0.8503  -0.8049  -0.7962  -0.7884  -0.7723  -0.7705
 -0.7574  -0.7330  -0.7213  -0.7180  -0.7014  -0.6899  -0.6830  -0.6789
 -0.6732  -0.6621  -0.6592  -0.6522  -0.6284  -0.6198  -0.6158  -0.6072
 -0.6025  -0.5960  -0.5861  -0.5755  -0.5697  -0.5615  -0.5544  -0.5483
 -0.5355  -0.5269  -0.5254  -0.5175  -0.5168  -0.5089  -0.5059  -0.4970
 -0.4867  -0.4852  -0.4777  -0.4677  -0.4621  -0.4617  -0.4591  -0.4228
 -0.3978  -0.3854  -0.3587  -0.3512  -0.3250  -0.2851  -0.2479

          Ground-State Mulliken Net Atomic Charges

     Atom                 Charge (a.u.)
  ----------------------------------------
      1 C                    -0.188667
      2 C                    -0.254569
      3 S                    -0.021049
      4 C                    -0.015907
      5 H                     0.196235
      6 C                    -0.028395
      7 C                     0.245303
      8 C                     0.243799
      9 C                    -0.038917
     10 C                    -0.029203
     11 O                    -0.333352
     12 O                    -0.339032
     13 C                    -0.086180
     14 H                     0.123612
     15 H                     0.091255
     16 H                     0.093619
     17 C                    -0.087889
     18 H                     0.125971
     19 H                     0.095276
     20 H                     0.089240
     21 C                    -0.212177
     22 S                    -0.038234
     23 C                    -0.013704
     24 H                     0.198391
     25 H                     0.206507
     26 C                     0.002920
     27 S                     0.111825
     28 C                    -0.236495
     29 C                    -0.101589
     30 C                    -0.015054
     31 C                     0.354461
     32 C                    -0.136357
     33 S                     0.048982
     34 C                     0.460264
     35 O                    -0.449112
     36 O                    -0.297991
     37 F                    -0.212548
     38 C                    -0.054740
     39 H                     0.116805
     40 H                     0.084777
     41 H                     0.084506
     42 H                     0.217412
  ----------------------------------------
  Sum of atomic charges =     0.000000

                    Cartesian Multipole Moments
 -----------------------------------------------------------------
    Charge (ESU x 10^10)
                 0.0000
    Dipole Moment (Debye)
         X       1.8743      Y       1.6429      Z       3.2647
       Tot       4.1074
    Quadrupole Moments (Debye-Ang)
        XX    -191.2109     XY       4.9130     YY    -161.0118
        XZ     -16.4012     YZ      -9.8965     ZZ    -188.4265

 Total job time:  300.86s(wall), 9701.15s(cpu)
        *  Thank you very much for using Q-Chem.  Have a nice day.  *
