 Q-Chem 5.4, Q-Chem, Inc., Pleasanton, CA (2021)
 Q-Chem 5.4.0 for Intel X86 EM64T Linux

User input:
--------------------------------------------------------------
$molecule
0 1
C	-0.235306	-8.519741	-0.136647
C	0.772334	-7.635967	0.221346
S	-1.702286	-7.651740	-0.650746
C	0.408807	-6.261894	0.090779
H	1.761423	-7.954738	0.573754
C	-0.932876	-6.079985	-0.397735
C	-1.479069	-4.798382	-0.568166
C	1.241204	-5.153542	0.418347
C	0.693206	-3.869626	0.251852
C	-0.648921	-3.688927	-0.239872
O	2.493437	-5.481075	0.842486
O	-2.737331	-4.479871	-0.993092
C	-3.416110	-5.356026	-1.884752
H	-4.284447	-4.790496	-2.273124
H	-3.793352	-6.268513	-1.373310
H	-2.766716	-5.658187	-2.734702
C	3.264581	-4.546999	1.588030
H	4.136519	-5.107564	1.974995
H	2.690439	-4.131473	2.443843
H	3.636177	-3.712085	0.955140
C	-1.009848	-2.314326	-0.367068
S	1.459936	-2.295487	0.517386
C	0.000000	-1.435180	0.000000
H	-1.997308	-1.993211	-0.721689
H	-0.230945	-9.615985	-0.132444
C	0.000000	0.000000	0.000000
S	0.780044	0.447780	1.510732
C	2.143774	1.236372	0.727629
C	0.786529	0.454137	-1.064665
C	1.988499	1.149844	-0.678287
C	0.729864	0.419512	-2.486150
C	1.825177	1.052041	-3.106916
S	2.903877	1.678680	-1.965735
C	2.047896	1.175232	-4.559972
O	1.240953	0.705897	-5.350277
O	3.160791	1.814024	-5.004375
F	-0.233039	-0.140940	-3.246290
C	3.476510	1.984585	-6.334976
H	4.433735	2.536545	-6.370268
H	2.693835	2.561503	-6.875609
H	3.588239	1.011113	-6.861878
H	2.940569	1.696327	1.321510
$end

$rem
JOBTYPE		SP
EXCHANGE	HF
CORRELATION	pRIMP2
BASIS		cc-pvtz
METHOD		rimp2
AUX_BASIS	rimp2-cc-pvtz
SOLVENT_METHOD	PCM
PURECART	11111
SYMMETRY	false
MEM_TOTAL	110000
SCF_CONVERGENCE = 6
THRESH=10
GUI = 2
$end

$solvent
dielectric 4.90
$end
--------------------------------------------------------------

             Standard Nuclear Orientation (Angstroms)
    I     Atom           X                Y                Z
 ----------------------------------------------------------------
    1      C      -0.2353060000    -8.5197410000    -0.1366470000
    2      C       0.7723340000    -7.6359670000     0.2213460000
    3      S      -1.7022860000    -7.6517400000    -0.6507460000
    4      C       0.4088070000    -6.2618940000     0.0907790000
    5      H       1.7614230000    -7.9547380000     0.5737540000
    6      C      -0.9328760000    -6.0799850000    -0.3977350000
    7      C      -1.4790690000    -4.7983820000    -0.5681660000
    8      C       1.2412040000    -5.1535420000     0.4183470000
    9      C       0.6932060000    -3.8696260000     0.2518520000
   10      C      -0.6489210000    -3.6889270000    -0.2398720000
   11      O       2.4934370000    -5.4810750000     0.8424860000
   12      O      -2.7373310000    -4.4798710000    -0.9930920000
   13      C      -3.4161100000    -5.3560260000    -1.8847520000
   14      H      -4.2844470000    -4.7904960000    -2.2731240000
   15      H      -3.7933520000    -6.2685130000    -1.3733100000
   16      H      -2.7667160000    -5.6581870000    -2.7347020000
   17      C       3.2645810000    -4.5469990000     1.5880300000
   18      H       4.1365190000    -5.1075640000     1.9749950000
   19      H       2.6904390000    -4.1314730000     2.4438430000
   20      H       3.6361770000    -3.7120850000     0.9551400000
   21      C      -1.0098480000    -2.3143260000    -0.3670680000
   22      S       1.4599360000    -2.2954870000     0.5173860000
   23      C       0.0000000000    -1.4351800000     0.0000000000
   24      H      -1.9973080000    -1.9932110000    -0.7216890000
   25      H      -0.2309450000    -9.6159850000    -0.1324440000
   26      C       0.0000000000     0.0000000000     0.0000000000
   27      S       0.7800440000     0.4477800000     1.5107320000
   28      C       2.1437740000     1.2363720000     0.7276290000
   29      C       0.7865290000     0.4541370000    -1.0646650000
   30      C       1.9884990000     1.1498440000    -0.6782870000
   31      C       0.7298640000     0.4195120000    -2.4861500000
   32      C       1.8251770000     1.0520410000    -3.1069160000
   33      S       2.9038770000     1.6786800000    -1.9657350000
   34      C       2.0478960000     1.1752320000    -4.5599720000
   35      O       1.2409530000     0.7058970000    -5.3502770000
   36      O       3.1607910000     1.8140240000    -5.0043750000
   37      F      -0.2330390000    -0.1409400000    -3.2462900000
   38      C       3.4765100000     1.9845850000    -6.3349760000
   39      H       4.4337350000     2.5365450000    -6.3702680000
   40      H       2.6938350000     2.5615030000    -6.8756090000
   41      H       3.5882390000     1.0111130000    -6.8618780000
   42      H       2.9405690000     1.6963270000     1.3215100000
 ----------------------------------------------------------------

   11   -2754.2270172431      6.17e-07  Convergence criterion met
 Total energy in the final basis set =    -2754.2270172431
        RIMP2         total energy =     -2759.3003192710 a.u.

                    Orbital Energies (a.u.)
 --------------------------------------------------------------

 Alpha MOs
 -- Occupied --
-92.0154 -92.0066 -91.9832 -91.9802 -26.3339 -20.6161 -20.5904 -20.5872
-20.5575 -11.4166 -11.3760 -11.3266 -11.3156 -11.3128 -11.3114 -11.3007
-11.2967 -11.2905 -11.2889 -11.2862 -11.2834 -11.2803 -11.2792 -11.2759
-11.2713 -11.2548 -11.2537 -11.2476 -11.2407  -9.0148  -9.0101  -8.9832
 -8.9815  -6.6953  -6.6944  -6.6944  -6.6912  -6.6906  -6.6894  -6.6642
 -6.6636  -6.6627  -6.6624  -6.6616  -6.6607  -1.6469  -1.4764  -1.4143
 -1.4101  -1.3726  -1.2446  -1.1920  -1.1708  -1.1438  -1.0829  -1.0517
 -1.0475  -1.0332  -0.9977  -0.9913  -0.9760  -0.9583  -0.9484  -0.9371
 -0.8928  -0.8764  -0.8427  -0.8030  -0.7953  -0.7850  -0.7772  -0.7664
 -0.7527  -0.7296  -0.7179  -0.7155  -0.6986  -0.6929  -0.6819  -0.6783
 -0.6773  -0.6624  -0.6568  -0.6498  -0.6288  -0.6170  -0.6153  -0.6122
 -0.6076  -0.5994  -0.5879  -0.5746  -0.5638  -0.5634  -0.5528  -0.5383
 -0.5358  -0.5282  -0.5205  -0.5136  -0.5127  -0.5091  -0.5018  -0.4911
 -0.4899  -0.4868  -0.4731  -0.4672  -0.4645  -0.4595  -0.4545  -0.4110
 -0.3928  -0.3821  -0.3532  -0.3499  -0.3080  -0.2964  -0.2532

          Ground-State Mulliken Net Atomic Charges

     Atom                 Charge (a.u.)
  ----------------------------------------
      1 C                    -0.195519
      2 C                    -0.254302
      3 S                    -0.026821
      4 C                    -0.021746
      5 H                     0.195070
      6 C                    -0.027079
      7 C                     0.237724
      8 C                     0.241409
      9 C                    -0.049602
     10 C                    -0.014370
     11 O                    -0.333972
     12 O                    -0.340265
     13 C                    -0.085428
     14 H                     0.121711
     15 H                     0.089704
     16 H                     0.093182
     17 C                    -0.086565
     18 H                     0.124688
     19 H                     0.093445
     20 H                     0.088546
     21 C                    -0.253127
     22 S                    -0.032698
     23 C                    -0.046767
     24 H                     0.191534
     25 H                     0.204960
     26 C                    -0.144203
     27 S                     0.138386
     28 C                    -0.152511
     29 C                    -0.011322
     30 C                    -0.025956
     31 C                     0.358830
     32 C                    -0.122116
     33 S                     0.074690
     34 C                     0.457714
     35 O                    -0.437295
     36 O                    -0.296474
     37 F                    -0.208944
     38 C                    -0.054735
     39 H                     0.117494
     40 H                     0.085851
     41 H                     0.085909
     42 H                     0.220975
  ----------------------------------------
  Sum of atomic charges =     0.000000

                    Cartesian Multipole Moments
 -----------------------------------------------------------------
    Charge (ESU x 10^10)
                 0.0000
    Dipole Moment (Debye)
         X       5.5723      Y       2.5573      Z       2.4829
       Tot       6.6148
    Quadrupole Moments (Debye-Ang)
        XX    -169.3063     XY       8.4919     YY    -178.9590
        XZ       0.1830     YZ      -5.0068     ZZ    -194.1289

 Total job time:  311.10s(wall), 10034.30s(cpu)
        *  Thank you very much for using Q-Chem.  Have a nice day.  *
