 Q-Chem 5.4, Q-Chem, Inc., Pleasanton, CA (2021)
 Q-Chem 5.4.0 for Intel X86 EM64T Linux

User input:
--------------------------------------------------------------
$molecule
0 1
C	0.208886	-8.519741	-0.174379
C	-0.472151	-7.635967	0.650052
S	1.193717	-7.651740	-1.377058
C	-0.225125	-6.261894	0.353105
H	-1.141594	-7.954738	1.458961
C	0.692811	-6.079985	-0.740583
C	1.039773	-4.798382	-1.195546
C	-0.817634	-5.153542	1.023267
C	-0.473754	-3.869626	0.565262
C	0.447350	-3.688927	-0.527745
O	-1.644483	-5.481075	2.054917
O	1.869424	-4.479871	-2.232592
C	2.939466	-5.356026	-2.565470
H	3.601405	-4.790496	-3.248608
H	2.587892	-6.268513	-3.094885
H	3.516052	-5.658187	-1.664539
C	-2.608813	-4.546999	2.524564
H	-3.270661	-5.107564	3.211568
H	-3.216646	-4.131473	1.692342
H	-2.141184	-3.712085	3.090211
C	0.690319	-2.314326	-0.823402
S	-0.985511	-2.295487	1.194935
C	-0.000000	-1.435180	-0.000000
H	1.361286	-1.993211	-1.630024
H	0.203444	-9.615985	-0.171719
C	0.000000	0.000000	0.000000
S	0.382139	0.814215	1.510732
C	1.046923	2.242395	0.727629
C	0.383804	0.823142	-1.064665
C	0.969360	2.082453	-0.678287
C	0.357247	0.762277	-2.486150
C	0.891671	1.908660	-3.106916
S	1.415865	3.040689	-1.965735
C	1.003453	2.137318	-4.559972
O	0.611644	1.290019	-5.350277
O	1.548687	3.298916	-5.004375
F	-0.110054	-0.249117	-3.246290
C	1.709479	3.619721	-6.334976
H	2.177001	4.620902	-6.370268
H	0.737443	3.643380	-6.875609
H	2.359363	2.886384	-6.861878
H	1.435800	3.076190	1.321510
$end

$rem
JOBTYPE		SP
EXCHANGE	HF
CORRELATION	pRIMP2
BASIS		cc-pvtz
METHOD		rimp2
AUX_BASIS	rimp2-cc-pvtz
SOLVENT_METHOD	PCM
PURECART	11111
SYMMETRY	false
MEM_TOTAL	110000
SCF_CONVERGENCE = 6
THRESH=10
GUI = 2
$end

$solvent
dielectric 4.90
$end
--------------------------------------------------------------

             Standard Nuclear Orientation (Angstroms)
    I     Atom           X                Y                Z
 ----------------------------------------------------------------
    1      C       0.2088860000    -8.5197410000    -0.1743790000
    2      C      -0.4721510000    -7.6359670000     0.6500520000
    3      S       1.1937170000    -7.6517400000    -1.3770580000
    4      C      -0.2251250000    -6.2618940000     0.3531050000
    5      H      -1.1415940000    -7.9547380000     1.4589610000
    6      C       0.6928110000    -6.0799850000    -0.7405830000
    7      C       1.0397730000    -4.7983820000    -1.1955460000
    8      C      -0.8176340000    -5.1535420000     1.0232670000
    9      C      -0.4737540000    -3.8696260000     0.5652620000
   10      C       0.4473500000    -3.6889270000    -0.5277450000
   11      O      -1.6444830000    -5.4810750000     2.0549170000
   12      O       1.8694240000    -4.4798710000    -2.2325920000
   13      C       2.9394660000    -5.3560260000    -2.5654700000
   14      H       3.6014050000    -4.7904960000    -3.2486080000
   15      H       2.5878920000    -6.2685130000    -3.0948850000
   16      H       3.5160520000    -5.6581870000    -1.6645390000
   17      C      -2.6088130000    -4.5469990000     2.5245640000
   18      H      -3.2706610000    -5.1075640000     3.2115680000
   19      H      -3.2166460000    -4.1314730000     1.6923420000
   20      H      -2.1411840000    -3.7120850000     3.0902110000
   21      C       0.6903190000    -2.3143260000    -0.8234020000
   22      S      -0.9855110000    -2.2954870000     1.1949350000
   23      C       0.0000000000    -1.4351800000     0.0000000000
   24      H       1.3612860000    -1.9932110000    -1.6300240000
   25      H       0.2034440000    -9.6159850000    -0.1717190000
   26      C       0.0000000000     0.0000000000     0.0000000000
   27      S       0.3821390000     0.8142150000     1.5107320000
   28      C       1.0469230000     2.2423950000     0.7276290000
   29      C       0.3838040000     0.8231420000    -1.0646650000
   30      C       0.9693600000     2.0824530000    -0.6782870000
   31      C       0.3572470000     0.7622770000    -2.4861500000
   32      C       0.8916710000     1.9086600000    -3.1069160000
   33      S       1.4158650000     3.0406890000    -1.9657350000
   34      C       1.0034530000     2.1373180000    -4.5599720000
   35      O       0.6116440000     1.2900190000    -5.3502770000
   36      O       1.5486870000     3.2989160000    -5.0043750000
   37      F      -0.1100540000    -0.2491170000    -3.2462900000
   38      C       1.7094790000     3.6197210000    -6.3349760000
   39      H       2.1770010000     4.6209020000    -6.3702680000
   40      H       0.7374430000     3.6433800000    -6.8756090000
   41      H       2.3593630000     2.8863840000    -6.8618780000
   42      H       1.4358000000     3.0761900000     1.3215100000
 ----------------------------------------------------------------

   10   -2754.2883389605      8.27e-07  Convergence criterion met
 Total energy in the final basis set =    -2754.2883389605
        RIMP2         total energy =     -2759.3453834982 a.u.

                    Orbital Energies (a.u.)
 --------------------------------------------------------------

 Alpha MOs
 -- Occupied --
-92.0162 -91.9965 -91.9891 -91.9863 -26.3344 -20.6124 -20.5925 -20.5911
-20.5507 -11.4109 -11.3776 -11.3194 -11.3179 -11.3066 -11.2989 -11.2989
-11.2975 -11.2957 -11.2887 -11.2872 -11.2864 -11.2856 -11.2841 -11.2837
-11.2797 -11.2614 -11.2590 -11.2569 -11.2499  -9.0147  -9.0005  -8.9897
 -8.9863  -6.6954  -6.6948  -6.6943  -6.6817  -6.6810  -6.6797  -6.6707
 -6.6700  -6.6690  -6.6672  -6.6666  -6.6658  -1.6475  -1.4722  -1.4166
 -1.4138  -1.3676  -1.2350  -1.1962  -1.1691  -1.1428  -1.0844  -1.0522
 -1.0485  -1.0286  -1.0023  -0.9934  -0.9724  -0.9609  -0.9504  -0.9388
 -0.8961  -0.8702  -0.8497  -0.8035  -0.7944  -0.7880  -0.7724  -0.7709
 -0.7574  -0.7325  -0.7191  -0.7158  -0.7015  -0.6895  -0.6828  -0.6788
 -0.6722  -0.6613  -0.6591  -0.6524  -0.6289  -0.6198  -0.6164  -0.6070
 -0.6033  -0.5958  -0.5838  -0.5759  -0.5706  -0.5631  -0.5538  -0.5500
 -0.5348  -0.5262  -0.5256  -0.5163  -0.5154  -0.5083  -0.5042  -0.4969
 -0.4881  -0.4852  -0.4758  -0.4682  -0.4620  -0.4616  -0.4599  -0.4173
 -0.3974  -0.3862  -0.3587  -0.3503  -0.3228  -0.2860  -0.2515

          Ground-State Mulliken Net Atomic Charges

     Atom                 Charge (a.u.)
  ----------------------------------------
      1 C                    -0.188599
      2 C                    -0.254103
      3 S                    -0.021436
      4 C                    -0.016006
      5 H                     0.196328
      6 C                    -0.029313
      7 C                     0.243959
      8 C                     0.244294
      9 C                    -0.042501
     10 C                    -0.027904
     11 O                    -0.333425
     12 O                    -0.339050
     13 C                    -0.085853
     14 H                     0.123027
     15 H                     0.091237
     16 H                     0.093612
     17 C                    -0.087256
     18 H                     0.125577
     19 H                     0.095342
     20 H                     0.089080
     21 C                    -0.207647
     22 S                    -0.025187
     23 C                    -0.003201
     24 H                     0.196812
     25 H                     0.206480
     26 C                    -0.034341
     27 S                     0.121089
     28 C                    -0.232663
     29 C                    -0.114711
     30 C                    -0.007496
     31 C                     0.374502
     32 C                    -0.146471
     33 S                     0.045492
     34 C                     0.460924
     35 O                    -0.448777
     36 O                    -0.297986
     37 F                    -0.211291
     38 C                    -0.054818
     39 H                     0.116704
     40 H                     0.084799
     41 H                     0.084558
     42 H                     0.216220
  ----------------------------------------
  Sum of atomic charges =     0.000000

                    Cartesian Multipole Moments
 -----------------------------------------------------------------
    Charge (ESU x 10^10)
                 0.0000
    Dipole Moment (Debye)
         X       1.8169      Y       1.6350      Z       3.3735
       Tot       4.1659
    Quadrupole Moments (Debye-Ang)
        XX    -182.5548     XY       4.9973     YY    -161.2373
        XZ     -16.8702     YZ     -10.4147     ZZ    -197.2323

 Total job time:  303.93s(wall), 9730.83s(cpu)
        *  Thank you very much for using Q-Chem.  Have a nice day.  *
