 Q-Chem 5.4, Q-Chem, Inc., Pleasanton, CA (2021)
 Q-Chem 5.4.0 for Intel X86 EM64T Linux

User input:
--------------------------------------------------------------
$molecule
0 1
C	-0.174379	-8.519741	-0.208886
C	0.650052	-7.635967	0.472151
S	-1.377058	-7.651740	-1.193717
C	0.353105	-6.261894	0.225125
H	1.458961	-7.954738	1.141594
C	-0.740583	-6.079985	-0.692811
C	-1.195546	-4.798382	-1.039773
C	1.023267	-5.153542	0.817634
C	0.565262	-3.869626	0.473754
C	-0.527745	-3.688927	-0.447350
O	2.054917	-5.481075	1.644483
O	-2.232592	-4.479871	-1.869424
C	-2.565470	-5.356026	-2.939466
H	-3.248608	-4.790496	-3.601405
H	-3.094885	-6.268513	-2.587892
H	-1.664539	-5.658187	-3.516052
C	2.524564	-4.546999	2.608813
H	3.211568	-5.107564	3.270661
H	1.692342	-4.131473	3.216646
H	3.090211	-3.712085	2.141184
C	-0.823402	-2.314326	-0.690319
S	1.194935	-2.295487	0.985511
C	0.000000	-1.435180	0.000000
H	-1.630024	-1.993211	-1.361286
H	-0.171719	-9.615985	-0.203444
C	0.000000	0.000000	0.000000
S	0.002233	0.899428	1.510732
C	0.001157	2.474749	0.727629
C	-0.000030	0.908223	-1.064665
C	-0.001545	2.297013	-0.678287
C	0.001624	0.841837	-2.486150
C	0.001494	2.106670	-3.106916
S	-0.001841	3.354171	-1.965735
C	0.006168	2.361146	-4.559972
O	0.009152	1.427646	-5.350277
O	0.009405	3.644337	-5.004375
F	0.005539	-0.272288	-3.246290
C	0.019554	4.003038	-6.334976
H	0.020155	5.108000	-6.370268
H	-0.871409	3.613681	-6.875609
H	0.918470	3.613062	-6.861878
H	0.001222	3.394771	1.321510
$end

$rem
JOBTYPE		SP
EXCHANGE	HF
CORRELATION	pRIMP2
BASIS		cc-pvtz
METHOD		rimp2
AUX_BASIS	rimp2-cc-pvtz
SOLVENT_METHOD	PCM
PURECART	11111
SYMMETRY	false
MEM_TOTAL	110000
SCF_CONVERGENCE = 6
THRESH=10
GUI = 2
$end

$solvent
dielectric 4.90
$end
--------------------------------------------------------------

             Standard Nuclear Orientation (Angstroms)
    I     Atom           X                Y                Z
 ----------------------------------------------------------------
    1      C      -0.1743790000    -8.5197410000    -0.2088860000
    2      C       0.6500520000    -7.6359670000     0.4721510000
    3      S      -1.3770580000    -7.6517400000    -1.1937170000
    4      C       0.3531050000    -6.2618940000     0.2251250000
    5      H       1.4589610000    -7.9547380000     1.1415940000
    6      C      -0.7405830000    -6.0799850000    -0.6928110000
    7      C      -1.1955460000    -4.7983820000    -1.0397730000
    8      C       1.0232670000    -5.1535420000     0.8176340000
    9      C       0.5652620000    -3.8696260000     0.4737540000
   10      C      -0.5277450000    -3.6889270000    -0.4473500000
   11      O       2.0549170000    -5.4810750000     1.6444830000
   12      O      -2.2325920000    -4.4798710000    -1.8694240000
   13      C      -2.5654700000    -5.3560260000    -2.9394660000
   14      H      -3.2486080000    -4.7904960000    -3.6014050000
   15      H      -3.0948850000    -6.2685130000    -2.5878920000
   16      H      -1.6645390000    -5.6581870000    -3.5160520000
   17      C       2.5245640000    -4.5469990000     2.6088130000
   18      H       3.2115680000    -5.1075640000     3.2706610000
   19      H       1.6923420000    -4.1314730000     3.2166460000
   20      H       3.0902110000    -3.7120850000     2.1411840000
   21      C      -0.8234020000    -2.3143260000    -0.6903190000
   22      S       1.1949350000    -2.2954870000     0.9855110000
   23      C       0.0000000000    -1.4351800000     0.0000000000
   24      H      -1.6300240000    -1.9932110000    -1.3612860000
   25      H      -0.1717190000    -9.6159850000    -0.2034440000
   26      C       0.0000000000     0.0000000000     0.0000000000
   27      S       0.0022330000     0.8994280000     1.5107320000
   28      C       0.0011570000     2.4747490000     0.7276290000
   29      C      -0.0000300000     0.9082230000    -1.0646650000
   30      C      -0.0015450000     2.2970130000    -0.6782870000
   31      C       0.0016240000     0.8418370000    -2.4861500000
   32      C       0.0014940000     2.1066700000    -3.1069160000
   33      S      -0.0018410000     3.3541710000    -1.9657350000
   34      C       0.0061680000     2.3611460000    -4.5599720000
   35      O       0.0091520000     1.4276460000    -5.3502770000
   36      O       0.0094050000     3.6443370000    -5.0043750000
   37      F       0.0055390000    -0.2722880000    -3.2462900000
   38      C       0.0195540000     4.0030380000    -6.3349760000
   39      H       0.0201550000     5.1080000000    -6.3702680000
   40      H      -0.8714090000     3.6136810000    -6.8756090000
   41      H       0.9184700000     3.6130620000    -6.8618780000
   42      H       0.0012220000     3.3947710000     1.3215100000
 ----------------------------------------------------------------

   10   -2754.2979880223      7.94e-07  Convergence criterion met
 Total energy in the final basis set =    -2754.2979880223
        RIMP2         total energy =     -2759.3506210003 a.u.

                    Orbital Energies (a.u.)
 --------------------------------------------------------------

 Alpha MOs
 -- Occupied --
-92.0160 -91.9942 -91.9915 -91.9869 -26.3341 -20.6118 -20.5930 -20.5917
-20.5495 -11.4099 -11.3775 -11.3200 -11.3192 -11.3122 -11.2964 -11.2962
-11.2950 -11.2926 -11.2883 -11.2877 -11.2876 -11.2858 -11.2846 -11.2819
-11.2806 -11.2619 -11.2602 -11.2595 -11.2504  -9.0142  -8.9982  -8.9919
 -8.9868  -6.6950  -6.6944  -6.6939  -6.6795  -6.6788  -6.6775  -6.6728
 -6.6721  -6.6712  -6.6678  -6.6671  -6.6663  -1.6470  -1.4715  -1.4171
 -1.4145  -1.3667  -1.2330  -1.1969  -1.1690  -1.1420  -1.0846  -1.0528
 -1.0474  -1.0275  -1.0032  -0.9937  -0.9714  -0.9616  -0.9508  -0.9384
 -0.8967  -0.8690  -0.8513  -0.8039  -0.7931  -0.7882  -0.7728  -0.7699
 -0.7584  -0.7331  -0.7184  -0.7152  -0.7019  -0.6887  -0.6836  -0.6782
 -0.6709  -0.6611  -0.6596  -0.6528  -0.6304  -0.6203  -0.6171  -0.6061
 -0.6017  -0.5939  -0.5854  -0.5783  -0.5685  -0.5617  -0.5557  -0.5509
 -0.5370  -0.5261  -0.5234  -0.5170  -0.5166  -0.5085  -0.5030  -0.4947
 -0.4888  -0.4838  -0.4782  -0.4699  -0.4620  -0.4610  -0.4604  -0.4146
 -0.3980  -0.3874  -0.3587  -0.3496  -0.3210  -0.2866  -0.2540

          Ground-State Mulliken Net Atomic Charges

     Atom                 Charge (a.u.)
  ----------------------------------------
      1 C                    -0.186623
      2 C                    -0.254512
      3 S                    -0.020597
      4 C                    -0.013153
      5 H                     0.196550
      6 C                    -0.027567
      7 C                     0.245900
      8 C                     0.240220
      9 C                    -0.046132
     10 C                    -0.030692
     11 O                    -0.333019
     12 O                    -0.339490
     13 C                    -0.085678
     14 H                     0.123343
     15 H                     0.090727
     16 H                     0.094746
     17 C                    -0.087205
     18 H                     0.125251
     19 H                     0.094527
     20 H                     0.090006
     21 C                    -0.215051
     22 S                    -0.009062
     23 C                    -0.027853
     24 H                     0.197247
     25 H                     0.206778
     26 C                    -0.025214
     27 S                     0.108044
     28 C                    -0.242089
     29 C                    -0.083679
     30 C                    -0.008404
     31 C                     0.393662
     32 C                    -0.151859
     33 S                     0.035663
     34 C                     0.460681
     35 O                    -0.451468
     36 O                    -0.297968
     37 F                    -0.211878
     38 C                    -0.055032
     39 H                     0.116551
     40 H                     0.084379
     41 H                     0.084458
     42 H                     0.215494
  ----------------------------------------
  Sum of atomic charges =     0.000000

                    Cartesian Multipole Moments
 -----------------------------------------------------------------
    Charge (ESU x 10^10)
                 0.0000
    Dipole Moment (Debye)
         X       0.1665      Y       1.2667      Z       3.1050
       Tot       3.3576
    Quadrupole Moments (Debye-Ang)
        XX    -192.7374     XY      -0.4930     YY    -157.4250
        XZ      12.2452     YZ      -8.9840     ZZ    -190.5730

 Total job time:  312.22s(wall), 10375.86s(cpu)
        *  Thank you very much for using Q-Chem.  Have a nice day.  *
