 Q-Chem 5.4, Q-Chem, Inc., Pleasanton, CA (2021)
 Q-Chem 5.4.0 for Intel X86 EM64T Linux

User input:
--------------------------------------------------------------
$molecule
0 1
C	-0.255929	-8.519741	0.092419
C	0.666007	-7.635967	-0.449364
S	-1.592708	-7.651740	0.885736
C	0.332317	-6.261894	-0.254813
H	1.571741	-7.954738	-0.980526
C	-0.904324	-6.079985	0.458965
C	-1.385968	-4.798382	0.767823
C	1.118303	-5.153542	-0.681909
C	0.638514	-3.869626	-0.369139
C	-0.600871	-3.688927	0.342916
O	2.248132	-5.481075	-1.368544
O	-2.520275	-4.479871	1.458570
C	-3.639637	-5.356026	1.405396
H	-4.495304	-4.790496	1.820940
H	-3.490336	-6.268513	2.023129
H	-3.873314	-5.658187	0.361595
C	3.314934	-4.546999	-1.480048
H	4.171837	-5.107564	-1.899255
H	3.601473	-4.131473	-0.490123
H	3.068969	-3.712085	-2.171521
C	-0.930308	-2.314326	0.537642
S	1.334769	-2.295487	-0.785807
C	-0.000000	-1.435180	-0.000000
H	-1.836691	-1.993211	1.066134
H	-0.249906	-9.615985	0.091781
C	0.000000	0.000000	0.000000
S	0.690437	0.576430	1.510732
C	1.896512	1.589852	0.727629
C	0.695720	0.583817	-1.064665
C	1.758621	1.477674	-0.678287
C	0.645928	0.539878	-2.486150
C	1.614763	1.352997	-3.106916
S	2.568261	2.157430	-1.965735
C	1.812707	1.512991	-4.559972
O	1.099523	0.910662	-5.350277
O	2.797769	2.335330	-5.004375
F	-0.205024	-0.179266	-3.246290
C	3.079074	2.558124	-6.334976
H	3.925910	3.267919	-6.370268
H	2.208109	2.990367	-6.875609
H	3.358147	1.618843	-6.861878
H	2.601331	2.181180	1.321510
$end

$rem
JOBTYPE		SP
EXCHANGE	HF
CORRELATION	pRIMP2
BASIS		cc-pvtz
METHOD		rimp2
AUX_BASIS	rimp2-cc-pvtz
SOLVENT_METHOD	PCM
PURECART	11111
SYMMETRY	false
MEM_TOTAL	110000
SCF_CONVERGENCE = 6
THRESH=10
GUI = 2
$end

$solvent
dielectric 4.90
$end
--------------------------------------------------------------

             Standard Nuclear Orientation (Angstroms)
    I     Atom           X                Y                Z
 ----------------------------------------------------------------
    1      C      -0.2559290000    -8.5197410000     0.0924190000
    2      C       0.6660070000    -7.6359670000    -0.4493640000
    3      S      -1.5927080000    -7.6517400000     0.8857360000
    4      C       0.3323170000    -6.2618940000    -0.2548130000
    5      H       1.5717410000    -7.9547380000    -0.9805260000
    6      C      -0.9043240000    -6.0799850000     0.4589650000
    7      C      -1.3859680000    -4.7983820000     0.7678230000
    8      C       1.1183030000    -5.1535420000    -0.6819090000
    9      C       0.6385140000    -3.8696260000    -0.3691390000
   10      C      -0.6008710000    -3.6889270000     0.3429160000
   11      O       2.2481320000    -5.4810750000    -1.3685440000
   12      O      -2.5202750000    -4.4798710000     1.4585700000
   13      C      -3.6396370000    -5.3560260000     1.4053960000
   14      H      -4.4953040000    -4.7904960000     1.8209400000
   15      H      -3.4903360000    -6.2685130000     2.0231290000
   16      H      -3.8733140000    -5.6581870000     0.3615950000
   17      C       3.3149340000    -4.5469990000    -1.4800480000
   18      H       4.1718370000    -5.1075640000    -1.8992550000
   19      H       3.6014730000    -4.1314730000    -0.4901230000
   20      H       3.0689690000    -3.7120850000    -2.1715210000
   21      C      -0.9303080000    -2.3143260000     0.5376420000
   22      S       1.3347690000    -2.2954870000    -0.7858070000
   23      C       0.0000000000    -1.4351800000     0.0000000000
   24      H      -1.8366910000    -1.9932110000     1.0661340000
   25      H      -0.2499060000    -9.6159850000     0.0917810000
   26      C       0.0000000000     0.0000000000     0.0000000000
   27      S       0.6904370000     0.5764300000     1.5107320000
   28      C       1.8965120000     1.5898520000     0.7276290000
   29      C       0.6957200000     0.5838170000    -1.0646650000
   30      C       1.7586210000     1.4776740000    -0.6782870000
   31      C       0.6459280000     0.5398780000    -2.4861500000
   32      C       1.6147630000     1.3529970000    -3.1069160000
   33      S       2.5682610000     2.1574300000    -1.9657350000
   34      C       1.8127070000     1.5129910000    -4.5599720000
   35      O       1.0995230000     0.9106620000    -5.3502770000
   36      O       2.7977690000     2.3353300000    -5.0043750000
   37      F      -0.2050240000    -0.1792660000    -3.2462900000
   38      C       3.0790740000     2.5581240000    -6.3349760000
   39      H       3.9259100000     3.2679190000    -6.3702680000
   40      H       2.2081090000     2.9903670000    -6.8756090000
   41      H       3.3581470000     1.6188430000    -6.8618780000
   42      H       2.6013310000     2.1811800000     1.3215100000
 ----------------------------------------------------------------

   11   -2754.2524934860      5.18e-07  Convergence criterion met
 Total energy in the final basis set =    -2754.2524934860
        RIMP2         total energy =     -2759.3208104992 a.u.

                    Orbital Energies (a.u.)
 --------------------------------------------------------------

 Alpha MOs
 -- Occupied --
-92.0173 -92.0032 -91.9859 -91.9842 -26.3345 -20.6150 -20.5912 -20.5887
-20.5552 -11.4148 -11.3775 -11.3173 -11.3165 -11.3131 -11.3078 -11.3005
-11.2913 -11.2908 -11.2900 -11.2863 -11.2845 -11.2845 -11.2818 -11.2814
-11.2768 -11.2575 -11.2551 -11.2483 -11.2443  -9.0158  -9.0069  -8.9866
 -8.9842  -6.6964  -6.6956  -6.6954  -6.6881  -6.6874  -6.6861  -6.6675
 -6.6668  -6.6658  -6.6651  -6.6645  -6.6637  -1.6475  -1.4751  -1.4151
 -1.4115  -1.3710  -1.2414  -1.1929  -1.1690  -1.1441  -1.0838  -1.0512
 -1.0483  -1.0320  -0.9995  -0.9917  -0.9747  -0.9589  -0.9490  -0.9388
 -0.8934  -0.8742  -0.8450  -0.8063  -0.7931  -0.7863  -0.7770  -0.7652
 -0.7543  -0.7306  -0.7183  -0.7157  -0.6990  -0.6913  -0.6810  -0.6798
 -0.6757  -0.6625  -0.6575  -0.6509  -0.6279  -0.6180  -0.6160  -0.6103
 -0.6069  -0.5996  -0.5805  -0.5770  -0.5652  -0.5631  -0.5544  -0.5466
 -0.5325  -0.5296  -0.5223  -0.5152  -0.5139  -0.5080  -0.5018  -0.4953
 -0.4897  -0.4858  -0.4694  -0.4669  -0.4651  -0.4634  -0.4584  -0.4053
 -0.4009  -0.3834  -0.3576  -0.3487  -0.3168  -0.2909  -0.2522

          Ground-State Mulliken Net Atomic Charges

     Atom                 Charge (a.u.)
  ----------------------------------------
      1 C                    -0.194081
      2 C                    -0.253624
      3 S                    -0.025943
      4 C                    -0.020498
      5 H                     0.195622
      6 C                    -0.024455
      7 C                     0.232306
      8 C                     0.242737
      9 C                    -0.044912
     10 C                    -0.003305
     11 O                    -0.333145
     12 O                    -0.340563
     13 C                    -0.085447
     14 H                     0.121628
     15 H                     0.090221
     16 H                     0.093612
     17 C                    -0.087849
     18 H                     0.125215
     19 H                     0.093708
     20 H                     0.089828
     21 C                    -0.275467
     22 S                    -0.028225
     23 C                    -0.002108
     24 H                     0.193030
     25 H                     0.205388
     26 C                    -0.097842
     27 S                     0.143295
     28 C                    -0.173451
     29 C                    -0.112605
     30 C                    -0.012923
     31 C                     0.394389
     32 C                    -0.134608
     33 S                     0.066015
     34 C                     0.459201
     35 O                    -0.441167
     36 O                    -0.297140
     37 F                    -0.209265
     38 C                    -0.054620
     39 H                     0.117217
     40 H                     0.085536
     41 H                     0.085385
     42 H                     0.218912
  ----------------------------------------
  Sum of atomic charges =     0.000000

                    Cartesian Multipole Moments
 -----------------------------------------------------------------
    Charge (ESU x 10^10)
                 0.0000
    Dipole Moment (Debye)
         X       4.1745      Y       2.4958      Z       2.5180
       Tot       5.4769
    Quadrupole Moments (Debye-Ang)
        XX    -167.7855     XY       9.9320     YY    -173.2505
        XZ     -16.0310     YZ      -6.1589     ZZ    -201.3396

 Total job time:  306.62s(wall), 9910.26s(cpu)
        *  Thank you very much for using Q-Chem.  Have a nice day.  *
