 Q-Chem 5.4, Q-Chem, Inc., Pleasanton, CA (2021)
 Q-Chem 5.4.0 for Intel X86 EM64T Linux

User input:
--------------------------------------------------------------
$molecule
0 1
C	0.272104	-8.519741	0.000687
C	-0.779533	-7.635967	0.194476
S	1.799596	-7.651740	-0.287581
C	-0.399427	-6.261894	0.125787
H	-1.812314	-7.954738	0.383826
C	1.006762	-6.079985	-0.121989
C	1.564994	-4.798382	-0.247488
C	-1.284087	-5.153542	0.258303
C	-0.726260	-3.869626	0.128493
C	0.681918	-3.688927	-0.116725
O	-2.580622	-5.481075	0.517104
O	2.867144	-4.479871	-0.508622
C	3.900814	-5.356026	-0.075811
H	4.847002	-4.790496	-0.173640
H	3.971794	-6.268513	-0.707354
H	3.763397	-5.658187	0.984963
C	-3.621225	-4.546999	0.257016
H	-4.569828	-5.107564	0.357864
H	-3.551910	-4.131473	-0.771211
H	-3.626592	-3.712085	0.990913
C	1.058088	-2.314326	-0.187034
S	-1.523035	-2.295487	0.281899
C	0.000000	-1.435180	0.000000
H	2.090565	-1.993211	-0.373653
H	0.266226	-9.615985	-0.000773
C	0.000000	0.000000	0.000000
S	0.309721	0.844422	1.510732
C	0.847502	2.325108	0.727629
C	0.310602	0.853460	-1.064665
C	0.784173	2.159014	-0.678287
C	0.289451	0.790512	-2.486150
C	0.721927	1.979112	-3.106916
S	1.145464	3.152519	-1.965735
C	0.813355	2.216642	-4.559972
O	0.496884	1.338418	-5.350277
O	1.255274	3.421340	-5.004375
F	-0.087923	-0.257761	-3.246290
C	1.387494	3.754937	-6.334976
H	1.765978	4.793056	-6.370268
H	0.417095	3.693789	-6.875609
H	2.098820	3.081033	-6.861878
H	1.162229	3.189623	1.321510
$end

$rem
JOBTYPE		SP
EXCHANGE	HF
CORRELATION	pRIMP2
BASIS		cc-pvtz
METHOD		rimp2
AUX_BASIS	rimp2-cc-pvtz
SOLVENT_METHOD	PCM
PURECART	11111
SYMMETRY	false
MEM_TOTAL	110000
SCF_CONVERGENCE = 6
THRESH=10
GUI = 2
$end

$solvent
dielectric 4.90
$end
--------------------------------------------------------------

             Standard Nuclear Orientation (Angstroms)
    I     Atom           X                Y                Z
 ----------------------------------------------------------------
    1      C       0.2721040000    -8.5197410000     0.0006870000
    2      C      -0.7795330000    -7.6359670000     0.1944760000
    3      S       1.7995960000    -7.6517400000    -0.2875810000
    4      C      -0.3994270000    -6.2618940000     0.1257870000
    5      H      -1.8123140000    -7.9547380000     0.3838260000
    6      C       1.0067620000    -6.0799850000    -0.1219890000
    7      C       1.5649940000    -4.7983820000    -0.2474880000
    8      C      -1.2840870000    -5.1535420000     0.2583030000
    9      C      -0.7262600000    -3.8696260000     0.1284930000
   10      C       0.6819180000    -3.6889270000    -0.1167250000
   11      O      -2.5806220000    -5.4810750000     0.5171040000
   12      O       2.8671440000    -4.4798710000    -0.5086220000
   13      C       3.9008140000    -5.3560260000    -0.0758110000
   14      H       4.8470020000    -4.7904960000    -0.1736400000
   15      H       3.9717940000    -6.2685130000    -0.7073540000
   16      H       3.7633970000    -5.6581870000     0.9849630000
   17      C      -3.6212250000    -4.5469990000     0.2570160000
   18      H      -4.5698280000    -5.1075640000     0.3578640000
   19      H      -3.5519100000    -4.1314730000    -0.7712110000
   20      H      -3.6265920000    -3.7120850000     0.9909130000
   21      C       1.0580880000    -2.3143260000    -0.1870340000
   22      S      -1.5230350000    -2.2954870000     0.2818990000
   23      C       0.0000000000    -1.4351800000     0.0000000000
   24      H       2.0905650000    -1.9932110000    -0.3736530000
   25      H       0.2662260000    -9.6159850000    -0.0007730000
   26      C       0.0000000000     0.0000000000     0.0000000000
   27      S       0.3097210000     0.8444220000     1.5107320000
   28      C       0.8475020000     2.3251080000     0.7276290000
   29      C       0.3106020000     0.8534600000    -1.0646650000
   30      C       0.7841730000     2.1590140000    -0.6782870000
   31      C       0.2894510000     0.7905120000    -2.4861500000
   32      C       0.7219270000     1.9791120000    -3.1069160000
   33      S       1.1454640000     3.1525190000    -1.9657350000
   34      C       0.8133550000     2.2166420000    -4.5599720000
   35      O       0.4968840000     1.3384180000    -5.3502770000
   36      O       1.2552740000     3.4213400000    -5.0043750000
   37      F      -0.0879230000    -0.2577610000    -3.2462900000
   38      C       1.3874940000     3.7549370000    -6.3349760000
   39      H       1.7659780000     4.7930560000    -6.3702680000
   40      H       0.4170950000     3.6937890000    -6.8756090000
   41      H       2.0988200000     3.0810330000    -6.8618780000
   42      H       1.1622290000     3.1896230000     1.3215100000
 ----------------------------------------------------------------

   10   -2754.2880105899      8.91e-07  Convergence criterion met
 Total energy in the final basis set =    -2754.2880105899
        RIMP2         total energy =     -2759.3428135348 a.u.

                    Orbital Energies (a.u.)
 --------------------------------------------------------------

 Alpha MOs
 -- Occupied --
-92.0159 -91.9953 -91.9882 -91.9862 -26.3336 -20.6123 -20.5921 -20.5915
-20.5506 -11.4108 -11.3768 -11.3188 -11.3181 -11.3051 -11.2987 -11.2974
-11.2958 -11.2930 -11.2885 -11.2866 -11.2861 -11.2857 -11.2841 -11.2838
-11.2798 -11.2606 -11.2590 -11.2583 -11.2498  -9.0141  -8.9993  -8.9886
 -8.9861  -6.6947  -6.6941  -6.6937  -6.6805  -6.6799  -6.6785  -6.6696
 -6.6689  -6.6679  -6.6671  -6.6665  -6.6656  -1.6465  -1.4721  -1.4162
 -1.4142  -1.3675  -1.2337  -1.1955  -1.1680  -1.1418  -1.0836  -1.0517
 -1.0476  -1.0278  -1.0017  -0.9929  -0.9714  -0.9609  -0.9502  -0.9385
 -0.8953  -0.8695  -0.8495  -0.8042  -0.7911  -0.7878  -0.7736  -0.7694
 -0.7577  -0.7324  -0.7180  -0.7148  -0.7013  -0.6890  -0.6828  -0.6786
 -0.6714  -0.6604  -0.6586  -0.6525  -0.6302  -0.6199  -0.6166  -0.6067
 -0.6023  -0.5952  -0.5821  -0.5770  -0.5710  -0.5655  -0.5532  -0.5524
 -0.5330  -0.5264  -0.5242  -0.5160  -0.5138  -0.5076  -0.5012  -0.4943
 -0.4903  -0.4848  -0.4750  -0.4670  -0.4617  -0.4614  -0.4602  -0.4055
 -0.4000  -0.3873  -0.3588  -0.3469  -0.3145  -0.2902  -0.2584

          Ground-State Mulliken Net Atomic Charges

     Atom                 Charge (a.u.)
  ----------------------------------------
      1 C                    -0.188085
      2 C                    -0.254222
      3 S                    -0.022065
      4 C                    -0.015012
      5 H                     0.196404
      6 C                    -0.029055
      7 C                     0.242578
      8 C                     0.243815
      9 C                    -0.054796
     10 C                    -0.019747
     11 O                    -0.333543
     12 O                    -0.339840
     13 C                    -0.085614
     14 H                     0.122548
     15 H                     0.091263
     16 H                     0.093774
     17 C                    -0.086329
     18 H                     0.124554
     19 H                     0.095349
     20 H                     0.089204
     21 C                    -0.203598
     22 S                     0.001796
     23 C                    -0.027026
     24 H                     0.198644
     25 H                     0.206475
     26 C                    -0.050824
     27 S                     0.120994
     28 C                    -0.230834
     29 C                    -0.111841
     30 C                    -0.002122
     31 C                     0.390969
     32 C                    -0.154750
     33 S                     0.041360
     34 C                     0.460061
     35 O                    -0.448542
     36 O                    -0.297714
     37 F                    -0.210725
     38 C                    -0.054893
     39 H                     0.116589
     40 H                     0.084749
     41 H                     0.084609
     42 H                     0.215439
  ----------------------------------------
  Sum of atomic charges =     0.000000

                    Cartesian Multipole Moments
 -----------------------------------------------------------------
    Charge (ESU x 10^10)
                -0.0000
    Dipole Moment (Debye)
         X       1.3205      Y       1.6825      Z       3.4506
       Tot       4.0597
    Quadrupole Moments (Debye-Ang)
        XX    -174.7127     XY       4.5236     YY    -160.8396
        XZ      -2.3135     YZ     -11.5600     ZZ    -206.1157

 Total job time:  336.07s(wall), 11240.25s(cpu)
        *  Thank you very much for using Q-Chem.  Have a nice day.  *
