 Q-Chem 5.4, Q-Chem, Inc., Pleasanton, CA (2021)
 Q-Chem 5.4.0 for Intel X86 EM64T Linux

User input:
--------------------------------------------------------------
$molecule
0 1
C	0.047927	-8.519741	-0.267851
C	0.056157	-7.635967	0.801461
S	0.029285	-7.651740	-1.822194
C	0.054516	-6.261894	0.415201
H	0.063290	-7.954738	1.851431
C	0.054687	-6.079985	-1.012650
C	0.028030	-4.798382	-1.584194
C	0.031399	-5.153542	1.309433
C	0.000427	-3.869626	0.737539
C	0.003462	-3.688927	-0.691828
O	0.061128	-5.481075	2.631211
O	-0.003021	-4.479871	-2.911907
C	0.602710	-5.356026	-3.854716
H	0.670671	-4.790496	-4.803517
H	-0.006913	-6.268513	-4.034285
H	1.623507	-5.658187	-3.535185
C	-0.375708	-4.546999	3.610841
H	-0.441115	-5.107564	4.562544
H	-1.376277	-4.131473	3.364029
H	0.346107	-3.712085	3.743566
C	-0.000458	-2.314326	-1.074491
S	0.013144	-2.295487	1.548848
C	-0.000000	-1.435180	-0.000000
H	-0.004953	-1.993211	-2.123688
H	0.045468	-9.615985	-0.262315
C	0.000000	0.000000	0.000000
S	0.158383	0.885376	1.510732
C	0.430876	2.436951	0.727629
C	0.157682	0.894430	-1.064665
C	0.397351	2.262384	-0.678287
C	0.147783	0.828765	-2.486150
C	0.367291	2.074406	-3.106916
S	0.580633	3.303533	-1.965735
C	0.416083	2.324204	-4.559972
O	0.256921	1.404367	-5.350277
O	0.642094	3.587338	-5.004375
F	-0.041828	-0.269113	-3.246290
C	0.714377	3.938827	-6.334976
H	0.906844	5.026898	-6.370268
H	-0.230661	3.710099	-6.875609
H	1.531918	3.398681	-6.861878
H	0.590699	3.342984	1.321510
$end

$rem
JOBTYPE		SP
EXCHANGE	HF
CORRELATION	pRIMP2
BASIS		cc-pvtz
METHOD		rimp2
AUX_BASIS	rimp2-cc-pvtz
SOLVENT_METHOD	PCM
PURECART	11111
SYMMETRY	false
MEM_TOTAL	110000
SCF_CONVERGENCE = 6
THRESH=10
GUI = 2
$end

$solvent
dielectric 4.90
$end
--------------------------------------------------------------

             Standard Nuclear Orientation (Angstroms)
    I     Atom           X                Y                Z
 ----------------------------------------------------------------
    1      C       0.0479270000    -8.5197410000    -0.2678510000
    2      C       0.0561570000    -7.6359670000     0.8014610000
    3      S       0.0292850000    -7.6517400000    -1.8221940000
    4      C       0.0545160000    -6.2618940000     0.4152010000
    5      H       0.0632900000    -7.9547380000     1.8514310000
    6      C       0.0546870000    -6.0799850000    -1.0126500000
    7      C       0.0280300000    -4.7983820000    -1.5841940000
    8      C       0.0313990000    -5.1535420000     1.3094330000
    9      C       0.0004270000    -3.8696260000     0.7375390000
   10      C       0.0034620000    -3.6889270000    -0.6918280000
   11      O       0.0611280000    -5.4810750000     2.6312110000
   12      O      -0.0030210000    -4.4798710000    -2.9119070000
   13      C       0.6027100000    -5.3560260000    -3.8547160000
   14      H       0.6706710000    -4.7904960000    -4.8035170000
   15      H      -0.0069130000    -6.2685130000    -4.0342850000
   16      H       1.6235070000    -5.6581870000    -3.5351850000
   17      C      -0.3757080000    -4.5469990000     3.6108410000
   18      H      -0.4411150000    -5.1075640000     4.5625440000
   19      H      -1.3762770000    -4.1314730000     3.3640290000
   20      H       0.3461070000    -3.7120850000     3.7435660000
   21      C      -0.0004580000    -2.3143260000    -1.0744910000
   22      S       0.0131440000    -2.2954870000     1.5488480000
   23      C       0.0000000000    -1.4351800000     0.0000000000
   24      H      -0.0049530000    -1.9932110000    -2.1236880000
   25      H       0.0454680000    -9.6159850000    -0.2623150000
   26      C       0.0000000000     0.0000000000     0.0000000000
   27      S       0.1583830000     0.8853760000     1.5107320000
   28      C       0.4308760000     2.4369510000     0.7276290000
   29      C       0.1576820000     0.8944300000    -1.0646650000
   30      C       0.3973510000     2.2623840000    -0.6782870000
   31      C       0.1477830000     0.8287650000    -2.4861500000
   32      C       0.3672910000     2.0744060000    -3.1069160000
   33      S       0.5806330000     3.3035330000    -1.9657350000
   34      C       0.4160830000     2.3242040000    -4.5599720000
   35      O       0.2569210000     1.4043670000    -5.3502770000
   36      O       0.6420940000     3.5873380000    -5.0043750000
   37      F      -0.0418280000    -0.2691130000    -3.2462900000
   38      C       0.7143770000     3.9388270000    -6.3349760000
   39      H       0.9068440000     5.0268980000    -6.3702680000
   40      H      -0.2306610000     3.7100990000    -6.8756090000
   41      H       1.5319180000     3.3986810000    -6.8618780000
   42      H       0.5906990000     3.3429840000     1.3215100000
 ----------------------------------------------------------------

   10   -2754.2948043825      8.42e-07  Convergence criterion met
 Total energy in the final basis set =    -2754.2948043825
        RIMP2         total energy =     -2759.3506539034 a.u.

                    Orbital Energies (a.u.)
 --------------------------------------------------------------

 Alpha MOs
 -- Occupied --
-92.0161 -91.9953 -91.9908 -91.9872 -26.3389 -20.6118 -20.5931 -20.5917
-20.5495 -11.4100 -11.3790 -11.3202 -11.3196 -11.3141 -11.2978 -11.2966
-11.2965 -11.2922 -11.2884 -11.2883 -11.2878 -11.2855 -11.2848 -11.2809
-11.2808 -11.2621 -11.2606 -11.2571 -11.2506  -9.0146  -8.9993  -8.9915
 -8.9870  -6.6954  -6.6948  -6.6943  -6.6806  -6.6799  -6.6786  -6.6725
 -6.6719  -6.6709  -6.6680  -6.6674  -6.6665  -1.6535  -1.4716  -1.4172
 -1.4144  -1.3669  -1.2340  -1.1974  -1.1700  -1.1426  -1.0850  -1.0532
 -1.0485  -1.0283  -1.0040  -0.9942  -0.9727  -0.9612  -0.9509  -0.9385
 -0.8973  -0.8698  -0.8524  -0.8079  -0.7969  -0.7891  -0.7725  -0.7699
 -0.7581  -0.7334  -0.7221  -0.7203  -0.7019  -0.6900  -0.6852  -0.6785
 -0.6726  -0.6625  -0.6597  -0.6527  -0.6296  -0.6203  -0.6159  -0.6063
 -0.5998  -0.5943  -0.5887  -0.5763  -0.5695  -0.5604  -0.5536  -0.5483
 -0.5371  -0.5276  -0.5246  -0.5198  -0.5176  -0.5098  -0.5057  -0.4966
 -0.4862  -0.4843  -0.4801  -0.4676  -0.4620  -0.4612  -0.4586  -0.4251
 -0.3988  -0.3861  -0.3601  -0.3508  -0.3260  -0.2846  -0.2470

          Ground-State Mulliken Net Atomic Charges

     Atom                 Charge (a.u.)
  ----------------------------------------
      1 C                    -0.186046
      2 C                    -0.255438
      3 S                    -0.019973
      4 C                    -0.013017
      5 H                     0.196609
      6 C                    -0.029507
      7 C                     0.255463
      8 C                     0.242583
      9 C                    -0.037419
     10 C                    -0.036253
     11 O                    -0.333163
     12 O                    -0.339396
     13 C                    -0.086556
     14 H                     0.124521
     15 H                     0.091564
     16 H                     0.094002
     17 C                    -0.088715
     18 H                     0.126266
     19 H                     0.095093
     20 H                     0.089623
     21 C                    -0.211931
     22 S                    -0.043807
     23 C                    -0.035224
     24 H                     0.216602
     25 H                     0.206939
     26 C                    -0.009794
     27 S                     0.086028
     28 C                    -0.243544
     29 C                    -0.066152
     30 C                    -0.019707
     31 C                     0.386206
     32 C                    -0.136198
     33 S                     0.038489
     34 C                     0.460497
     35 O                    -0.452027
     36 O                    -0.298017
     37 F                    -0.216795
     38 C                    -0.055002
     39 H                     0.116695
     40 H                     0.084469
     41 H                     0.084319
     42 H                     0.217712
  ----------------------------------------
  Sum of atomic charges =     0.000000

                    Cartesian Multipole Moments
 -----------------------------------------------------------------
    Charge (ESU x 10^10)
                 0.0000
    Dipole Moment (Debye)
         X       0.8560      Y       1.1390      Z       3.1660
       Tot       3.4719
    Quadrupole Moments (Debye-Ang)
        XX    -200.1035     XY       1.2588     YY    -156.9544
        XZ      -7.6208     YZ      -9.5479     ZZ    -182.5532

 Total job time:  284.01s(wall), 9336.78s(cpu)
        *  Thank you very much for using Q-Chem.  Have a nice day.  *
