 Q-Chem 5.4, Q-Chem, Inc., Pleasanton, CA (2021)
 Q-Chem 5.4.0 for Intel X86 EM64T Linux

User input:
--------------------------------------------------------------
$molecule
0 1
C	-0.136647	-8.519741	0.235306
C	0.221346	-7.635967	-0.772334
S	-0.650746	-7.651740	1.702286
C	0.090779	-6.261894	-0.408807
H	0.573754	-7.954738	-1.761423
C	-0.397735	-6.079985	0.932876
C	-0.568166	-4.798382	1.479069
C	0.418347	-5.153542	-1.241204
C	0.251852	-3.869626	-0.693206
C	-0.239872	-3.688927	0.648921
O	0.842486	-5.481075	-2.493437
O	-0.993092	-4.479871	2.737331
C	-1.884752	-5.356026	3.416110
H	-2.273124	-4.790496	4.284447
H	-1.373310	-6.268513	3.793352
H	-2.734702	-5.658187	2.766716
C	1.588030	-4.546999	-3.264581
H	1.974995	-5.107564	-4.136519
H	2.443843	-4.131473	-2.690439
H	0.955140	-3.712085	-3.636177
C	-0.367068	-2.314326	1.009848
S	0.517386	-2.295487	-1.459936
C	-0.000000	-1.435180	-0.000000
H	-0.721689	-1.993211	1.997308
H	-0.132444	-9.615985	0.230945
C	0.000000	0.000000	0.000000
S	0.579852	0.687566	1.510732
C	1.591625	1.895024	0.727629
C	0.583771	0.695758	-1.064665
C	1.475308	1.760606	-0.678287
C	0.542366	0.643841	-2.486150
C	1.355286	1.612843	-3.106916
S	2.154609	2.570627	-1.965735
C	1.522440	1.804778	-4.559972
O	0.924684	1.087757	-5.350277
O	2.349739	2.785679	-5.004375
F	-0.170780	-0.212144	-3.246290
C	2.588082	3.053936	-6.334976
H	3.298799	3.899999	-6.370268
H	1.655291	3.328371	-6.875609
H	3.026021	2.177385	-6.861878
H	2.183053	2.599759	1.321510
$end

$rem
JOBTYPE		SP
EXCHANGE	HF
CORRELATION	pRIMP2
BASIS		cc-pvtz
METHOD		rimp2
AUX_BASIS	rimp2-cc-pvtz
SOLVENT_METHOD	PCM
PURECART	11111
SYMMETRY	false
MEM_TOTAL	110000
SCF_CONVERGENCE = 6
THRESH=10
GUI = 2
$end

$solvent
dielectric 4.90
$end
--------------------------------------------------------------

             Standard Nuclear Orientation (Angstroms)
    I     Atom           X                Y                Z
 ----------------------------------------------------------------
    1      C      -0.1366470000    -8.5197410000     0.2353060000
    2      C       0.2213460000    -7.6359670000    -0.7723340000
    3      S      -0.6507460000    -7.6517400000     1.7022860000
    4      C       0.0907790000    -6.2618940000    -0.4088070000
    5      H       0.5737540000    -7.9547380000    -1.7614230000
    6      C      -0.3977350000    -6.0799850000     0.9328760000
    7      C      -0.5681660000    -4.7983820000     1.4790690000
    8      C       0.4183470000    -5.1535420000    -1.2412040000
    9      C       0.2518520000    -3.8696260000    -0.6932060000
   10      C      -0.2398720000    -3.6889270000     0.6489210000
   11      O       0.8424860000    -5.4810750000    -2.4934370000
   12      O      -0.9930920000    -4.4798710000     2.7373310000
   13      C      -1.8847520000    -5.3560260000     3.4161100000
   14      H      -2.2731240000    -4.7904960000     4.2844470000
   15      H      -1.3733100000    -6.2685130000     3.7933520000
   16      H      -2.7347020000    -5.6581870000     2.7667160000
   17      C       1.5880300000    -4.5469990000    -3.2645810000
   18      H       1.9749950000    -5.1075640000    -4.1365190000
   19      H       2.4438430000    -4.1314730000    -2.6904390000
   20      H       0.9551400000    -3.7120850000    -3.6361770000
   21      C      -0.3670680000    -2.3143260000     1.0098480000
   22      S       0.5173860000    -2.2954870000    -1.4599360000
   23      C       0.0000000000    -1.4351800000     0.0000000000
   24      H      -0.7216890000    -1.9932110000     1.9973080000
   25      H      -0.1324440000    -9.6159850000     0.2309450000
   26      C       0.0000000000     0.0000000000     0.0000000000
   27      S       0.5798520000     0.6875660000     1.5107320000
   28      C       1.5916250000     1.8950240000     0.7276290000
   29      C       0.5837710000     0.6957580000    -1.0646650000
   30      C       1.4753080000     1.7606060000    -0.6782870000
   31      C       0.5423660000     0.6438410000    -2.4861500000
   32      C       1.3552860000     1.6128430000    -3.1069160000
   33      S       2.1546090000     2.5706270000    -1.9657350000
   34      C       1.5224400000     1.8047780000    -4.5599720000
   35      O       0.9246840000     1.0877570000    -5.3502770000
   36      O       2.3497390000     2.7856790000    -5.0043750000
   37      F      -0.1707800000    -0.2121440000    -3.2462900000
   38      C       2.5880820000     3.0539360000    -6.3349760000
   39      H       3.2987990000     3.8999990000    -6.3702680000
   40      H       1.6552910000     3.3283710000    -6.8756090000
   41      H       3.0260210000     2.1773850000    -6.8618780000
   42      H       2.1830530000     2.5997590000     1.3215100000
 ----------------------------------------------------------------

   10   -2754.2643494563      9.48e-07  Convergence criterion met
 Total energy in the final basis set =    -2754.2643494563
        RIMP2         total energy =     -2759.3309420012 a.u.

                    Orbital Energies (a.u.)
 --------------------------------------------------------------

 Alpha MOs
 -- Occupied --
-92.0159 -92.0013 -91.9847 -91.9841 -26.3352 -20.6146 -20.5906 -20.5889
-20.5543 -11.4141 -11.3784 -11.3173 -11.3129 -11.3095 -11.3059 -11.3000
-11.2982 -11.2957 -11.2899 -11.2892 -11.2854 -11.2848 -11.2818 -11.2812
-11.2765 -11.2590 -11.2547 -11.2482 -11.2462  -9.0146  -9.0051  -8.9857
 -8.9841  -6.6953  -6.6946  -6.6942  -6.6863  -6.6857  -6.6844  -6.6666
 -6.6659  -6.6651  -6.6649  -6.6644  -6.6636  -1.6500  -1.4746  -1.4146
 -1.4117  -1.3704  -1.2397  -1.1934  -1.1686  -1.1437  -1.0842  -1.0514
 -1.0482  -1.0319  -1.0001  -0.9922  -0.9746  -0.9586  -0.9486  -0.9390
 -0.8937  -0.8736  -0.8473  -0.8093  -0.7951  -0.7863  -0.7760  -0.7631
 -0.7558  -0.7306  -0.7216  -0.7174  -0.6988  -0.6907  -0.6813  -0.6801
 -0.6758  -0.6624  -0.6571  -0.6508  -0.6262  -0.6178  -0.6150  -0.6095
 -0.6056  -0.6001  -0.5843  -0.5720  -0.5668  -0.5613  -0.5576  -0.5517
 -0.5322  -0.5267  -0.5229  -0.5171  -0.5136  -0.5071  -0.5032  -0.4949
 -0.4878  -0.4837  -0.4775  -0.4651  -0.4637  -0.4634  -0.4564  -0.4218
 -0.3917  -0.3855  -0.3610  -0.3488  -0.3230  -0.2862  -0.2441

          Ground-State Mulliken Net Atomic Charges

     Atom                 Charge (a.u.)
  ----------------------------------------
      1 C                    -0.195005
      2 C                    -0.253539
      3 S                    -0.026682
      4 C                    -0.022046
      5 H                     0.195793
      6 C                    -0.026544
      7 C                     0.231799
      8 C                     0.243327
      9 C                    -0.047385
     10 C                    -0.006799
     11 O                    -0.333278
     12 O                    -0.341225
     13 C                    -0.085430
     14 H                     0.121370
     15 H                     0.090354
     16 H                     0.093499
     17 C                    -0.089785
     18 H                     0.125478
     19 H                     0.093559
     20 H                     0.091816
     21 C                    -0.277920
     22 S                    -0.022296
     23 C                     0.014718
     24 H                     0.187098
     25 H                     0.205335
     26 C                    -0.025192
     27 S                     0.123516
     28 C                    -0.196080
     29 C                    -0.072649
     30 C                    -0.026472
     31 C                     0.331501
     32 C                    -0.123217
     33 S                     0.060837
     34 C                     0.457986
     35 O                    -0.443890
     36 O                    -0.297255
     37 F                    -0.207265
     38 C                    -0.054528
     39 H                     0.117269
     40 H                     0.085354
     41 H                     0.084920
     42 H                     0.218956
  ----------------------------------------
  Sum of atomic charges =     0.000000

                    Cartesian Multipole Moments
 -----------------------------------------------------------------
    Charge (ESU x 10^10)
                -0.0000
    Dipole Moment (Debye)
         X       2.9404      Y       2.8546      Z       2.3879
       Tot       4.7431
    Quadrupole Moments (Debye-Ang)
        XX    -186.6601     XY      10.2612     YY    -171.3461
        XZ     -18.9823     YZ      -7.5168     ZZ    -186.7614

 Total job time:  309.97s(wall), 9336.91s(cpu)
        *  Thank you very much for using Q-Chem.  Have a nice day.  *
