 Q-Chem 5.4, Q-Chem, Inc., Pleasanton, CA (2021)
 Q-Chem 5.4.0 for Intel X86 EM64T Linux

User input:
--------------------------------------------------------------
$molecule
0 1
C	-0.268090	-8.519741	0.046574
C	0.733920	-7.635967	-0.326886
S	-1.722318	-7.651740	0.595708
C	0.371516	-6.261894	-0.193236
H	1.718130	-7.954738	-0.692700
C	-0.970283	-6.079985	0.294958
C	-1.498243	-4.798382	0.515487
C	1.219725	-5.153542	-0.477358
C	0.692914	-3.869626	-0.252655
C	-0.651289	-3.688927	0.233366
O	2.451623	-5.481075	-0.957369
O	-2.735264	-4.479871	0.998769
C	-3.828387	-5.356026	0.752029
H	-4.743213	-4.790496	1.012675
H	-3.788623	-6.268513	1.386303
H	-3.877260	-5.658187	-0.316492
C	3.521580	-4.546999	-0.881930
H	4.438260	-5.107564	-1.145969
H	3.631868	-4.131473	0.142712
H	3.399425	-3.712085	-1.605610
C	-1.009535	-2.314326	0.367928
S	1.450945	-2.295487	-0.542088
C	-0.000000	-1.435180	-0.000000
H	-1.993920	-1.993211	0.730999
H	-0.262047	-9.615985	0.046991
C	0.000000	0.000000	0.000000
S	0.579852	0.687566	1.510732
C	1.591625	1.895024	0.727629
C	0.583771	0.695758	-1.064665
C	1.475308	1.760606	-0.678287
C	0.542366	0.643841	-2.486150
C	1.355286	1.612843	-3.106916
S	2.154609	2.570627	-1.965735
C	1.522440	1.804778	-4.559972
O	0.924684	1.087757	-5.350277
O	2.349739	2.785679	-5.004375
F	-0.170780	-0.212144	-3.246290
C	2.588082	3.053936	-6.334976
H	3.298799	3.899999	-6.370268
H	1.655291	3.328371	-6.875609
H	3.026021	2.177385	-6.861878
H	2.183053	2.599759	1.321510
$end

$rem
JOBTYPE		SP
EXCHANGE	HF
CORRELATION	pRIMP2
BASIS		cc-pvtz
METHOD		rimp2
AUX_BASIS	rimp2-cc-pvtz
SOLVENT_METHOD	PCM
PURECART	11111
SYMMETRY	false
MEM_TOTAL	110000
SCF_CONVERGENCE = 6
THRESH=10
GUI = 2
$end

$solvent
dielectric 4.90
$end
--------------------------------------------------------------

             Standard Nuclear Orientation (Angstroms)
    I     Atom           X                Y                Z
 ----------------------------------------------------------------
    1      C      -0.2680900000    -8.5197410000     0.0465740000
    2      C       0.7339200000    -7.6359670000    -0.3268860000
    3      S      -1.7223180000    -7.6517400000     0.5957080000
    4      C       0.3715160000    -6.2618940000    -0.1932360000
    5      H       1.7181300000    -7.9547380000    -0.6927000000
    6      C      -0.9702830000    -6.0799850000     0.2949580000
    7      C      -1.4982430000    -4.7983820000     0.5154870000
    8      C       1.2197250000    -5.1535420000    -0.4773580000
    9      C       0.6929140000    -3.8696260000    -0.2526550000
   10      C      -0.6512890000    -3.6889270000     0.2333660000
   11      O       2.4516230000    -5.4810750000    -0.9573690000
   12      O      -2.7352640000    -4.4798710000     0.9987690000
   13      C      -3.8283870000    -5.3560260000     0.7520290000
   14      H      -4.7432130000    -4.7904960000     1.0126750000
   15      H      -3.7886230000    -6.2685130000     1.3863030000
   16      H      -3.8772600000    -5.6581870000    -0.3164920000
   17      C       3.5215800000    -4.5469990000    -0.8819300000
   18      H       4.4382600000    -5.1075640000    -1.1459690000
   19      H       3.6318680000    -4.1314730000     0.1427120000
   20      H       3.3994250000    -3.7120850000    -1.6056100000
   21      C      -1.0095350000    -2.3143260000     0.3679280000
   22      S       1.4509450000    -2.2954870000    -0.5420880000
   23      C       0.0000000000    -1.4351800000     0.0000000000
   24      H      -1.9939200000    -1.9932110000     0.7309990000
   25      H      -0.2620470000    -9.6159850000     0.0469910000
   26      C       0.0000000000     0.0000000000     0.0000000000
   27      S       0.5798520000     0.6875660000     1.5107320000
   28      C       1.5916250000     1.8950240000     0.7276290000
   29      C       0.5837710000     0.6957580000    -1.0646650000
   30      C       1.4753080000     1.7606060000    -0.6782870000
   31      C       0.5423660000     0.6438410000    -2.4861500000
   32      C       1.3552860000     1.6128430000    -3.1069160000
   33      S       2.1546090000     2.5706270000    -1.9657350000
   34      C       1.5224400000     1.8047780000    -4.5599720000
   35      O       0.9246840000     1.0877570000    -5.3502770000
   36      O       2.3497390000     2.7856790000    -5.0043750000
   37      F      -0.1707800000    -0.2121440000    -3.2462900000
   38      C       2.5880820000     3.0539360000    -6.3349760000
   39      H       3.2987990000     3.8999990000    -6.3702680000
   40      H       1.6552910000     3.3283710000    -6.8756090000
   41      H       3.0260210000     2.1773850000    -6.8618780000
   42      H       2.1830530000     2.5997590000     1.3215100000
 ----------------------------------------------------------------

   11   -2754.2688821920      4.65e-07  Convergence criterion met
 Total energy in the final basis set =    -2754.2688821920
        RIMP2         total energy =     -2759.3312096944 a.u.

                    Orbital Energies (a.u.)
 --------------------------------------------------------------

 Alpha MOs
 -- Occupied --
-92.0161 -91.9995 -91.9870 -91.9853 -26.3341 -20.6138 -20.5916 -20.5902
-20.5532 -11.4130 -11.3771 -11.3181 -11.3159 -11.3074 -11.3038 -11.2984
-11.2933 -11.2908 -11.2894 -11.2872 -11.2866 -11.2853 -11.2839 -11.2828
-11.2786 -11.2585 -11.2574 -11.2509 -11.2492  -9.0146  -9.0034  -8.9876
 -8.9853  -6.6952  -6.6945  -6.6942  -6.6846  -6.6839  -6.6826  -6.6685
 -6.6678  -6.6668  -6.6662  -6.6656  -6.6648  -1.6470  -1.4738  -1.4157
 -1.4130  -1.3694  -1.2377  -1.1941  -1.1683  -1.1433  -1.0833  -1.0509
 -1.0488  -1.0299  -1.0006  -0.9920  -0.9731  -0.9600  -0.9497  -0.9384
 -0.8945  -0.8720  -0.8470  -0.8056  -0.7917  -0.7870  -0.7754  -0.7666
 -0.7559  -0.7315  -0.7180  -0.7155  -0.6998  -0.6903  -0.6813  -0.6799
 -0.6737  -0.6612  -0.6583  -0.6517  -0.6290  -0.6190  -0.6166  -0.6086
 -0.6046  -0.5982  -0.5813  -0.5778  -0.5653  -0.5646  -0.5552  -0.5474
 -0.5342  -0.5281  -0.5231  -0.5150  -0.5137  -0.5085  -0.5013  -0.4949
 -0.4895  -0.4859  -0.4710  -0.4676  -0.4637  -0.4625  -0.4598  -0.4040
 -0.4021  -0.3850  -0.3559  -0.3504  -0.3142  -0.2910  -0.2561

          Ground-State Mulliken Net Atomic Charges

     Atom                 Charge (a.u.)
  ----------------------------------------
      1 C                    -0.190405
      2 C                    -0.254451
      3 S                    -0.023873
      4 C                    -0.015870
      5 H                     0.196012
      6 C                    -0.026675
      7 C                     0.238007
      8 C                     0.241625
      9 C                    -0.043330
     10 C                    -0.012564
     11 O                    -0.333293
     12 O                    -0.339981
     13 C                    -0.085612
     14 H                     0.122114
     15 H                     0.090618
     16 H                     0.094132
     17 C                    -0.087155
     18 H                     0.125133
     19 H                     0.093975
     20 H                     0.089965
     21 C                    -0.241987
     22 S                    -0.014980
     23 C                    -0.044700
     24 H                     0.195614
     25 H                     0.206005
     26 C                    -0.030973
     27 S                     0.133327
     28 C                    -0.199798
     29 C                    -0.142709
     30 C                    -0.001305
     31 C                     0.393650
     32 C                    -0.143909
     33 S                     0.055356
     34 C                     0.459355
     35 O                    -0.444301
     36 O                    -0.297439
     37 F                    -0.209126
     38 C                    -0.054676
     39 H                     0.116941
     40 H                     0.085207
     41 H                     0.085017
     42 H                     0.217056
  ----------------------------------------
  Sum of atomic charges =     0.000000

                    Cartesian Multipole Moments
 -----------------------------------------------------------------
    Charge (ESU x 10^10)
                 0.0000
    Dipole Moment (Debye)
         X       3.0348      Y       2.0658      Z       2.7350
       Tot       4.5780
    Quadrupole Moments (Debye-Ang)
        XX    -169.7321     XY       9.4349     YY    -167.2267
        XZ     -10.4002     YZ      -7.4283     ZZ    -204.2820

 Total job time:  302.66s(wall), 9864.52s(cpu)
        *  Thank you very much for using Q-Chem.  Have a nice day.  *
