 Q-Chem 5.4, Q-Chem, Inc., Pleasanton, CA (2021)
 Q-Chem 5.4.0 for Intel X86 EM64T Linux

User input:
--------------------------------------------------------------
$molecule
0 1
C	0.174379	-8.519741	0.208886
C	-0.650052	-7.635967	-0.472151
S	1.377058	-7.651740	1.193717
C	-0.353105	-6.261894	-0.225125
H	-1.458961	-7.954738	-1.141594
C	0.740583	-6.079985	0.692811
C	1.195546	-4.798382	1.039773
C	-1.023267	-5.153542	-0.817634
C	-0.565262	-3.869626	-0.473754
C	0.527745	-3.688927	0.447350
O	-2.054917	-5.481075	-1.644483
O	2.232592	-4.479871	1.869424
C	2.565470	-5.356026	2.939466
H	3.248608	-4.790496	3.601405
H	3.094885	-6.268513	2.587892
H	1.664539	-5.658187	3.516052
C	-2.524564	-4.546999	-2.608813
H	-3.211568	-5.107564	-3.270661
H	-1.692342	-4.131473	-3.216646
H	-3.090211	-3.712085	-2.141184
C	0.823402	-2.314326	0.690319
S	-1.194935	-2.295487	-0.985511
C	0.000000	-1.435180	0.000000
H	1.630024	-1.993211	1.361286
H	0.171719	-9.615985	0.203444
C	0.000000	0.000000	0.000000
S	0.309721	0.844422	1.510732
C	0.847502	2.325108	0.727629
C	0.310602	0.853460	-1.064665
C	0.784173	2.159014	-0.678287
C	0.289451	0.790512	-2.486150
C	0.721927	1.979112	-3.106916
S	1.145464	3.152519	-1.965735
C	0.813355	2.216642	-4.559972
O	0.496884	1.338418	-5.350277
O	1.255274	3.421340	-5.004375
F	-0.087923	-0.257761	-3.246290
C	1.387494	3.754937	-6.334976
H	1.765978	4.793056	-6.370268
H	0.417095	3.693789	-6.875609
H	2.098820	3.081033	-6.861878
H	1.162229	3.189623	1.321510
$end

$rem
JOBTYPE		SP
EXCHANGE	HF
CORRELATION	pRIMP2
BASIS		cc-pvtz
METHOD		rimp2
AUX_BASIS	rimp2-cc-pvtz
SOLVENT_METHOD	PCM
PURECART	11111
SYMMETRY	false
MEM_TOTAL	110000
SCF_CONVERGENCE = 6
THRESH=10
GUI = 2
$end

$solvent
dielectric 4.90
$end
--------------------------------------------------------------

             Standard Nuclear Orientation (Angstroms)
    I     Atom           X                Y                Z
 ----------------------------------------------------------------
    1      C       0.1743790000    -8.5197410000     0.2088860000
    2      C      -0.6500520000    -7.6359670000    -0.4721510000
    3      S       1.3770580000    -7.6517400000     1.1937170000
    4      C      -0.3531050000    -6.2618940000    -0.2251250000
    5      H      -1.4589610000    -7.9547380000    -1.1415940000
    6      C       0.7405830000    -6.0799850000     0.6928110000
    7      C       1.1955460000    -4.7983820000     1.0397730000
    8      C      -1.0232670000    -5.1535420000    -0.8176340000
    9      C      -0.5652620000    -3.8696260000    -0.4737540000
   10      C       0.5277450000    -3.6889270000     0.4473500000
   11      O      -2.0549170000    -5.4810750000    -1.6444830000
   12      O       2.2325920000    -4.4798710000     1.8694240000
   13      C       2.5654700000    -5.3560260000     2.9394660000
   14      H       3.2486080000    -4.7904960000     3.6014050000
   15      H       3.0948850000    -6.2685130000     2.5878920000
   16      H       1.6645390000    -5.6581870000     3.5160520000
   17      C      -2.5245640000    -4.5469990000    -2.6088130000
   18      H      -3.2115680000    -5.1075640000    -3.2706610000
   19      H      -1.6923420000    -4.1314730000    -3.2166460000
   20      H      -3.0902110000    -3.7120850000    -2.1411840000
   21      C       0.8234020000    -2.3143260000     0.6903190000
   22      S      -1.1949350000    -2.2954870000    -0.9855110000
   23      C       0.0000000000    -1.4351800000     0.0000000000
   24      H       1.6300240000    -1.9932110000     1.3612860000
   25      H       0.1717190000    -9.6159850000     0.2034440000
   26      C       0.0000000000     0.0000000000     0.0000000000
   27      S       0.3097210000     0.8444220000     1.5107320000
   28      C       0.8475020000     2.3251080000     0.7276290000
   29      C       0.3106020000     0.8534600000    -1.0646650000
   30      C       0.7841730000     2.1590140000    -0.6782870000
   31      C       0.2894510000     0.7905120000    -2.4861500000
   32      C       0.7219270000     1.9791120000    -3.1069160000
   33      S       1.1454640000     3.1525190000    -1.9657350000
   34      C       0.8133550000     2.2166420000    -4.5599720000
   35      O       0.4968840000     1.3384180000    -5.3502770000
   36      O       1.2552740000     3.4213400000    -5.0043750000
   37      F      -0.0879230000    -0.2577610000    -3.2462900000
   38      C       1.3874940000     3.7549370000    -6.3349760000
   39      H       1.7659780000     4.7930560000    -6.3702680000
   40      H       0.4170950000     3.6937890000    -6.8756090000
   41      H       2.0988200000     3.0810330000    -6.8618780000
   42      H       1.1622290000     3.1896230000     1.3215100000
 ----------------------------------------------------------------

   10   -2754.2900429516      8.44e-07  Convergence criterion met
 Total energy in the final basis set =    -2754.2900429516
        RIMP2         total energy =     -2759.3461422721 a.u.

                    Orbital Energies (a.u.)
 --------------------------------------------------------------

 Alpha MOs
 -- Occupied --
-92.0168 -91.9955 -91.9875 -91.9862 -26.3337 -20.6122 -20.5916 -20.5916
-20.5503 -11.4105 -11.3772 -11.3186 -11.3179 -11.3083 -11.2980 -11.2973
-11.2959 -11.2958 -11.2885 -11.2863 -11.2859 -11.2856 -11.2838 -11.2837
-11.2796 -11.2608 -11.2587 -11.2575 -11.2497  -9.0149  -8.9995  -8.9880
 -8.9861  -6.6956  -6.6950  -6.6946  -6.6808  -6.6801  -6.6788  -6.6689
 -6.6682  -6.6673  -6.6671  -6.6664  -6.6656  -1.6471  -1.4719  -1.4158
 -1.4143  -1.3673  -1.2342  -1.1957  -1.1685  -1.1421  -1.0841  -1.0517
 -1.0479  -1.0283  -1.0018  -0.9932  -0.9718  -0.9606  -0.9499  -0.9386
 -0.8952  -0.8697  -0.8501  -0.8074  -0.7911  -0.7875  -0.7749  -0.7657
 -0.7577  -0.7322  -0.7183  -0.7152  -0.7006  -0.6887  -0.6830  -0.6786
 -0.6718  -0.6609  -0.6584  -0.6524  -0.6297  -0.6198  -0.6163  -0.6066
 -0.6017  -0.5958  -0.5870  -0.5735  -0.5699  -0.5672  -0.5555  -0.5525
 -0.5297  -0.5272  -0.5226  -0.5167  -0.5144  -0.5081  -0.5018  -0.4937
 -0.4888  -0.4848  -0.4774  -0.4663  -0.4617  -0.4612  -0.4597  -0.4155
 -0.3969  -0.3861  -0.3578  -0.3494  -0.3199  -0.2868  -0.2535

          Ground-State Mulliken Net Atomic Charges

     Atom                 Charge (a.u.)
  ----------------------------------------
      1 C                    -0.188545
      2 C                    -0.253996
      3 S                    -0.023098
      4 C                    -0.014917
      5 H                     0.196547
      6 C                    -0.029646
      7 C                     0.242175
      8 C                     0.243746
      9 C                    -0.047124
     10 C                    -0.027280
     11 O                    -0.333791
     12 O                    -0.340244
     13 C                    -0.085608
     14 H                     0.122380
     15 H                     0.091152
     16 H                     0.093932
     17 C                    -0.087053
     18 H                     0.124523
     19 H                     0.096215
     20 H                     0.089398
     21 C                    -0.232017
     22 S                    -0.001040
     23 C                    -0.021281
     24 H                     0.200353
     25 H                     0.206419
     26 C                    -0.029870
     27 S                     0.108387
     28 C                    -0.226603
     29 C                    -0.078329
     30 C                    -0.012206
     31 C                     0.372031
     32 C                    -0.144741
     33 S                     0.042219
     34 C                     0.457991
     35 O                    -0.449575
     36 O                    -0.297888
     37 F                    -0.208857
     38 C                    -0.054852
     39 H                     0.116594
     40 H                     0.084520
     41 H                     0.084536
     42 H                     0.215446
  ----------------------------------------
  Sum of atomic charges =     0.000000

                    Cartesian Multipole Moments
 -----------------------------------------------------------------
    Charge (ESU x 10^10)
                -0.0000
    Dipole Moment (Debye)
         X       1.0154      Y       1.7155      Z       3.2524
       Tot       3.8147
    Quadrupole Moments (Debye-Ang)
        XX    -191.0104     XY       6.0254     YY    -161.5082
        XZ       8.3762     YZ     -11.1471     ZZ    -190.0010

 Total job time:  345.32s(wall), 10861.55s(cpu)
        *  Thank you very much for using Q-Chem.  Have a nice day.  *
