 Q-Chem 5.4, Q-Chem, Inc., Pleasanton, CA (2021)
 Q-Chem 5.4.0 for Intel X86 EM64T Linux

User input:
--------------------------------------------------------------
$molecule
0 1
C	-0.000687	-8.519741	0.272104
C	-0.194476	-7.635967	-0.779533
S	0.287581	-7.651740	1.799596
C	-0.125787	-6.261894	-0.399427
H	-0.383826	-7.954738	-1.812314
C	0.121989	-6.079985	1.006762
C	0.247488	-4.798382	1.564994
C	-0.258303	-5.153542	-1.284087
C	-0.128493	-3.869626	-0.726260
C	0.116725	-3.688927	0.681918
O	-0.517104	-5.481075	-2.580622
O	0.508622	-4.479871	2.867144
C	0.075811	-5.356026	3.900814
H	0.173640	-4.790496	4.847002
H	0.707354	-6.268513	3.971794
H	-0.984963	-5.658187	3.763397
C	-0.257016	-4.546999	-3.621225
H	-0.357864	-5.107564	-4.569828
H	0.771211	-4.131473	-3.551910
H	-0.990913	-3.712085	-3.626592
C	0.187034	-2.314326	1.058088
S	-0.281899	-2.295487	-1.523035
C	0.000000	-1.435180	0.000000
H	0.373653	-1.993211	2.090565
H	0.000773	-9.615985	0.266226
C	0.000000	0.000000	0.000000
S	0.309721	0.844422	1.510732
C	0.847502	2.325108	0.727629
C	0.310602	0.853460	-1.064665
C	0.784173	2.159014	-0.678287
C	0.289451	0.790512	-2.486150
C	0.721927	1.979112	-3.106916
S	1.145464	3.152519	-1.965735
C	0.813355	2.216642	-4.559972
O	0.496884	1.338418	-5.350277
O	1.255274	3.421340	-5.004375
F	-0.087923	-0.257761	-3.246290
C	1.387494	3.754937	-6.334976
H	1.765978	4.793056	-6.370268
H	0.417095	3.693789	-6.875609
H	2.098820	3.081033	-6.861878
H	1.162229	3.189623	1.321510
$end

$rem
JOBTYPE		SP
EXCHANGE	HF
CORRELATION	pRIMP2
BASIS		cc-pvtz
METHOD		rimp2
AUX_BASIS	rimp2-cc-pvtz
SOLVENT_METHOD	PCM
PURECART	11111
SYMMETRY	false
MEM_TOTAL	110000
SCF_CONVERGENCE = 6
THRESH=10
GUI = 2
$end

$solvent
dielectric 4.90
$end
--------------------------------------------------------------

             Standard Nuclear Orientation (Angstroms)
    I     Atom           X                Y                Z
 ----------------------------------------------------------------
    1      C      -0.0006870000    -8.5197410000     0.2721040000
    2      C      -0.1944760000    -7.6359670000    -0.7795330000
    3      S       0.2875810000    -7.6517400000     1.7995960000
    4      C      -0.1257870000    -6.2618940000    -0.3994270000
    5      H      -0.3838260000    -7.9547380000    -1.8123140000
    6      C       0.1219890000    -6.0799850000     1.0067620000
    7      C       0.2474880000    -4.7983820000     1.5649940000
    8      C      -0.2583030000    -5.1535420000    -1.2840870000
    9      C      -0.1284930000    -3.8696260000    -0.7262600000
   10      C       0.1167250000    -3.6889270000     0.6819180000
   11      O      -0.5171040000    -5.4810750000    -2.5806220000
   12      O       0.5086220000    -4.4798710000     2.8671440000
   13      C       0.0758110000    -5.3560260000     3.9008140000
   14      H       0.1736400000    -4.7904960000     4.8470020000
   15      H       0.7073540000    -6.2685130000     3.9717940000
   16      H      -0.9849630000    -5.6581870000     3.7633970000
   17      C      -0.2570160000    -4.5469990000    -3.6212250000
   18      H      -0.3578640000    -5.1075640000    -4.5698280000
   19      H       0.7712110000    -4.1314730000    -3.5519100000
   20      H      -0.9909130000    -3.7120850000    -3.6265920000
   21      C       0.1870340000    -2.3143260000     1.0580880000
   22      S      -0.2818990000    -2.2954870000    -1.5230350000
   23      C       0.0000000000    -1.4351800000     0.0000000000
   24      H       0.3736530000    -1.9932110000     2.0905650000
   25      H       0.0007730000    -9.6159850000     0.2662260000
   26      C       0.0000000000     0.0000000000     0.0000000000
   27      S       0.3097210000     0.8444220000     1.5107320000
   28      C       0.8475020000     2.3251080000     0.7276290000
   29      C       0.3106020000     0.8534600000    -1.0646650000
   30      C       0.7841730000     2.1590140000    -0.6782870000
   31      C       0.2894510000     0.7905120000    -2.4861500000
   32      C       0.7219270000     1.9791120000    -3.1069160000
   33      S       1.1454640000     3.1525190000    -1.9657350000
   34      C       0.8133550000     2.2166420000    -4.5599720000
   35      O       0.4968840000     1.3384180000    -5.3502770000
   36      O       1.2552740000     3.4213400000    -5.0043750000
   37      F      -0.0879230000    -0.2577610000    -3.2462900000
   38      C       1.3874940000     3.7549370000    -6.3349760000
   39      H       1.7659780000     4.7930560000    -6.3702680000
   40      H       0.4170950000     3.6937890000    -6.8756090000
   41      H       2.0988200000     3.0810330000    -6.8618780000
   42      H       1.1622290000     3.1896230000     1.3215100000
 ----------------------------------------------------------------

   10   -2754.2856380887      8.22e-07  Convergence criterion met
 Total energy in the final basis set =    -2754.2856380887
        RIMP2         total energy =     -2759.3445750330 a.u.

                    Orbital Energies (a.u.)
 --------------------------------------------------------------

 Alpha MOs
 -- Occupied --
-92.0147 -91.9962 -91.9859 -91.9845 -26.3362 -20.6126 -20.5913 -20.5909
-20.5508 -11.4111 -11.3789 -11.3180 -11.3170 -11.3110 -11.2990 -11.2982
-11.2974 -11.2965 -11.2888 -11.2861 -11.2852 -11.2844 -11.2834 -11.2833
-11.2791 -11.2608 -11.2581 -11.2566 -11.2495  -9.0133  -9.0002  -8.9858
 -8.9856  -6.6941  -6.6935  -6.6930  -6.6815  -6.6808  -6.6795  -6.6668
 -6.6664  -6.6662  -6.6657  -6.6653  -6.6646  -1.6520  -1.4724  -1.4152
 -1.4139  -1.3678  -1.2354  -1.1955  -1.1689  -1.1425  -1.0844  -1.0516
 -1.0487  -1.0294  -1.0016  -0.9936  -0.9730  -0.9601  -0.9495  -0.9382
 -0.8953  -0.8706  -0.8513  -0.8101  -0.7960  -0.7871  -0.7751  -0.7632
 -0.7576  -0.7319  -0.7213  -0.7191  -0.7001  -0.6891  -0.6837  -0.6791
 -0.6745  -0.6620  -0.6581  -0.6520  -0.6282  -0.6191  -0.6158  -0.6072
 -0.6023  -0.5970  -0.5886  -0.5705  -0.5681  -0.5659  -0.5582  -0.5527
 -0.5302  -0.5266  -0.5221  -0.5196  -0.5142  -0.5088  -0.5019  -0.4947
 -0.4857  -0.4834  -0.4796  -0.4640  -0.4619  -0.4615  -0.4568  -0.4247
 -0.3950  -0.3860  -0.3598  -0.3502  -0.3248  -0.2838  -0.2465

          Ground-State Mulliken Net Atomic Charges

     Atom                 Charge (a.u.)
  ----------------------------------------
      1 C                    -0.189414
      2 C                    -0.254124
      3 S                    -0.023893
      4 C                    -0.014504
      5 H                     0.196505
      6 C                    -0.028425
      7 C                     0.239655
      8 C                     0.242517
      9 C                    -0.041602
     10 C                    -0.024569
     11 O                    -0.333882
     12 O                    -0.340815
     13 C                    -0.085599
     14 H                     0.122112
     15 H                     0.091128
     16 H                     0.094044
     17 C                    -0.087985
     18 H                     0.125121
     19 H                     0.094774
     20 H                     0.090805
     21 C                    -0.244751
     22 S                    -0.021957
     23 C                    -0.013113
     24 H                     0.187948
     25 H                     0.206302
     26 C                     0.025894
     27 S                     0.092507
     28 C                    -0.220790
     29 C                    -0.079342
     30 C                    -0.031605
     31 C                     0.363733
     32 C                    -0.129668
     33 S                     0.043545
     34 C                     0.457120
     35 O                    -0.449708
     36 O                    -0.297723
     37 F                    -0.208822
     38 C                    -0.054820
     39 H                     0.116836
     40 H                     0.084625
     41 H                     0.084479
     42 H                     0.217458
  ----------------------------------------
  Sum of atomic charges =     0.000000

                    Cartesian Multipole Moments
 -----------------------------------------------------------------
    Charge (ESU x 10^10)
                 0.0000
    Dipole Moment (Debye)
         X       1.0178      Y       1.9092      Z       2.8496
       Tot       3.5779
    Quadrupole Moments (Debye-Ang)
        XX    -199.9343     XY       6.7377     YY    -162.4620
        XZ      -5.2543     YZ     -10.2623     ZZ    -180.5993

 Total job time:  307.04s(wall), 10563.18s(cpu)
        *  Thank you very much for using Q-Chem.  Have a nice day.  *
