 Q-Chem 5.4, Q-Chem, Inc., Pleasanton, CA (2021)
 Q-Chem 5.4.0 for Intel X86 EM64T Linux

User input:
--------------------------------------------------------------
$molecule
0 1
C	-0.175432	-8.519741	0.208002
C	0.352097	-7.635967	-0.722164
S	-0.936458	-7.651740	1.563424
C	0.160388	-6.261894	-0.386833
H	0.870905	-7.954738	-1.635031
C	-0.553685	-6.079985	0.849637
C	-0.816372	-4.798382	1.357938
C	0.627524	-5.153542	-1.149702
C	0.368399	-3.869626	-0.638941
C	-0.348912	-3.688927	0.597409
O	1.262667	-5.481075	-2.309260
O	-1.453338	-4.479871	2.523296
C	-2.449320	-5.356026	3.036927
H	-2.982577	-4.790496	3.824632
H	-2.011155	-6.268513	3.497250
H	-3.173591	-5.658187	2.249807
C	2.130793	-4.546999	-2.939226
H	2.663289	-5.107564	-3.730721
H	2.873906	-4.131473	-2.225196
H	1.572045	-3.712085	-3.415077
C	-0.536849	-2.314326	0.930765
S	0.763041	-2.295487	-1.347913
C	-0.000000	-1.435180	-0.000000
H	-1.057554	-1.993211	1.841645
H	-0.170535	-9.615985	0.204438
C	0.000000	0.000000	0.000000
S	0.579852	0.687566	1.510732
C	1.591625	1.895024	0.727629
C	0.583771	0.695758	-1.064665
C	1.475308	1.760606	-0.678287
C	0.542366	0.643841	-2.486150
C	1.355286	1.612843	-3.106916
S	2.154609	2.570627	-1.965735
C	1.522440	1.804778	-4.559972
O	0.924684	1.087757	-5.350277
O	2.349739	2.785679	-5.004375
F	-0.170780	-0.212144	-3.246290
C	2.588082	3.053936	-6.334976
H	3.298799	3.899999	-6.370268
H	1.655291	3.328371	-6.875609
H	3.026021	2.177385	-6.861878
H	2.183053	2.599759	1.321510
$end

$rem
JOBTYPE		SP
EXCHANGE	HF
CORRELATION	pRIMP2
BASIS		cc-pvtz
METHOD		rimp2
AUX_BASIS	rimp2-cc-pvtz
SOLVENT_METHOD	PCM
PURECART	11111
SYMMETRY	false
MEM_TOTAL	110000
SCF_CONVERGENCE = 6
THRESH=10
GUI = 2
$end

$solvent
dielectric 4.90
$end
--------------------------------------------------------------

             Standard Nuclear Orientation (Angstroms)
    I     Atom           X                Y                Z
 ----------------------------------------------------------------
    1      C      -0.1754320000    -8.5197410000     0.2080020000
    2      C       0.3520970000    -7.6359670000    -0.7221640000
    3      S      -0.9364580000    -7.6517400000     1.5634240000
    4      C       0.1603880000    -6.2618940000    -0.3868330000
    5      H       0.8709050000    -7.9547380000    -1.6350310000
    6      C      -0.5536850000    -6.0799850000     0.8496370000
    7      C      -0.8163720000    -4.7983820000     1.3579380000
    8      C       0.6275240000    -5.1535420000    -1.1497020000
    9      C       0.3683990000    -3.8696260000    -0.6389410000
   10      C      -0.3489120000    -3.6889270000     0.5974090000
   11      O       1.2626670000    -5.4810750000    -2.3092600000
   12      O      -1.4533380000    -4.4798710000     2.5232960000
   13      C      -2.4493200000    -5.3560260000     3.0369270000
   14      H      -2.9825770000    -4.7904960000     3.8246320000
   15      H      -2.0111550000    -6.2685130000     3.4972500000
   16      H      -3.1735910000    -5.6581870000     2.2498070000
   17      C       2.1307930000    -4.5469990000    -2.9392260000
   18      H       2.6632890000    -5.1075640000    -3.7307210000
   19      H       2.8739060000    -4.1314730000    -2.2251960000
   20      H       1.5720450000    -3.7120850000    -3.4150770000
   21      C      -0.5368490000    -2.3143260000     0.9307650000
   22      S       0.7630410000    -2.2954870000    -1.3479130000
   23      C       0.0000000000    -1.4351800000     0.0000000000
   24      H      -1.0575540000    -1.9932110000     1.8416450000
   25      H      -0.1705350000    -9.6159850000     0.2044380000
   26      C       0.0000000000     0.0000000000     0.0000000000
   27      S       0.5798520000     0.6875660000     1.5107320000
   28      C       1.5916250000     1.8950240000     0.7276290000
   29      C       0.5837710000     0.6957580000    -1.0646650000
   30      C       1.4753080000     1.7606060000    -0.6782870000
   31      C       0.5423660000     0.6438410000    -2.4861500000
   32      C       1.3552860000     1.6128430000    -3.1069160000
   33      S       2.1546090000     2.5706270000    -1.9657350000
   34      C       1.5224400000     1.8047780000    -4.5599720000
   35      O       0.9246840000     1.0877570000    -5.3502770000
   36      O       2.3497390000     2.7856790000    -5.0043750000
   37      F      -0.1707800000    -0.2121440000    -3.2462900000
   38      C       2.5880820000     3.0539360000    -6.3349760000
   39      H       3.2987990000     3.8999990000    -6.3702680000
   40      H       1.6552910000     3.3283710000    -6.8756090000
   41      H       3.0260210000     2.1773850000    -6.8618780000
   42      H       2.1830530000     2.5997590000     1.3215100000
 ----------------------------------------------------------------

   10   -2754.2661734790      9.42e-07  Convergence criterion met
 Total energy in the final basis set =    -2754.2661734790
        RIMP2         total energy =     -2759.3320410081 a.u.

                    Orbital Energies (a.u.)
 --------------------------------------------------------------

 Alpha MOs
 -- Occupied --
-92.0165 -92.0010 -91.9862 -91.9843 -26.3345 -20.6143 -20.5909 -20.5891
-20.5538 -11.4137 -11.3781 -11.3176 -11.3134 -11.3088 -11.3051 -11.2997
-11.2977 -11.2951 -11.2897 -11.2884 -11.2857 -11.2849 -11.2821 -11.2821
-11.2768 -11.2592 -11.2551 -11.2484 -11.2466  -9.0151  -9.0047  -8.9870
 -8.9843  -6.6958  -6.6950  -6.6947  -6.6859  -6.6853  -6.6840  -6.6679
 -6.6672  -6.6662  -6.6652  -6.6646  -6.6638  -1.6486  -1.4743  -1.4149
 -1.4119  -1.3701  -1.2393  -1.1936  -1.1686  -1.1437  -1.0842  -1.0513
 -1.0483  -1.0315  -1.0003  -0.9921  -0.9743  -0.9588  -0.9488  -0.9391
 -0.8939  -0.8732  -0.8472  -0.8085  -0.7940  -0.7863  -0.7760  -0.7637
 -0.7558  -0.7307  -0.7203  -0.7166  -0.6989  -0.6905  -0.6811  -0.6801
 -0.6751  -0.6623  -0.6574  -0.6510  -0.6266  -0.6180  -0.6154  -0.6092
 -0.6056  -0.5993  -0.5831  -0.5737  -0.5666  -0.5618  -0.5569  -0.5513
 -0.5318  -0.5277  -0.5229  -0.5163  -0.5140  -0.5073  -0.5030  -0.4954
 -0.4881  -0.4844  -0.4764  -0.4659  -0.4640  -0.4631  -0.4574  -0.4188
 -0.3935  -0.3853  -0.3605  -0.3486  -0.3224  -0.2867  -0.2458

          Ground-State Mulliken Net Atomic Charges

     Atom                 Charge (a.u.)
  ----------------------------------------
      1 C                    -0.194306
      2 C                    -0.253604
      3 S                    -0.026231
      4 C                    -0.021463
      5 H                     0.195840
      6 C                    -0.025572
      7 C                     0.230842
      8 C                     0.242675
      9 C                    -0.046604
     10 C                    -0.003590
     11 O                    -0.333144
     12 O                    -0.340991
     13 C                    -0.085396
     14 H                     0.121442
     15 H                     0.090435
     16 H                     0.093598
     17 C                    -0.089644
     18 H                     0.125572
     19 H                     0.093714
     20 H                     0.091376
     21 C                    -0.285340
     22 S                    -0.019738
     23 C                     0.022713
     24 H                     0.189689
     25 H                     0.205434
     26 C                    -0.034684
     27 S                     0.130794
     28 C                    -0.199943
     29 C                    -0.086718
     30 C                    -0.019418
     31 C                     0.341312
     32 C                    -0.129105
     33 S                     0.059677
     34 C                     0.458415
     35 O                    -0.444177
     36 O                    -0.297381
     37 F                    -0.207483
     38 C                    -0.054570
     39 H                     0.117178
     40 H                     0.085332
     41 H                     0.084877
     42 H                     0.218187
  ----------------------------------------
  Sum of atomic charges =     0.000000

                    Cartesian Multipole Moments
 -----------------------------------------------------------------
    Charge (ESU x 10^10)
                -0.0000
    Dipole Moment (Debye)
         X       2.9754      Y       2.6742      Z       2.4834
       Tot       4.7086
    Quadrupole Moments (Debye-Ang)
        XX    -182.5515     XY       9.9794     YY    -170.5479
        XZ     -19.9500     YZ      -7.3634     ZZ    -191.1423

 Total job time:  279.42s(wall), 9265.37s(cpu)
        *  Thank you very much for using Q-Chem.  Have a nice day.  *
