 Q-Chem 5.4, Q-Chem, Inc., Pleasanton, CA (2021)
 Q-Chem 5.4.0 for Intel X86 EM64T Linux

User input:
--------------------------------------------------------------
$molecule
0 1
C	-0.255929	-8.519741	0.092419
C	0.666007	-7.635967	-0.449364
S	-1.592708	-7.651740	0.885736
C	0.332317	-6.261894	-0.254813
H	1.571741	-7.954738	-0.980526
C	-0.904324	-6.079985	0.458965
C	-1.385968	-4.798382	0.767823
C	1.118303	-5.153542	-0.681909
C	0.638514	-3.869626	-0.369139
C	-0.600871	-3.688927	0.342916
O	2.248132	-5.481075	-1.368544
O	-2.520275	-4.479871	1.458570
C	-3.639637	-5.356026	1.405396
H	-4.495304	-4.790496	1.820940
H	-3.490336	-6.268513	2.023129
H	-3.873314	-5.658187	0.361595
C	3.314934	-4.546999	-1.480048
H	4.171837	-5.107564	-1.899255
H	3.601473	-4.131473	-0.490123
H	3.068969	-3.712085	-2.171521
C	-0.930308	-2.314326	0.537642
S	1.334769	-2.295487	-0.785807
C	0.000000	-1.435180	0.000000
H	-1.836691	-1.993211	1.066134
H	-0.249906	-9.615985	0.091781
C	0.000000	0.000000	0.000000
S	0.234946	0.868203	1.510732
C	0.641630	2.390125	0.727629
C	0.235036	0.877284	-1.064665
C	0.593019	2.219143	-0.678287
C	0.219452	0.812732	-2.486150
C	0.546689	2.034501	-3.106916
S	0.866345	3.240357	-1.965735
C	0.617067	2.279095	-4.559972
O	0.378342	1.376631	-5.350277
O	0.952308	3.517725	-5.004375
F	-0.065123	-0.264443	-3.246290
C	1.054950	3.861577	-6.334976
H	1.341516	4.928732	-6.370268
H	0.093573	3.716085	-6.875609
H	1.822303	3.252232	-6.861878
H	0.879812	3.278780	1.321510
$end

$rem
JOBTYPE		SP
EXCHANGE	HF
CORRELATION	pRIMP2
BASIS		cc-pvtz
METHOD		rimp2
AUX_BASIS	rimp2-cc-pvtz
SOLVENT_METHOD	PCM
PURECART	11111
SYMMETRY	false
MEM_TOTAL	110000
SCF_CONVERGENCE = 6
THRESH=10
GUI = 2
$end

$solvent
dielectric 4.90
$end
--------------------------------------------------------------

             Standard Nuclear Orientation (Angstroms)
    I     Atom           X                Y                Z
 ----------------------------------------------------------------
    1      C      -0.2559290000    -8.5197410000     0.0924190000
    2      C       0.6660070000    -7.6359670000    -0.4493640000
    3      S      -1.5927080000    -7.6517400000     0.8857360000
    4      C       0.3323170000    -6.2618940000    -0.2548130000
    5      H       1.5717410000    -7.9547380000    -0.9805260000
    6      C      -0.9043240000    -6.0799850000     0.4589650000
    7      C      -1.3859680000    -4.7983820000     0.7678230000
    8      C       1.1183030000    -5.1535420000    -0.6819090000
    9      C       0.6385140000    -3.8696260000    -0.3691390000
   10      C      -0.6008710000    -3.6889270000     0.3429160000
   11      O       2.2481320000    -5.4810750000    -1.3685440000
   12      O      -2.5202750000    -4.4798710000     1.4585700000
   13      C      -3.6396370000    -5.3560260000     1.4053960000
   14      H      -4.4953040000    -4.7904960000     1.8209400000
   15      H      -3.4903360000    -6.2685130000     2.0231290000
   16      H      -3.8733140000    -5.6581870000     0.3615950000
   17      C       3.3149340000    -4.5469990000    -1.4800480000
   18      H       4.1718370000    -5.1075640000    -1.8992550000
   19      H       3.6014730000    -4.1314730000    -0.4901230000
   20      H       3.0689690000    -3.7120850000    -2.1715210000
   21      C      -0.9303080000    -2.3143260000     0.5376420000
   22      S       1.3347690000    -2.2954870000    -0.7858070000
   23      C       0.0000000000    -1.4351800000     0.0000000000
   24      H      -1.8366910000    -1.9932110000     1.0661340000
   25      H      -0.2499060000    -9.6159850000     0.0917810000
   26      C       0.0000000000     0.0000000000     0.0000000000
   27      S       0.2349460000     0.8682030000     1.5107320000
   28      C       0.6416300000     2.3901250000     0.7276290000
   29      C       0.2350360000     0.8772840000    -1.0646650000
   30      C       0.5930190000     2.2191430000    -0.6782870000
   31      C       0.2194520000     0.8127320000    -2.4861500000
   32      C       0.5466890000     2.0345010000    -3.1069160000
   33      S       0.8663450000     3.2403570000    -1.9657350000
   34      C       0.6170670000     2.2790950000    -4.5599720000
   35      O       0.3783420000     1.3766310000    -5.3502770000
   36      O       0.9523080000     3.5177250000    -5.0043750000
   37      F      -0.0651230000    -0.2644430000    -3.2462900000
   38      C       1.0549500000     3.8615770000    -6.3349760000
   39      H       1.3415160000     4.9287320000    -6.3702680000
   40      H       0.0935730000     3.7160850000    -6.8756090000
   41      H       1.8223030000     3.2522320000    -6.8618780000
   42      H       0.8798120000     3.2787800000     1.3215100000
 ----------------------------------------------------------------

   10   -2754.2933240362      8.59e-07  Convergence criterion met
 Total energy in the final basis set =    -2754.2933240362
        RIMP2         total energy =     -2759.3473552671 a.u.

                    Orbital Energies (a.u.)
 --------------------------------------------------------------

 Alpha MOs
 -- Occupied --
-92.0165 -91.9950 -91.9900 -91.9866 -26.3338 -20.6120 -20.5922 -20.5920
-20.5500 -11.4103 -11.3773 -11.3193 -11.3187 -11.3090 -11.2974 -11.2967
-11.2943 -11.2942 -11.2884 -11.2868 -11.2867 -11.2863 -11.2842 -11.2825
-11.2802 -11.2611 -11.2596 -11.2584 -11.2501  -9.0146  -8.9990  -8.9903
 -8.9865  -6.6953  -6.6947  -6.6942  -6.6803  -6.6796  -6.6782  -6.6713
 -6.6706  -6.6696  -6.6675  -6.6669  -6.6660  -1.6468  -1.4717  -1.4164
 -1.4147  -1.3670  -1.2337  -1.1962  -1.1685  -1.1420  -1.0843  -1.0524
 -1.0475  -1.0279  -1.0026  -0.9932  -0.9715  -0.9613  -0.9505  -0.9385
 -0.8960  -0.8693  -0.8507  -0.8066  -0.7906  -0.7881  -0.7747  -0.7664
 -0.7583  -0.7328  -0.7180  -0.7151  -0.7009  -0.6885  -0.6833  -0.6784
 -0.6712  -0.6609  -0.6592  -0.6528  -0.6302  -0.6202  -0.6171  -0.6064
 -0.6025  -0.5947  -0.5833  -0.5773  -0.5679  -0.5658  -0.5569  -0.5515
 -0.5338  -0.5265  -0.5248  -0.5162  -0.5141  -0.5084  -0.5013  -0.4961
 -0.4896  -0.4842  -0.4761  -0.4684  -0.4617  -0.4612  -0.4600  -0.4110
 -0.3996  -0.3869  -0.3576  -0.3499  -0.3186  -0.2871  -0.2561

          Ground-State Mulliken Net Atomic Charges

     Atom                 Charge (a.u.)
  ----------------------------------------
      1 C                    -0.187153
      2 C                    -0.254445
      3 S                    -0.022217
      4 C                    -0.013111
      5 H                     0.196590
      6 C                    -0.026663
      7 C                     0.243905
      8 C                     0.240075
      9 C                    -0.041201
     10 C                    -0.017459
     11 O                    -0.333122
     12 O                    -0.339952
     13 C                    -0.085571
     14 H                     0.122577
     15 H                     0.090985
     16 H                     0.094596
     17 C                    -0.087156
     18 H                     0.125181
     19 H                     0.094343
     20 H                     0.090703
     21 C                    -0.244304
     22 S                    -0.003554
     23 C                    -0.031072
     24 H                     0.196901
     25 H                     0.206652
     26 C                     0.009713
     27 S                     0.121611
     28 C                    -0.239183
     29 C                    -0.136511
     30 C                    -0.001269
     31 C                     0.395041
     32 C                    -0.153702
     33 S                     0.040139
     34 C                     0.461172
     35 O                    -0.449845
     36 O                    -0.297947
     37 F                    -0.210238
     38 C                    -0.054921
     39 H                     0.116537
     40 H                     0.084681
     41 H                     0.084430
     42 H                     0.214763
  ----------------------------------------
  Sum of atomic charges =     0.000000

                    Cartesian Multipole Moments
 -----------------------------------------------------------------
    Charge (ESU x 10^10)
                -0.0000
    Dipole Moment (Debye)
         X       0.9117      Y       1.4770      Z       2.9954
       Tot       3.4620
    Quadrupole Moments (Debye-Ang)
        XX    -177.4425     XY       5.0576     YY    -159.2751
        XZ      -9.9334     YZ      -9.1559     ZZ    -204.4026

 Total job time:  299.66s(wall), 9368.44s(cpu)
        *  Thank you very much for using Q-Chem.  Have a nice day.  *
