 Q-Chem 5.4, Q-Chem, Inc., Pleasanton, CA (2021)
 Q-Chem 5.4.0 for Intel X86 EM64T Linux

User input:
--------------------------------------------------------------
$molecule
0 1
C	0.208002	-8.519741	0.175432
C	-0.722164	-7.635967	-0.352097
S	1.563424	-7.651740	0.936458
C	-0.386833	-6.261894	-0.160388
H	-1.635031	-7.954738	-0.870905
C	0.849637	-6.079985	0.553685
C	1.357938	-4.798382	0.816372
C	-1.149702	-5.153542	-0.627524
C	-0.638941	-3.869626	-0.368399
C	0.597409	-3.688927	0.348912
O	-2.309260	-5.481075	-1.262667
O	2.523296	-4.479871	1.453338
C	3.036927	-5.356026	2.449320
H	3.824632	-4.790496	2.982577
H	3.497250	-6.268513	2.011155
H	2.249807	-5.658187	3.173591
C	-2.939226	-4.546999	-2.130793
H	-3.730721	-5.107564	-2.663289
H	-2.225196	-4.131473	-2.873906
H	-3.415077	-3.712085	-1.572045
C	0.930765	-2.314326	0.536849
S	-1.347913	-2.295487	-0.763041
C	-0.000000	-1.435180	-0.000000
H	1.841645	-1.993211	1.057554
H	0.204438	-9.615985	0.170535
C	0.000000	0.000000	0.000000
S	0.158383	0.885376	1.510732
C	0.430876	2.436951	0.727629
C	0.157682	0.894430	-1.064665
C	0.397351	2.262384	-0.678287
C	0.147783	0.828765	-2.486150
C	0.367291	2.074406	-3.106916
S	0.580633	3.303533	-1.965735
C	0.416083	2.324204	-4.559972
O	0.256921	1.404367	-5.350277
O	0.642094	3.587338	-5.004375
F	-0.041828	-0.269113	-3.246290
C	0.714377	3.938827	-6.334976
H	0.906844	5.026898	-6.370268
H	-0.230661	3.710099	-6.875609
H	1.531918	3.398681	-6.861878
H	0.590699	3.342984	1.321510
$end

$rem
JOBTYPE		SP
EXCHANGE	HF
CORRELATION	pRIMP2
BASIS		cc-pvtz
METHOD		rimp2
AUX_BASIS	rimp2-cc-pvtz
SOLVENT_METHOD	PCM
PURECART	11111
SYMMETRY	false
MEM_TOTAL	110000
SCF_CONVERGENCE = 6
THRESH=10
GUI = 2
$end

$solvent
dielectric 4.90
$end
--------------------------------------------------------------

             Standard Nuclear Orientation (Angstroms)
    I     Atom           X                Y                Z
 ----------------------------------------------------------------
    1      C       0.2080020000    -8.5197410000     0.1754320000
    2      C      -0.7221640000    -7.6359670000    -0.3520970000
    3      S       1.5634240000    -7.6517400000     0.9364580000
    4      C      -0.3868330000    -6.2618940000    -0.1603880000
    5      H      -1.6350310000    -7.9547380000    -0.8709050000
    6      C       0.8496370000    -6.0799850000     0.5536850000
    7      C       1.3579380000    -4.7983820000     0.8163720000
    8      C      -1.1497020000    -5.1535420000    -0.6275240000
    9      C      -0.6389410000    -3.8696260000    -0.3683990000
   10      C       0.5974090000    -3.6889270000     0.3489120000
   11      O      -2.3092600000    -5.4810750000    -1.2626670000
   12      O       2.5232960000    -4.4798710000     1.4533380000
   13      C       3.0369270000    -5.3560260000     2.4493200000
   14      H       3.8246320000    -4.7904960000     2.9825770000
   15      H       3.4972500000    -6.2685130000     2.0111550000
   16      H       2.2498070000    -5.6581870000     3.1735910000
   17      C      -2.9392260000    -4.5469990000    -2.1307930000
   18      H      -3.7307210000    -5.1075640000    -2.6632890000
   19      H      -2.2251960000    -4.1314730000    -2.8739060000
   20      H      -3.4150770000    -3.7120850000    -1.5720450000
   21      C       0.9307650000    -2.3143260000     0.5368490000
   22      S      -1.3479130000    -2.2954870000    -0.7630410000
   23      C       0.0000000000    -1.4351800000     0.0000000000
   24      H       1.8416450000    -1.9932110000     1.0575540000
   25      H       0.2044380000    -9.6159850000     0.1705350000
   26      C       0.0000000000     0.0000000000     0.0000000000
   27      S       0.1583830000     0.8853760000     1.5107320000
   28      C       0.4308760000     2.4369510000     0.7276290000
   29      C       0.1576820000     0.8944300000    -1.0646650000
   30      C       0.3973510000     2.2623840000    -0.6782870000
   31      C       0.1477830000     0.8287650000    -2.4861500000
   32      C       0.3672910000     2.0744060000    -3.1069160000
   33      S       0.5806330000     3.3035330000    -1.9657350000
   34      C       0.4160830000     2.3242040000    -4.5599720000
   35      O       0.2569210000     1.4043670000    -5.3502770000
   36      O       0.6420940000     3.5873380000    -5.0043750000
   37      F      -0.0418280000    -0.2691130000    -3.2462900000
   38      C       0.7143770000     3.9388270000    -6.3349760000
   39      H       0.9068440000     5.0268980000    -6.3702680000
   40      H      -0.2306610000     3.7100990000    -6.8756090000
   41      H       1.5319180000     3.3986810000    -6.8618780000
   42      H       0.5906990000     3.3429840000     1.3215100000
 ----------------------------------------------------------------

   10   -2754.2949774616      8.61e-07  Convergence criterion met
 Total energy in the final basis set =    -2754.2949774616
        RIMP2         total energy =     -2759.3484551533 a.u.

                    Orbital Energies (a.u.)
 --------------------------------------------------------------

 Alpha MOs
 -- Occupied --
-92.0168 -91.9946 -91.9891 -91.9866 -26.3338 -20.6118 -20.5920 -20.5920
-20.5498 -11.4101 -11.3772 -11.3191 -11.3188 -11.3103 -11.2969 -11.2965
-11.2950 -11.2933 -11.2883 -11.2866 -11.2865 -11.2863 -11.2842 -11.2826
-11.2802 -11.2613 -11.2596 -11.2595 -11.2501  -9.0149  -8.9986  -8.9895
 -8.9865  -6.6956  -6.6950  -6.6945  -6.6799  -6.6792  -6.6778  -6.6704
 -6.6697  -6.6688  -6.6675  -6.6668  -6.6660  -1.6469  -1.4716  -1.4162
 -1.4147  -1.3669  -1.2332  -1.1962  -1.1685  -1.1418  -1.0843  -1.0523
 -1.0474  -1.0277  -1.0024  -0.9934  -0.9713  -0.9612  -0.9503  -0.9385
 -0.8957  -0.8691  -0.8508  -0.8068  -0.7904  -0.7881  -0.7748  -0.7665
 -0.7584  -0.7328  -0.7180  -0.7151  -0.7010  -0.6884  -0.6834  -0.6783
 -0.6711  -0.6609  -0.6587  -0.6528  -0.6305  -0.6202  -0.6168  -0.6062
 -0.6015  -0.5945  -0.5852  -0.5754  -0.5705  -0.5674  -0.5557  -0.5521
 -0.5316  -0.5267  -0.5234  -0.5168  -0.5147  -0.5079  -0.5016  -0.4936
 -0.4900  -0.4841  -0.4780  -0.4673  -0.4616  -0.4608  -0.4604  -0.4116
 -0.3987  -0.3869  -0.3580  -0.3491  -0.3184  -0.2875  -0.2561

          Ground-State Mulliken Net Atomic Charges

     Atom                 Charge (a.u.)
  ----------------------------------------
      1 C                    -0.187328
      2 C                    -0.254081
      3 S                    -0.021838
      4 C                    -0.013761
      5 H                     0.196623
      6 C                    -0.028675
      7 C                     0.243993
      8 C                     0.242317
      9 C                    -0.048063
     10 C                    -0.031469
     11 O                    -0.333581
     12 O                    -0.340074
     13 C                    -0.085688
     14 H                     0.122556
     15 H                     0.091330
     16 H                     0.094056
     17 C                    -0.086968
     18 H                     0.124570
     19 H                     0.096357
     20 H                     0.089420
     21 C                    -0.220474
     22 S                     0.001633
     23 C                    -0.027005
     24 H                     0.200126
     25 H                     0.206618
     26 C                    -0.026873
     27 S                     0.115267
     28 C                    -0.238576
     29 C                    -0.090970
     30 C                    -0.007889
     31 C                     0.386469
     32 C                    -0.152872
     33 S                     0.038567
     34 C                     0.459659
     35 O                    -0.450494
     36 O                    -0.297867
     37 F                    -0.210416
     38 C                    -0.054957
     39 H                     0.116499
     40 H                     0.084421
     41 H                     0.084512
     42 H                     0.214926
  ----------------------------------------
  Sum of atomic charges =     0.000000

                    Cartesian Multipole Moments
 -----------------------------------------------------------------
    Charge (ESU x 10^10)
                -0.0000
    Dipole Moment (Debye)
         X       0.4204      Y       1.4854      Z       3.4246
       Tot       3.7564
    Quadrupole Moments (Debye-Ang)
        XX    -187.9463     XY       3.1347     YY    -158.9791
        XZ      10.8189     YZ     -11.8533     ZZ    -194.7122

 Total job time:  323.28s(wall), 9528.78s(cpu)
        *  Thank you very much for using Q-Chem.  Have a nice day.  *
