 Q-Chem 5.4, Q-Chem, Inc., Pleasanton, CA (2021)
 Q-Chem 5.4.0 for Intel X86 EM64T Linux

User input:
--------------------------------------------------------------
$molecule
0 1
C	-0.092419	-8.519741	-0.255929
C	0.449364	-7.635967	0.666007
S	-0.885736	-7.651740	-1.592708
C	0.254813	-6.261894	0.332317
H	0.980526	-7.954738	1.571741
C	-0.458965	-6.079985	-0.904324
C	-0.767823	-4.798382	-1.385968
C	0.681909	-5.153542	1.118303
C	0.369139	-3.869626	0.638514
C	-0.342916	-3.688927	-0.600871
O	1.368544	-5.481075	2.248132
O	-1.458570	-4.479871	-2.520275
C	-1.405396	-5.356026	-3.639637
H	-1.820940	-4.790496	-4.495304
H	-2.023129	-6.268513	-3.490336
H	-0.361595	-5.658187	-3.873314
C	1.480048	-4.546999	3.314934
H	1.899255	-5.107564	4.171837
H	0.490123	-4.131473	3.601473
H	2.171521	-3.712085	3.068969
C	-0.537642	-2.314326	-0.930308
S	0.785807	-2.295487	1.334769
C	-0.000000	-1.435180	-0.000000
H	-1.066134	-1.993211	-1.836691
H	-0.091781	-9.615985	-0.249906
C	0.000000	0.000000	0.000000
S	0.158383	0.885376	1.510732
C	0.430876	2.436951	0.727629
C	0.157682	0.894430	-1.064665
C	0.397351	2.262384	-0.678287
C	0.147783	0.828765	-2.486150
C	0.367291	2.074406	-3.106916
S	0.580633	3.303533	-1.965735
C	0.416083	2.324204	-4.559972
O	0.256921	1.404367	-5.350277
O	0.642094	3.587338	-5.004375
F	-0.041828	-0.269113	-3.246290
C	0.714377	3.938827	-6.334976
H	0.906844	5.026898	-6.370268
H	-0.230661	3.710099	-6.875609
H	1.531918	3.398681	-6.861878
H	0.590699	3.342984	1.321510
$end

$rem
JOBTYPE		SP
EXCHANGE	HF
CORRELATION	pRIMP2
BASIS		cc-pvtz
METHOD		rimp2
AUX_BASIS	rimp2-cc-pvtz
SOLVENT_METHOD	PCM
PURECART	11111
SYMMETRY	false
MEM_TOTAL	110000
SCF_CONVERGENCE = 6
THRESH=10
GUI = 2
$end

$solvent
dielectric 4.90
$end
--------------------------------------------------------------

             Standard Nuclear Orientation (Angstroms)
    I     Atom           X                Y                Z
 ----------------------------------------------------------------
    1      C      -0.0924190000    -8.5197410000    -0.2559290000
    2      C       0.4493640000    -7.6359670000     0.6660070000
    3      S      -0.8857360000    -7.6517400000    -1.5927080000
    4      C       0.2548130000    -6.2618940000     0.3323170000
    5      H       0.9805260000    -7.9547380000     1.5717410000
    6      C      -0.4589650000    -6.0799850000    -0.9043240000
    7      C      -0.7678230000    -4.7983820000    -1.3859680000
    8      C       0.6819090000    -5.1535420000     1.1183030000
    9      C       0.3691390000    -3.8696260000     0.6385140000
   10      C      -0.3429160000    -3.6889270000    -0.6008710000
   11      O       1.3685440000    -5.4810750000     2.2481320000
   12      O      -1.4585700000    -4.4798710000    -2.5202750000
   13      C      -1.4053960000    -5.3560260000    -3.6396370000
   14      H      -1.8209400000    -4.7904960000    -4.4953040000
   15      H      -2.0231290000    -6.2685130000    -3.4903360000
   16      H      -0.3615950000    -5.6581870000    -3.8733140000
   17      C       1.4800480000    -4.5469990000     3.3149340000
   18      H       1.8992550000    -5.1075640000     4.1718370000
   19      H       0.4901230000    -4.1314730000     3.6014730000
   20      H       2.1715210000    -3.7120850000     3.0689690000
   21      C      -0.5376420000    -2.3143260000    -0.9303080000
   22      S       0.7858070000    -2.2954870000     1.3347690000
   23      C       0.0000000000    -1.4351800000     0.0000000000
   24      H      -1.0661340000    -1.9932110000    -1.8366910000
   25      H      -0.0917810000    -9.6159850000    -0.2499060000
   26      C       0.0000000000     0.0000000000     0.0000000000
   27      S       0.1583830000     0.8853760000     1.5107320000
   28      C       0.4308760000     2.4369510000     0.7276290000
   29      C       0.1576820000     0.8944300000    -1.0646650000
   30      C       0.3973510000     2.2623840000    -0.6782870000
   31      C       0.1477830000     0.8287650000    -2.4861500000
   32      C       0.3672910000     2.0744060000    -3.1069160000
   33      S       0.5806330000     3.3035330000    -1.9657350000
   34      C       0.4160830000     2.3242040000    -4.5599720000
   35      O       0.2569210000     1.4043670000    -5.3502770000
   36      O       0.6420940000     3.5873380000    -5.0043750000
   37      F      -0.0418280000    -0.2691130000    -3.2462900000
   38      C       0.7143770000     3.9388270000    -6.3349760000
   39      H       0.9068440000     5.0268980000    -6.3702680000
   40      H      -0.2306610000     3.7100990000    -6.8756090000
   41      H       1.5319180000     3.3986810000    -6.8618780000
   42      H       0.5906990000     3.3429840000     1.3215100000
 ----------------------------------------------------------------

   10   -2754.2966510582      7.83e-07  Convergence criterion met
 Total energy in the final basis set =    -2754.2966510582
        RIMP2         total energy =     -2759.3512734567 a.u.

                    Orbital Energies (a.u.)
 --------------------------------------------------------------

 Alpha MOs
 -- Occupied --
-92.0161 -91.9948 -91.9919 -91.9869 -26.3359 -20.6118 -20.5931 -20.5915
-20.5495 -11.4099 -11.3780 -11.3201 -11.3190 -11.3133 -11.2973 -11.2964
-11.2961 -11.2926 -11.2883 -11.2879 -11.2876 -11.2855 -11.2847 -11.2816
-11.2805 -11.2621 -11.2602 -11.2581 -11.2504  -9.0146  -8.9988  -8.9924
 -8.9868  -6.6953  -6.6948  -6.6943  -6.6801  -6.6794  -6.6781  -6.6733
 -6.6726  -6.6717  -6.6678  -6.6671  -6.6663  -1.6492  -1.4715  -1.4172
 -1.4143  -1.3668  -1.2337  -1.1972  -1.1696  -1.1424  -1.0848  -1.0529
 -1.0480  -1.0279  -1.0036  -0.9939  -0.9721  -0.9614  -0.9508  -0.9384
 -0.8970  -0.8695  -0.8516  -0.8050  -0.7949  -0.7885  -0.7723  -0.7698
 -0.7581  -0.7330  -0.7197  -0.7171  -0.7018  -0.6892  -0.6840  -0.6783
 -0.6719  -0.6619  -0.6596  -0.6527  -0.6299  -0.6203  -0.6166  -0.6062
 -0.6009  -0.5942  -0.5880  -0.5771  -0.5690  -0.5604  -0.5552  -0.5489
 -0.5376  -0.5268  -0.5226  -0.5191  -0.5173  -0.5092  -0.5046  -0.4958
 -0.4867  -0.4843  -0.4791  -0.4693  -0.4621  -0.4611  -0.4598  -0.4208
 -0.3980  -0.3864  -0.3590  -0.3506  -0.3242  -0.2856  -0.2496

          Ground-State Mulliken Net Atomic Charges

     Atom                 Charge (a.u.)
  ----------------------------------------
      1 C                    -0.186679
      2 C                    -0.254959
      3 S                    -0.020255
      4 C                    -0.012412
      5 H                     0.196448
      6 C                    -0.028791
      7 C                     0.247682
      8 C                     0.239483
      9 C                    -0.042671
     10 C                    -0.031504
     11 O                    -0.332988
     12 O                    -0.339018
     13 C                    -0.085770
     14 H                     0.123945
     15 H                     0.090851
     16 H                     0.094331
     17 C                    -0.087853
     18 H                     0.125594
     19 H                     0.094814
     20 H                     0.089747
     21 C                    -0.215675
     22 S                    -0.023972
     23 C                    -0.036788
     24 H                     0.195601
     25 H                     0.206801
     26 C                    -0.001142
     27 S                     0.090523
     28 C                    -0.235383
     29 C                    -0.057646
     30 C                    -0.018033
     31 C                     0.376926
     32 C                    -0.142033
     33 S                     0.037885
     34 C                     0.458911
     35 O                    -0.451570
     36 O                    -0.298025
     37 F                    -0.213208
     38 C                    -0.054943
     39 H                     0.116567
     40 H                     0.084351
     41 H                     0.084402
     42 H                     0.216454
  ----------------------------------------
  Sum of atomic charges =     0.000000

                    Cartesian Multipole Moments
 -----------------------------------------------------------------
    Charge (ESU x 10^10)
                -0.0000
    Dipole Moment (Debye)
         X       0.8277      Y       1.2280      Z       3.1368
       Tot       3.4688
    Quadrupole Moments (Debye-Ang)
        XX    -199.3180     XY       1.6955     YY    -157.6931
        XZ       5.1691     YZ      -9.0733     ZZ    -183.4348

 Total job time:  312.68s(wall), 9187.25s(cpu)
        *  Thank you very much for using Q-Chem.  Have a nice day.  *
