 Q-Chem 5.4, Q-Chem, Inc., Pleasanton, CA (2021)
 Q-Chem 5.4.0 for Intel X86 EM64T Linux

User input:
--------------------------------------------------------------
$molecule
0 1
C	0.208886	-8.519741	-0.174379
C	-0.472151	-7.635967	0.650052
S	1.193717	-7.651740	-1.377058
C	-0.225125	-6.261894	0.353105
H	-1.141594	-7.954738	1.458961
C	0.692811	-6.079985	-0.740583
C	1.039773	-4.798382	-1.195546
C	-0.817634	-5.153542	1.023267
C	-0.473754	-3.869626	0.565262
C	0.447350	-3.688927	-0.527745
O	-1.644483	-5.481075	2.054917
O	1.869424	-4.479871	-2.232592
C	2.939466	-5.356026	-2.565470
H	3.601405	-4.790496	-3.248608
H	2.587892	-6.268513	-3.094885
H	3.516052	-5.658187	-1.664539
C	-2.608813	-4.546999	2.524564
H	-3.270661	-5.107564	3.211568
H	-3.216646	-4.131473	1.692342
H	-2.141184	-3.712085	3.090211
C	0.690319	-2.314326	-0.823402
S	-0.985511	-2.295487	1.194935
C	0.000000	-1.435180	0.000000
H	1.361286	-1.993211	-1.630024
H	0.203444	-9.615985	-0.171719
C	0.000000	0.000000	0.000000
S	0.780044	0.447780	1.510732
C	2.143774	1.236372	0.727629
C	0.786529	0.454137	-1.064665
C	1.988499	1.149844	-0.678287
C	0.729864	0.419512	-2.486150
C	1.825177	1.052041	-3.106916
S	2.903877	1.678680	-1.965735
C	2.047896	1.175232	-4.559972
O	1.240953	0.705897	-5.350277
O	3.160791	1.814024	-5.004375
F	-0.233039	-0.140940	-3.246290
C	3.476510	1.984585	-6.334976
H	4.433735	2.536545	-6.370268
H	2.693835	2.561503	-6.875609
H	3.588239	1.011113	-6.861878
H	2.940569	1.696327	1.321510
$end

$rem
JOBTYPE		SP
EXCHANGE	HF
CORRELATION	pRIMP2
BASIS		cc-pvtz
METHOD		rimp2
AUX_BASIS	rimp2-cc-pvtz
SOLVENT_METHOD	PCM
PURECART	11111
SYMMETRY	false
MEM_TOTAL	110000
SCF_CONVERGENCE = 6
THRESH=10
GUI = 2
$end

$solvent
dielectric 4.90
$end
--------------------------------------------------------------

             Standard Nuclear Orientation (Angstroms)
    I     Atom           X                Y                Z
 ----------------------------------------------------------------
    1      C       0.2088860000    -8.5197410000    -0.1743790000
    2      C      -0.4721510000    -7.6359670000     0.6500520000
    3      S       1.1937170000    -7.6517400000    -1.3770580000
    4      C      -0.2251250000    -6.2618940000     0.3531050000
    5      H      -1.1415940000    -7.9547380000     1.4589610000
    6      C       0.6928110000    -6.0799850000    -0.7405830000
    7      C       1.0397730000    -4.7983820000    -1.1955460000
    8      C      -0.8176340000    -5.1535420000     1.0232670000
    9      C      -0.4737540000    -3.8696260000     0.5652620000
   10      C       0.4473500000    -3.6889270000    -0.5277450000
   11      O      -1.6444830000    -5.4810750000     2.0549170000
   12      O       1.8694240000    -4.4798710000    -2.2325920000
   13      C       2.9394660000    -5.3560260000    -2.5654700000
   14      H       3.6014050000    -4.7904960000    -3.2486080000
   15      H       2.5878920000    -6.2685130000    -3.0948850000
   16      H       3.5160520000    -5.6581870000    -1.6645390000
   17      C      -2.6088130000    -4.5469990000     2.5245640000
   18      H      -3.2706610000    -5.1075640000     3.2115680000
   19      H      -3.2166460000    -4.1314730000     1.6923420000
   20      H      -2.1411840000    -3.7120850000     3.0902110000
   21      C       0.6903190000    -2.3143260000    -0.8234020000
   22      S      -0.9855110000    -2.2954870000     1.1949350000
   23      C       0.0000000000    -1.4351800000     0.0000000000
   24      H       1.3612860000    -1.9932110000    -1.6300240000
   25      H       0.2034440000    -9.6159850000    -0.1717190000
   26      C       0.0000000000     0.0000000000     0.0000000000
   27      S       0.7800440000     0.4477800000     1.5107320000
   28      C       2.1437740000     1.2363720000     0.7276290000
   29      C       0.7865290000     0.4541370000    -1.0646650000
   30      C       1.9884990000     1.1498440000    -0.6782870000
   31      C       0.7298640000     0.4195120000    -2.4861500000
   32      C       1.8251770000     1.0520410000    -3.1069160000
   33      S       2.9038770000     1.6786800000    -1.9657350000
   34      C       2.0478960000     1.1752320000    -4.5599720000
   35      O       1.2409530000     0.7058970000    -5.3502770000
   36      O       3.1607910000     1.8140240000    -5.0043750000
   37      F      -0.2330390000    -0.1409400000    -3.2462900000
   38      C       3.4765100000     1.9845850000    -6.3349760000
   39      H       4.4337350000     2.5365450000    -6.3702680000
   40      H       2.6938350000     2.5615030000    -6.8756090000
   41      H       3.5882390000     1.0111130000    -6.8618780000
   42      H       2.9405690000     1.6963270000     1.3215100000
 ----------------------------------------------------------------

   11   -2754.2357995877      6.45e-07  Convergence criterion met
 Total energy in the final basis set =    -2754.2357995877
        RIMP2         total energy =     -2759.3073067769 a.u.

                    Orbital Energies (a.u.)
 --------------------------------------------------------------

 Alpha MOs
 -- Occupied --
-92.0186 -92.0074 -91.9832 -91.9806 -26.3348 -20.6163 -20.5903 -20.5873
-20.5574 -11.4168 -11.3775 -11.3290 -11.3161 -11.3127 -11.3107 -11.3029
-11.2962 -11.2961 -11.2907 -11.2855 -11.2840 -11.2808 -11.2790 -11.2761
-11.2751 -11.2569 -11.2528 -11.2475 -11.2408  -9.0176  -9.0108  -8.9832
 -8.9818  -6.6981  -6.6972  -6.6971  -6.6920  -6.6914  -6.6901  -6.6642
 -6.6636  -6.6628  -6.6627  -6.6621  -6.6611  -1.6478  -1.4765  -1.4142
 -1.4102  -1.3727  -1.2457  -1.1925  -1.1709  -1.1449  -1.0850  -1.0528
 -1.0473  -1.0341  -0.9979  -0.9926  -0.9766  -0.9580  -0.9482  -0.9389
 -0.8932  -0.8765  -0.8430  -0.8027  -0.7981  -0.7860  -0.7763  -0.7689
 -0.7530  -0.7304  -0.7201  -0.7159  -0.6993  -0.6936  -0.6821  -0.6792
 -0.6777  -0.6623  -0.6567  -0.6499  -0.6269  -0.6173  -0.6156  -0.6122
 -0.6092  -0.6024  -0.5796  -0.5738  -0.5674  -0.5606  -0.5567  -0.5455
 -0.5336  -0.5254  -0.5233  -0.5165  -0.5132  -0.5069  -0.5057  -0.4962
 -0.4895  -0.4843  -0.4688  -0.4673  -0.4644  -0.4619  -0.4569  -0.4126
 -0.3926  -0.3825  -0.3566  -0.3516  -0.3226  -0.2890  -0.2487

          Ground-State Mulliken Net Atomic Charges

     Atom                 Charge (a.u.)
  ----------------------------------------
      1 C                    -0.197545
      2 C                    -0.253858
      3 S                    -0.028144
      4 C                    -0.021673
      5 H                     0.195208
      6 C                    -0.023685
      7 C                     0.235156
      8 C                     0.246737
      9 C                    -0.044211
     10 C                    -0.026988
     11 O                    -0.334016
     12 O                    -0.342292
     13 C                    -0.085716
     14 H                     0.121218
     15 H                     0.090812
     16 H                     0.092229
     17 C                    -0.086853
     18 H                     0.124854
     19 H                     0.094914
     20 H                     0.088875
     21 C                    -0.267485
     22 S                    -0.052413
     23 C                     0.042610
     24 H                     0.183928
     25 H                     0.204719
     26 C                    -0.184874
     27 S                     0.145198
     28 C                    -0.144068
     29 C                    -0.025202
     30 C                    -0.027900
     31 C                     0.357962
     32 C                    -0.125424
     33 S                     0.077464
     34 C                     0.458809
     35 O                    -0.437630
     36 O                    -0.296815
     37 F                    -0.211393
     38 C                    -0.054679
     39 H                     0.117517
     40 H                     0.085982
     41 H                     0.085836
     42 H                     0.222834
  ----------------------------------------
  Sum of atomic charges =     0.000000

                    Cartesian Multipole Moments
 -----------------------------------------------------------------
    Charge (ESU x 10^10)
                 0.0000
    Dipole Moment (Debye)
         X       5.2217      Y       2.8665      Z       3.0825
       Tot       6.7071
    Quadrupole Moments (Debye-Ang)
        XX    -170.0861     XY       8.9150     YY    -179.9160
        XZ     -22.4177     YZ      -7.6755     ZZ    -193.7424

 Total job time:  304.62s(wall), 9965.73s(cpu)
        *  Thank you very much for using Q-Chem.  Have a nice day.  *
