 Q-Chem 5.4, Q-Chem, Inc., Pleasanton, CA (2021)
 Q-Chem 5.4.0 for Intel X86 EM64T Linux

User input:
--------------------------------------------------------------
$molecule
0 1
C	-0.000687	-8.519741	0.272104
C	-0.194476	-7.635967	-0.779533
S	0.287581	-7.651740	1.799596
C	-0.125787	-6.261894	-0.399427
H	-0.383826	-7.954738	-1.812314
C	0.121989	-6.079985	1.006762
C	0.247488	-4.798382	1.564994
C	-0.258303	-5.153542	-1.284087
C	-0.128493	-3.869626	-0.726260
C	0.116725	-3.688927	0.681918
O	-0.517104	-5.481075	-2.580622
O	0.508622	-4.479871	2.867144
C	0.075811	-5.356026	3.900814
H	0.173640	-4.790496	4.847002
H	0.707354	-6.268513	3.971794
H	-0.984963	-5.658187	3.763397
C	-0.257016	-4.546999	-3.621225
H	-0.357864	-5.107564	-4.569828
H	0.771211	-4.131473	-3.551910
H	-0.990913	-3.712085	-3.626592
C	0.187034	-2.314326	1.058088
S	-0.281899	-2.295487	-1.523035
C	-0.000000	-1.435180	-0.000000
H	0.373653	-1.993211	2.090565
H	0.000773	-9.615985	0.266226
C	0.000000	0.000000	0.000000
S	0.382139	0.814215	1.510732
C	1.046923	2.242395	0.727629
C	0.383804	0.823142	-1.064665
C	0.969360	2.082453	-0.678287
C	0.357247	0.762277	-2.486150
C	0.891671	1.908660	-3.106916
S	1.415865	3.040689	-1.965735
C	1.003453	2.137318	-4.559972
O	0.611644	1.290019	-5.350277
O	1.548687	3.298916	-5.004375
F	-0.110054	-0.249117	-3.246290
C	1.709479	3.619721	-6.334976
H	2.177001	4.620902	-6.370268
H	0.737443	3.643380	-6.875609
H	2.359363	2.886384	-6.861878
H	1.435800	3.076190	1.321510
$end

$rem
JOBTYPE		SP
EXCHANGE	HF
CORRELATION	pRIMP2
BASIS		cc-pvtz
METHOD		rimp2
AUX_BASIS	rimp2-cc-pvtz
SOLVENT_METHOD	PCM
PURECART	11111
SYMMETRY	false
MEM_TOTAL	110000
SCF_CONVERGENCE = 6
THRESH=10
GUI = 2
$end

$solvent
dielectric 4.90
$end
--------------------------------------------------------------

             Standard Nuclear Orientation (Angstroms)
    I     Atom           X                Y                Z
 ----------------------------------------------------------------
    1      C      -0.0006870000    -8.5197410000     0.2721040000
    2      C      -0.1944760000    -7.6359670000    -0.7795330000
    3      S       0.2875810000    -7.6517400000     1.7995960000
    4      C      -0.1257870000    -6.2618940000    -0.3994270000
    5      H      -0.3838260000    -7.9547380000    -1.8123140000
    6      C       0.1219890000    -6.0799850000     1.0067620000
    7      C       0.2474880000    -4.7983820000     1.5649940000
    8      C      -0.2583030000    -5.1535420000    -1.2840870000
    9      C      -0.1284930000    -3.8696260000    -0.7262600000
   10      C       0.1167250000    -3.6889270000     0.6819180000
   11      O      -0.5171040000    -5.4810750000    -2.5806220000
   12      O       0.5086220000    -4.4798710000     2.8671440000
   13      C       0.0758110000    -5.3560260000     3.9008140000
   14      H       0.1736400000    -4.7904960000     4.8470020000
   15      H       0.7073540000    -6.2685130000     3.9717940000
   16      H      -0.9849630000    -5.6581870000     3.7633970000
   17      C      -0.2570160000    -4.5469990000    -3.6212250000
   18      H      -0.3578640000    -5.1075640000    -4.5698280000
   19      H       0.7712110000    -4.1314730000    -3.5519100000
   20      H      -0.9909130000    -3.7120850000    -3.6265920000
   21      C       0.1870340000    -2.3143260000     1.0580880000
   22      S      -0.2818990000    -2.2954870000    -1.5230350000
   23      C       0.0000000000    -1.4351800000     0.0000000000
   24      H       0.3736530000    -1.9932110000     2.0905650000
   25      H       0.0007730000    -9.6159850000     0.2662260000
   26      C       0.0000000000     0.0000000000     0.0000000000
   27      S       0.3821390000     0.8142150000     1.5107320000
   28      C       1.0469230000     2.2423950000     0.7276290000
   29      C       0.3838040000     0.8231420000    -1.0646650000
   30      C       0.9693600000     2.0824530000    -0.6782870000
   31      C       0.3572470000     0.7622770000    -2.4861500000
   32      C       0.8916710000     1.9086600000    -3.1069160000
   33      S       1.4158650000     3.0406890000    -1.9657350000
   34      C       1.0034530000     2.1373180000    -4.5599720000
   35      O       0.6116440000     1.2900190000    -5.3502770000
   36      O       1.5486870000     3.2989160000    -5.0043750000
   37      F      -0.1100540000    -0.2491170000    -3.2462900000
   38      C       1.7094790000     3.6197210000    -6.3349760000
   39      H       2.1770010000     4.6209020000    -6.3702680000
   40      H       0.7374430000     3.6433800000    -6.8756090000
   41      H       2.3593630000     2.8863840000    -6.8618780000
   42      H       1.4358000000     3.0761900000     1.3215100000
 ----------------------------------------------------------------

   10   -2754.2815211497      8.22e-07  Convergence criterion met
 Total energy in the final basis set =    -2754.2815211497
        RIMP2         total energy =     -2759.3419323567 a.u.

                    Orbital Energies (a.u.)
 --------------------------------------------------------------

 Alpha MOs
 -- Occupied --
-92.0148 -91.9971 -91.9855 -91.9840 -26.3362 -20.6130 -20.5908 -20.5908
-20.5515 -11.4117 -11.3789 -11.3178 -11.3162 -11.3089 -11.3003 -11.2994
-11.2981 -11.2973 -11.2890 -11.2859 -11.2856 -11.2851 -11.2830 -11.2826
-11.2786 -11.2604 -11.2574 -11.2547 -11.2492  -9.0134  -9.0011  -8.9855
 -8.9851  -6.6942  -6.6936  -6.6931  -6.6823  -6.6816  -6.6803  -6.6664
 -6.6659  -6.6658  -6.6653  -6.6650  -6.6641  -1.6520  -1.4728  -1.4150
 -1.4135  -1.3683  -1.2362  -1.1951  -1.1688  -1.1427  -1.0842  -1.0513
 -1.0488  -1.0299  -1.0011  -0.9934  -0.9734  -0.9597  -0.9492  -0.9383
 -0.8949  -0.8712  -0.8506  -0.8101  -0.7960  -0.7870  -0.7751  -0.7632
 -0.7572  -0.7315  -0.7216  -0.7190  -0.6998  -0.6894  -0.6833  -0.6794
 -0.6749  -0.6620  -0.6578  -0.6517  -0.6278  -0.6188  -0.6155  -0.6076
 -0.6028  -0.5979  -0.5884  -0.5699  -0.5680  -0.5657  -0.5578  -0.5526
 -0.5305  -0.5262  -0.5218  -0.5195  -0.5140  -0.5086  -0.5021  -0.4945
 -0.4856  -0.4836  -0.4790  -0.4637  -0.4622  -0.4620  -0.4561  -0.4249
 -0.3945  -0.3857  -0.3596  -0.3503  -0.3245  -0.2840  -0.2461

          Ground-State Mulliken Net Atomic Charges

     Atom                 Charge (a.u.)
  ----------------------------------------
      1 C                    -0.190529
      2 C                    -0.253995
      3 S                    -0.024507
      4 C                    -0.015394
      5 H                     0.196376
      6 C                    -0.027816
      7 C                     0.238264
      8 C                     0.242787
      9 C                    -0.042060
     10 C                    -0.023163
     11 O                    -0.333893
     12 O                    -0.341013
     13 C                    -0.085576
     14 H                     0.121952
     15 H                     0.091016
     16 H                     0.093905
     17 C                    -0.087887
     18 H                     0.125021
     19 H                     0.094639
     20 H                     0.090806
     21 C                    -0.246935
     22 S                    -0.023211
     23 C                    -0.016886
     24 H                     0.187835
     25 H                     0.206105
     26 C                     0.020339
     27 S                     0.094874
     28 C                    -0.214043
     29 C                    -0.074820
     30 C                    -0.032541
     31 C                     0.358825
     32 C                    -0.126652
     33 S                     0.046825
     34 C                     0.456549
     35 O                    -0.448662
     36 O                    -0.297638
     37 F                    -0.208285
     38 C                    -0.054769
     39 H                     0.116932
     40 H                     0.084694
     41 H                     0.084619
     42 H                     0.217909
  ----------------------------------------
  Sum of atomic charges =     0.000000

                    Cartesian Multipole Moments
 -----------------------------------------------------------------
    Charge (ESU x 10^10)
                -0.0000
    Dipole Moment (Debye)
         X       1.3919      Y       2.1278      Z       2.7628
       Tot       3.7547
    Quadrupole Moments (Debye-Ang)
        XX    -198.8274     XY       7.9127     YY    -164.2907
        XZ      -6.2176     YZ      -9.8940     ZZ    -180.3681

 Total job time:  306.30s(wall), 9914.19s(cpu)
        *  Thank you very much for using Q-Chem.  Have a nice day.  *
