 Q-Chem 5.4, Q-Chem, Inc., Pleasanton, CA (2021)
 Q-Chem 5.4.0 for Intel X86 EM64T Linux

User input:
--------------------------------------------------------------
$molecule
0 1
C	-0.272104	-8.519741	-0.000687
C	0.779533	-7.635967	-0.194476
S	-1.799596	-7.651740	0.287581
C	0.399427	-6.261894	-0.125787
H	1.812314	-7.954738	-0.383826
C	-1.006762	-6.079985	0.121989
C	-1.564994	-4.798382	0.247488
C	1.284087	-5.153542	-0.258303
C	0.726260	-3.869626	-0.128493
C	-0.681918	-3.688927	0.116725
O	2.580622	-5.481075	-0.517104
O	-2.867144	-4.479871	0.508622
C	-3.900814	-5.356026	0.075811
H	-4.847002	-4.790496	0.173640
H	-3.971794	-6.268513	0.707354
H	-3.763397	-5.658187	-0.984963
C	3.621225	-4.546999	-0.257016
H	4.569828	-5.107564	-0.357864
H	3.551910	-4.131473	0.771211
H	3.626592	-3.712085	-0.990913
C	-1.058088	-2.314326	0.187034
S	1.523035	-2.295487	-0.281899
C	-0.000000	-1.435180	-0.000000
H	-2.090565	-1.993211	0.373653
H	-0.266226	-9.615985	0.000773
C	0.000000	0.000000	0.000000
S	0.382139	0.814215	1.510732
C	1.046923	2.242395	0.727629
C	0.383804	0.823142	-1.064665
C	0.969360	2.082453	-0.678287
C	0.357247	0.762277	-2.486150
C	0.891671	1.908660	-3.106916
S	1.415865	3.040689	-1.965735
C	1.003453	2.137318	-4.559972
O	0.611644	1.290019	-5.350277
O	1.548687	3.298916	-5.004375
F	-0.110054	-0.249117	-3.246290
C	1.709479	3.619721	-6.334976
H	2.177001	4.620902	-6.370268
H	0.737443	3.643380	-6.875609
H	2.359363	2.886384	-6.861878
H	1.435800	3.076190	1.321510
$end

$rem
JOBTYPE		SP
EXCHANGE	HF
CORRELATION	pRIMP2
BASIS		cc-pvtz
METHOD		rimp2
AUX_BASIS	rimp2-cc-pvtz
SOLVENT_METHOD	PCM
PURECART	11111
SYMMETRY	false
MEM_TOTAL	110000
SCF_CONVERGENCE = 6
THRESH=10
GUI = 2
$end

$solvent
dielectric 4.90
$end
--------------------------------------------------------------

             Standard Nuclear Orientation (Angstroms)
    I     Atom           X                Y                Z
 ----------------------------------------------------------------
    1      C      -0.2721040000    -8.5197410000    -0.0006870000
    2      C       0.7795330000    -7.6359670000    -0.1944760000
    3      S      -1.7995960000    -7.6517400000     0.2875810000
    4      C       0.3994270000    -6.2618940000    -0.1257870000
    5      H       1.8123140000    -7.9547380000    -0.3838260000
    6      C      -1.0067620000    -6.0799850000     0.1219890000
    7      C      -1.5649940000    -4.7983820000     0.2474880000
    8      C       1.2840870000    -5.1535420000    -0.2583030000
    9      C       0.7262600000    -3.8696260000    -0.1284930000
   10      C      -0.6819180000    -3.6889270000     0.1167250000
   11      O       2.5806220000    -5.4810750000    -0.5171040000
   12      O      -2.8671440000    -4.4798710000     0.5086220000
   13      C      -3.9008140000    -5.3560260000     0.0758110000
   14      H      -4.8470020000    -4.7904960000     0.1736400000
   15      H      -3.9717940000    -6.2685130000     0.7073540000
   16      H      -3.7633970000    -5.6581870000    -0.9849630000
   17      C       3.6212250000    -4.5469990000    -0.2570160000
   18      H       4.5698280000    -5.1075640000    -0.3578640000
   19      H       3.5519100000    -4.1314730000     0.7712110000
   20      H       3.6265920000    -3.7120850000    -0.9909130000
   21      C      -1.0580880000    -2.3143260000     0.1870340000
   22      S       1.5230350000    -2.2954870000    -0.2818990000
   23      C       0.0000000000    -1.4351800000     0.0000000000
   24      H      -2.0905650000    -1.9932110000     0.3736530000
   25      H      -0.2662260000    -9.6159850000     0.0007730000
   26      C       0.0000000000     0.0000000000     0.0000000000
   27      S       0.3821390000     0.8142150000     1.5107320000
   28      C       1.0469230000     2.2423950000     0.7276290000
   29      C       0.3838040000     0.8231420000    -1.0646650000
   30      C       0.9693600000     2.0824530000    -0.6782870000
   31      C       0.3572470000     0.7622770000    -2.4861500000
   32      C       0.8916710000     1.9086600000    -3.1069160000
   33      S       1.4158650000     3.0406890000    -1.9657350000
   34      C       1.0034530000     2.1373180000    -4.5599720000
   35      O       0.6116440000     1.2900190000    -5.3502770000
   36      O       1.5486870000     3.2989160000    -5.0043750000
   37      F      -0.1100540000    -0.2491170000    -3.2462900000
   38      C       1.7094790000     3.6197210000    -6.3349760000
   39      H       2.1770010000     4.6209020000    -6.3702680000
   40      H       0.7374430000     3.6433800000    -6.8756090000
   41      H       2.3593630000     2.8863840000    -6.8618780000
   42      H       1.4358000000     3.0761900000     1.3215100000
 ----------------------------------------------------------------

   10   -2754.2852392345      8.64e-07  Convergence criterion met
 Total energy in the final basis set =    -2754.2852392345
        RIMP2         total energy =     -2759.3411538103 a.u.

                    Orbital Energies (a.u.)
 --------------------------------------------------------------

 Alpha MOs
 -- Occupied --
-92.0159 -91.9961 -91.9889 -91.9862 -26.3338 -20.6125 -20.5921 -20.5914
-20.5510 -11.4111 -11.3769 -11.3188 -11.3180 -11.3030 -11.2995 -11.2986
-11.2964 -11.2916 -11.2887 -11.2869 -11.2859 -11.2859 -11.2841 -11.2837
-11.2798 -11.2598 -11.2591 -11.2566 -11.2498  -9.0141  -9.0000  -8.9892
 -8.9862  -6.6948  -6.6942  -6.6938  -6.6813  -6.6806  -6.6793  -6.6702
 -6.6695  -6.6685  -6.6671  -6.6665  -6.6657  -1.6466  -1.4724  -1.4162
 -1.4141  -1.3678  -1.2344  -1.1953  -1.1681  -1.1422  -1.0835  -1.0517
 -1.0478  -1.0282  -1.0018  -0.9926  -0.9717  -0.9610  -0.9503  -0.9382
 -0.8955  -0.8699  -0.8493  -0.8051  -0.7906  -0.7879  -0.7740  -0.7678
 -0.7575  -0.7323  -0.7179  -0.7150  -0.7007  -0.6891  -0.6826  -0.6789
 -0.6717  -0.6604  -0.6589  -0.6524  -0.6302  -0.6198  -0.6170  -0.6070
 -0.6028  -0.5958  -0.5819  -0.5789  -0.5664  -0.5650  -0.5559  -0.5492
 -0.5354  -0.5267  -0.5239  -0.5157  -0.5138  -0.5082  -0.5012  -0.4944
 -0.4903  -0.4847  -0.4737  -0.4684  -0.4621  -0.4616  -0.4606  -0.4045
 -0.4016  -0.3866  -0.3563  -0.3499  -0.3135  -0.2902  -0.2589

          Ground-State Mulliken Net Atomic Charges

     Atom                 Charge (a.u.)
  ----------------------------------------
      1 C                    -0.187717
      2 C                    -0.254763
      3 S                    -0.022362
      4 C                    -0.012725
      5 H                     0.196384
      6 C                    -0.028044
      7 C                     0.243632
      8 C                     0.240490
      9 C                    -0.041571
     10 C                    -0.021969
     11 O                    -0.333240
     12 O                    -0.339737
     13 C                    -0.085579
     14 H                     0.122522
     15 H                     0.090801
     16 H                     0.094593
     17 C                    -0.086732
     18 H                     0.124984
     19 H                     0.094226
     20 H                     0.090238
     21 C                    -0.221155
     22 S                    -0.001736
     23 C                    -0.067016
     24 H                     0.196697
     25 H                     0.206499
     26 C                     0.009698
     27 S                     0.124128
     28 C                    -0.227696
     29 C                    -0.133902
     30 C                     0.004393
     31 C                     0.383397
     32 C                    -0.152971
     33 S                     0.044977
     34 C                     0.459664
     35 O                    -0.447790
     36 O                    -0.297728
     37 F                    -0.209629
     38 C                    -0.054828
     39 H                     0.116664
     40 H                     0.084778
     41 H                     0.084703
     42 H                     0.215422
  ----------------------------------------
  Sum of atomic charges =     0.000000

                    Cartesian Multipole Moments
 -----------------------------------------------------------------
    Charge (ESU x 10^10)
                -0.0000
    Dipole Moment (Debye)
         X       1.7048      Y       1.6550      Z       2.9180
       Tot       3.7630
    Quadrupole Moments (Debye-Ang)
        XX    -173.6221     XY       7.0144     YY    -161.4363
        XZ      -3.3214     YZ      -8.5332     ZZ    -205.8315

 Total job time:  319.20s(wall), 10082.39s(cpu)
        *  Thank you very much for using Q-Chem.  Have a nice day.  *
