 Q-Chem 5.4, Q-Chem, Inc., Pleasanton, CA (2021)
 Q-Chem 5.4.0 for Intel X86 EM64T Linux

User input:
--------------------------------------------------------------
$molecule
0 1
C	-0.092419	-8.519741	-0.255929
C	0.449364	-7.635967	0.666007
S	-0.885736	-7.651740	-1.592708
C	0.254813	-6.261894	0.332317
H	0.980526	-7.954738	1.571741
C	-0.458965	-6.079985	-0.904324
C	-0.767823	-4.798382	-1.385968
C	0.681909	-5.153542	1.118303
C	0.369139	-3.869626	0.638514
C	-0.342916	-3.688927	-0.600871
O	1.368544	-5.481075	2.248132
O	-1.458570	-4.479871	-2.520275
C	-1.405396	-5.356026	-3.639637
H	-1.820940	-4.790496	-4.495304
H	-2.023129	-6.268513	-3.490336
H	-0.361595	-5.658187	-3.873314
C	1.480048	-4.546999	3.314934
H	1.899255	-5.107564	4.171837
H	0.490123	-4.131473	3.601473
H	2.171521	-3.712085	3.068969
C	-0.537642	-2.314326	-0.930308
S	0.785807	-2.295487	1.334769
C	-0.000000	-1.435180	-0.000000
H	-1.066134	-1.993211	-1.836691
H	-0.091781	-9.615985	-0.249906
C	0.000000	0.000000	0.000000
S	0.690437	0.576430	1.510732
C	1.896512	1.589852	0.727629
C	0.695720	0.583817	-1.064665
C	1.758621	1.477674	-0.678287
C	0.645928	0.539878	-2.486150
C	1.614763	1.352997	-3.106916
S	2.568261	2.157430	-1.965735
C	1.812707	1.512991	-4.559972
O	1.099523	0.910662	-5.350277
O	2.797769	2.335330	-5.004375
F	-0.205024	-0.179266	-3.246290
C	3.079074	2.558124	-6.334976
H	3.925910	3.267919	-6.370268
H	2.208109	2.990367	-6.875609
H	3.358147	1.618843	-6.861878
H	2.601331	2.181180	1.321510
$end

$rem
JOBTYPE		SP
EXCHANGE	HF
CORRELATION	pRIMP2
BASIS		cc-pvtz
METHOD		rimp2
AUX_BASIS	rimp2-cc-pvtz
SOLVENT_METHOD	PCM
PURECART	11111
SYMMETRY	false
MEM_TOTAL	110000
SCF_CONVERGENCE = 6
THRESH=10
GUI = 2
$end

$solvent
dielectric 4.90
$end
--------------------------------------------------------------

             Standard Nuclear Orientation (Angstroms)
    I     Atom           X                Y                Z
 ----------------------------------------------------------------
    1      C      -0.0924190000    -8.5197410000    -0.2559290000
    2      C       0.4493640000    -7.6359670000     0.6660070000
    3      S      -0.8857360000    -7.6517400000    -1.5927080000
    4      C       0.2548130000    -6.2618940000     0.3323170000
    5      H       0.9805260000    -7.9547380000     1.5717410000
    6      C      -0.4589650000    -6.0799850000    -0.9043240000
    7      C      -0.7678230000    -4.7983820000    -1.3859680000
    8      C       0.6819090000    -5.1535420000     1.1183030000
    9      C       0.3691390000    -3.8696260000     0.6385140000
   10      C      -0.3429160000    -3.6889270000    -0.6008710000
   11      O       1.3685440000    -5.4810750000     2.2481320000
   12      O      -1.4585700000    -4.4798710000    -2.5202750000
   13      C      -1.4053960000    -5.3560260000    -3.6396370000
   14      H      -1.8209400000    -4.7904960000    -4.4953040000
   15      H      -2.0231290000    -6.2685130000    -3.4903360000
   16      H      -0.3615950000    -5.6581870000    -3.8733140000
   17      C       1.4800480000    -4.5469990000     3.3149340000
   18      H       1.8992550000    -5.1075640000     4.1718370000
   19      H       0.4901230000    -4.1314730000     3.6014730000
   20      H       2.1715210000    -3.7120850000     3.0689690000
   21      C      -0.5376420000    -2.3143260000    -0.9303080000
   22      S       0.7858070000    -2.2954870000     1.3347690000
   23      C       0.0000000000    -1.4351800000     0.0000000000
   24      H      -1.0661340000    -1.9932110000    -1.8366910000
   25      H      -0.0917810000    -9.6159850000    -0.2499060000
   26      C       0.0000000000     0.0000000000     0.0000000000
   27      S       0.6904370000     0.5764300000     1.5107320000
   28      C       1.8965120000     1.5898520000     0.7276290000
   29      C       0.6957200000     0.5838170000    -1.0646650000
   30      C       1.7586210000     1.4776740000    -0.6782870000
   31      C       0.6459280000     0.5398780000    -2.4861500000
   32      C       1.6147630000     1.3529970000    -3.1069160000
   33      S       2.5682610000     2.1574300000    -1.9657350000
   34      C       1.8127070000     1.5129910000    -4.5599720000
   35      O       1.0995230000     0.9106620000    -5.3502770000
   36      O       2.7977690000     2.3353300000    -5.0043750000
   37      F      -0.2050240000    -0.1792660000    -3.2462900000
   38      C       3.0790740000     2.5581240000    -6.3349760000
   39      H       3.9259100000     3.2679190000    -6.3702680000
   40      H       2.2081090000     2.9903670000    -6.8756090000
   41      H       3.3581470000     1.6188430000    -6.8618780000
   42      H       2.6013310000     2.1811800000     1.3215100000
 ----------------------------------------------------------------

   11   -2754.2477023054      5.70e-07  Convergence criterion met
 Total energy in the final basis set =    -2754.2477023054
        RIMP2         total energy =     -2759.3181278924 a.u.

                    Orbital Energies (a.u.)
 --------------------------------------------------------------

 Alpha MOs
 -- Occupied --
-92.0169 -92.0044 -91.9876 -91.9827 -26.3362 -20.6155 -20.5910 -20.5862
-20.5561 -11.4156 -11.3777 -11.3175 -11.3166 -11.3097 -11.3096 -11.3019
-11.2952 -11.2949 -11.2903 -11.2895 -11.2866 -11.2827 -11.2807 -11.2770
-11.2747 -11.2569 -11.2522 -11.2473 -11.2375  -9.0162  -9.0080  -8.9882
 -8.9827  -6.6968  -6.6960  -6.6958  -6.6892  -6.6886  -6.6873  -6.6690
 -6.6682  -6.6673  -6.6637  -6.6631  -6.6622  -1.6496  -1.4757  -1.4148
 -1.4091  -1.3717  -1.2426  -1.1925  -1.1701  -1.1438  -1.0832  -1.0522
 -1.0475  -1.0329  -0.9989  -0.9920  -0.9761  -0.9581  -0.9481  -0.9372
 -0.8939  -0.8751  -0.8456  -0.8029  -0.7977  -0.7867  -0.7737  -0.7679
 -0.7539  -0.7285  -0.7213  -0.7177  -0.6985  -0.6928  -0.6816  -0.6801
 -0.6757  -0.6617  -0.6570  -0.6493  -0.6267  -0.6168  -0.6141  -0.6111
 -0.6051  -0.6013  -0.5889  -0.5740  -0.5649  -0.5618  -0.5529  -0.5403
 -0.5366  -0.5305  -0.5193  -0.5175  -0.5152  -0.5095  -0.5031  -0.4941
 -0.4887  -0.4830  -0.4716  -0.4667  -0.4639  -0.4606  -0.4577  -0.4217
 -0.3945  -0.3810  -0.3555  -0.3493  -0.3220  -0.2889  -0.2445

          Ground-State Mulliken Net Atomic Charges

     Atom                 Charge (a.u.)
  ----------------------------------------
      1 C                    -0.198429
      2 C                    -0.253635
      3 S                    -0.027596
      4 C                    -0.024122
      5 H                     0.194896
      6 C                    -0.025401
      7 C                     0.229429
      8 C                     0.242778
      9 C                    -0.055215
     10 C                    -0.008255
     11 O                    -0.333300
     12 O                    -0.341060
     13 C                    -0.085391
     14 H                     0.122263
     15 H                     0.089674
     16 H                     0.092277
     17 C                    -0.087902
     18 H                     0.125263
     19 H                     0.094273
     20 H                     0.088647
     21 C                    -0.290514
     22 S                    -0.026031
     23 C                     0.002967
     24 H                     0.195041
     25 H                     0.204574
     26 C                    -0.076216
     27 S                     0.105233
     28 C                    -0.169958
     29 C                    -0.026540
     30 C                    -0.027574
     31 C                     0.354471
     32 C                    -0.115418
     33 S                     0.067395
     34 C                     0.455827
     35 O                    -0.440557
     36 O                    -0.296906
     37 F                    -0.209983
     38 C                    -0.054565
     39 H                     0.117423
     40 H                     0.085472
     41 H                     0.085572
     42 H                     0.221092
  ----------------------------------------
  Sum of atomic charges =     0.000000

                    Cartesian Multipole Moments
 -----------------------------------------------------------------
    Charge (ESU x 10^10)
                 0.0000
    Dipole Moment (Debye)
         X       4.6139      Y       3.2989      Z       2.9631
       Tot       6.3993
    Quadrupole Moments (Debye-Ang)
        XX    -188.2282     XY       8.0393     YY    -177.7801
        XZ      -2.9897     YZ      -8.1080     ZZ    -180.3264

 Total job time:  304.43s(wall), 9877.14s(cpu)
        *  Thank you very much for using Q-Chem.  Have a nice day.  *
