 Q-Chem 5.4, Q-Chem, Inc., Pleasanton, CA (2021)
 Q-Chem 5.4.0 for Intel X86 EM64T Linux

User input:
--------------------------------------------------------------
$molecule
0 1
C	0.000687	-8.519741	-0.272104
C	0.194476	-7.635967	0.779533
S	-0.287581	-7.651740	-1.799596
C	0.125787	-6.261894	0.399427
H	0.383826	-7.954738	1.812314
C	-0.121989	-6.079985	-1.006762
C	-0.247488	-4.798382	-1.564994
C	0.258303	-5.153542	1.284087
C	0.128493	-3.869626	0.726260
C	-0.116725	-3.688927	-0.681918
O	0.517104	-5.481075	2.580622
O	-0.508622	-4.479871	-2.867144
C	-0.075811	-5.356026	-3.900814
H	-0.173640	-4.790496	-4.847002
H	-0.707354	-6.268513	-3.971794
H	0.984963	-5.658187	-3.763397
C	0.257016	-4.546999	3.621225
H	0.357864	-5.107564	4.569828
H	-0.771211	-4.131473	3.551910
H	0.990913	-3.712085	3.626592
C	-0.187034	-2.314326	-1.058088
S	0.281899	-2.295487	1.523035
C	-0.000000	-1.435180	-0.000000
H	-0.373653	-1.993211	-2.090565
H	-0.000773	-9.615985	-0.266226
C	0.000000	0.000000	0.000000
S	0.579852	0.687566	1.510732
C	1.591625	1.895024	0.727629
C	0.583771	0.695758	-1.064665
C	1.475308	1.760606	-0.678287
C	0.542366	0.643841	-2.486150
C	1.355286	1.612843	-3.106916
S	2.154609	2.570627	-1.965735
C	1.522440	1.804778	-4.559972
O	0.924684	1.087757	-5.350277
O	2.349739	2.785679	-5.004375
F	-0.170780	-0.212144	-3.246290
C	2.588082	3.053936	-6.334976
H	3.298799	3.899999	-6.370268
H	1.655291	3.328371	-6.875609
H	3.026021	2.177385	-6.861878
H	2.183053	2.599759	1.321510
$end

$rem
JOBTYPE		SP
EXCHANGE	HF
CORRELATION	pRIMP2
BASIS		cc-pvtz
METHOD		rimp2
AUX_BASIS	rimp2-cc-pvtz
SOLVENT_METHOD	PCM
PURECART	11111
SYMMETRY	false
MEM_TOTAL	110000
SCF_CONVERGENCE = 6
THRESH=10
GUI = 2
$end

$solvent
dielectric 4.90
$end
--------------------------------------------------------------

             Standard Nuclear Orientation (Angstroms)
    I     Atom           X                Y                Z
 ----------------------------------------------------------------
    1      C       0.0006870000    -8.5197410000    -0.2721040000
    2      C       0.1944760000    -7.6359670000     0.7795330000
    3      S      -0.2875810000    -7.6517400000    -1.7995960000
    4      C       0.1257870000    -6.2618940000     0.3994270000
    5      H       0.3838260000    -7.9547380000     1.8123140000
    6      C      -0.1219890000    -6.0799850000    -1.0067620000
    7      C      -0.2474880000    -4.7983820000    -1.5649940000
    8      C       0.2583030000    -5.1535420000     1.2840870000
    9      C       0.1284930000    -3.8696260000     0.7262600000
   10      C      -0.1167250000    -3.6889270000    -0.6819180000
   11      O       0.5171040000    -5.4810750000     2.5806220000
   12      O      -0.5086220000    -4.4798710000    -2.8671440000
   13      C      -0.0758110000    -5.3560260000    -3.9008140000
   14      H      -0.1736400000    -4.7904960000    -4.8470020000
   15      H      -0.7073540000    -6.2685130000    -3.9717940000
   16      H       0.9849630000    -5.6581870000    -3.7633970000
   17      C       0.2570160000    -4.5469990000     3.6212250000
   18      H       0.3578640000    -5.1075640000     4.5698280000
   19      H      -0.7712110000    -4.1314730000     3.5519100000
   20      H       0.9909130000    -3.7120850000     3.6265920000
   21      C      -0.1870340000    -2.3143260000    -1.0580880000
   22      S       0.2818990000    -2.2954870000     1.5230350000
   23      C       0.0000000000    -1.4351800000     0.0000000000
   24      H      -0.3736530000    -1.9932110000    -2.0905650000
   25      H      -0.0007730000    -9.6159850000    -0.2662260000
   26      C       0.0000000000     0.0000000000     0.0000000000
   27      S       0.5798520000     0.6875660000     1.5107320000
   28      C       1.5916250000     1.8950240000     0.7276290000
   29      C       0.5837710000     0.6957580000    -1.0646650000
   30      C       1.4753080000     1.7606060000    -0.6782870000
   31      C       0.5423660000     0.6438410000    -2.4861500000
   32      C       1.3552860000     1.6128430000    -3.1069160000
   33      S       2.1546090000     2.5706270000    -1.9657350000
   34      C       1.5224400000     1.8047780000    -4.5599720000
   35      O       0.9246840000     1.0877570000    -5.3502770000
   36      O       2.3497390000     2.7856790000    -5.0043750000
   37      F      -0.1707800000    -0.2121440000    -3.2462900000
   38      C       2.5880820000     3.0539360000    -6.3349760000
   39      H       3.2987990000     3.8999990000    -6.3702680000
   40      H       1.6552910000     3.3283710000    -6.8756090000
   41      H       3.0260210000     2.1773850000    -6.8618780000
   42      H       2.1830530000     2.5997590000     1.3215100000
 ----------------------------------------------------------------

   10   -2754.2651521664      9.83e-07  Convergence criterion met
 Total energy in the final basis set =    -2754.2651521664
        RIMP2         total energy =     -2759.3314612688 a.u.

                    Orbital Energies (a.u.)
 --------------------------------------------------------------

 Alpha MOs
 -- Occupied --
-92.0169 -92.0015 -91.9876 -91.9844 -26.3383 -20.6143 -20.5916 -20.5882
-20.5539 -11.4137 -11.3783 -11.3179 -11.3133 -11.3083 -11.3053 -11.3005
-11.2995 -11.2959 -11.2897 -11.2890 -11.2869 -11.2837 -11.2821 -11.2818
-11.2769 -11.2588 -11.2553 -11.2485 -11.2444  -9.0159  -9.0052  -8.9884
 -8.9843  -6.6966  -6.6959  -6.6955  -6.6864  -6.6857  -6.6844  -6.6694
 -6.6687  -6.6677  -6.6653  -6.6647  -6.6638  -1.6526  -1.4743  -1.4156
 -1.4110  -1.3701  -1.2393  -1.1941  -1.1696  -1.1439  -1.0837  -1.0514
 -1.0492  -1.0314  -1.0007  -0.9927  -0.9749  -0.9591  -0.9491  -0.9380
 -0.8951  -0.8733  -0.8482  -0.8051  -0.7981  -0.7876  -0.7726  -0.7695
 -0.7555  -0.7309  -0.7233  -0.7194  -0.6996  -0.6917  -0.6830  -0.6803
 -0.6744  -0.6620  -0.6578  -0.6505  -0.6269  -0.6180  -0.6141  -0.6093
 -0.6032  -0.5999  -0.5874  -0.5744  -0.5668  -0.5605  -0.5546  -0.5433
 -0.5362  -0.5292  -0.5207  -0.5190  -0.5170  -0.5095  -0.5049  -0.4955
 -0.4873  -0.4833  -0.4749  -0.4672  -0.4632  -0.4607  -0.4576  -0.4249
 -0.3966  -0.3827  -0.3582  -0.3497  -0.3245  -0.2859  -0.2443

          Ground-State Mulliken Net Atomic Charges

     Atom                 Charge (a.u.)
  ----------------------------------------
      1 C                    -0.194108
      2 C                    -0.254279
      3 S                    -0.024644
      4 C                    -0.019934
      5 H                     0.195523
      6 C                    -0.026790
      7 C                     0.241227
      8 C                     0.244061
      9 C                    -0.049108
     10 C                    -0.015432
     11 O                    -0.333338
     12 O                    -0.341036
     13 C                    -0.086154
     14 H                     0.123403
     15 H                     0.090690
     16 H                     0.092767
     17 C                    -0.088470
     18 H                     0.125620
     19 H                     0.094675
     20 H                     0.089222
     21 C                    -0.265276
     22 S                    -0.038119
     23 C                    -0.024024
     24 H                     0.210569
     25 H                     0.205456
     26 C                    -0.024719
     27 S                     0.103481
     28 C                    -0.195838
     29 C                    -0.051591
     30 C                    -0.027782
     31 C                     0.349572
     32 C                    -0.120735
     33 S                     0.060754
     34 C                     0.455952
     35 O                    -0.444693
     36 O                    -0.297348
     37 F                    -0.212489
     38 C                    -0.054552
     39 H                     0.117191
     40 H                     0.085172
     41 H                     0.085011
     42 H                     0.220109
  ----------------------------------------
  Sum of atomic charges =     0.000000

                    Cartesian Multipole Moments
 -----------------------------------------------------------------
    Charge (ESU x 10^10)
                -0.0000
    Dipole Moment (Debye)
         X       3.3288      Y       2.6755      Z       3.0767
       Tot       5.2636
    Quadrupole Moments (Debye-Ang)
        XX    -194.0687     XY       7.6518     YY    -170.1692
        XZ      -9.1778     YZ      -8.9755     ZZ    -179.5916

 Total job time:  281.38s(wall), 9342.32s(cpu)
        *  Thank you very much for using Q-Chem.  Have a nice day.  *
