 Q-Chem 5.4, Q-Chem, Inc., Pleasanton, CA (2021)
 Q-Chem 5.4.0 for Intel X86 EM64T Linux

User input:
--------------------------------------------------------------
$molecule
0 1
C	0.046574	-8.519741	0.268090
C	-0.326886	-7.635967	-0.733920
S	0.595708	-7.651740	1.722318
C	-0.193236	-6.261894	-0.371516
H	-0.692700	-7.954738	-1.718130
C	0.294958	-6.079985	0.970283
C	0.515487	-4.798382	1.498243
C	-0.477358	-5.153542	-1.219725
C	-0.252655	-3.869626	-0.692914
C	0.233366	-3.688927	0.651289
O	-0.957369	-5.481075	-2.451623
O	0.998769	-4.479871	2.735264
C	0.752029	-5.356026	3.828387
H	1.012675	-4.790496	4.743213
H	1.386303	-6.268513	3.788623
H	-0.316492	-5.658187	3.877260
C	-0.881930	-4.546999	-3.521580
H	-1.145969	-5.107564	-4.438260
H	0.142712	-4.131473	-3.631868
H	-1.605610	-3.712085	-3.399425
C	0.367928	-2.314326	1.009535
S	-0.542088	-2.295487	-1.450945
C	-0.000000	-1.435180	-0.000000
H	0.730999	-1.993211	1.993920
H	0.046991	-9.615985	0.262047
C	0.000000	0.000000	0.000000
S	0.690437	0.576430	1.510732
C	1.896512	1.589852	0.727629
C	0.695720	0.583817	-1.064665
C	1.758621	1.477674	-0.678287
C	0.645928	0.539878	-2.486150
C	1.614763	1.352997	-3.106916
S	2.568261	2.157430	-1.965735
C	1.812707	1.512991	-4.559972
O	1.099523	0.910662	-5.350277
O	2.797769	2.335330	-5.004375
F	-0.205024	-0.179266	-3.246290
C	3.079074	2.558124	-6.334976
H	3.925910	3.267919	-6.370268
H	2.208109	2.990367	-6.875609
H	3.358147	1.618843	-6.861878
H	2.601331	2.181180	1.321510
$end

$rem
JOBTYPE		SP
EXCHANGE	HF
CORRELATION	pRIMP2
BASIS		cc-pvtz
METHOD		rimp2
AUX_BASIS	rimp2-cc-pvtz
SOLVENT_METHOD	PCM
PURECART	11111
SYMMETRY	false
MEM_TOTAL	110000
SCF_CONVERGENCE = 6
THRESH=10
GUI = 2
$end

$solvent
dielectric 4.90
$end
--------------------------------------------------------------

             Standard Nuclear Orientation (Angstroms)
    I     Atom           X                Y                Z
 ----------------------------------------------------------------
    1      C       0.0465740000    -8.5197410000     0.2680900000
    2      C      -0.3268860000    -7.6359670000    -0.7339200000
    3      S       0.5957080000    -7.6517400000     1.7223180000
    4      C      -0.1932360000    -6.2618940000    -0.3715160000
    5      H      -0.6927000000    -7.9547380000    -1.7181300000
    6      C       0.2949580000    -6.0799850000     0.9702830000
    7      C       0.5154870000    -4.7983820000     1.4982430000
    8      C      -0.4773580000    -5.1535420000    -1.2197250000
    9      C      -0.2526550000    -3.8696260000    -0.6929140000
   10      C       0.2333660000    -3.6889270000     0.6512890000
   11      O      -0.9573690000    -5.4810750000    -2.4516230000
   12      O       0.9987690000    -4.4798710000     2.7352640000
   13      C       0.7520290000    -5.3560260000     3.8283870000
   14      H       1.0126750000    -4.7904960000     4.7432130000
   15      H       1.3863030000    -6.2685130000     3.7886230000
   16      H      -0.3164920000    -5.6581870000     3.8772600000
   17      C      -0.8819300000    -4.5469990000    -3.5215800000
   18      H      -1.1459690000    -5.1075640000    -4.4382600000
   19      H       0.1427120000    -4.1314730000    -3.6318680000
   20      H      -1.6056100000    -3.7120850000    -3.3994250000
   21      C       0.3679280000    -2.3143260000     1.0095350000
   22      S      -0.5420880000    -2.2954870000    -1.4509450000
   23      C       0.0000000000    -1.4351800000     0.0000000000
   24      H       0.7309990000    -1.9932110000     1.9939200000
   25      H       0.0469910000    -9.6159850000     0.2620470000
   26      C       0.0000000000     0.0000000000     0.0000000000
   27      S       0.6904370000     0.5764300000     1.5107320000
   28      C       1.8965120000     1.5898520000     0.7276290000
   29      C       0.6957200000     0.5838170000    -1.0646650000
   30      C       1.7586210000     1.4776740000    -0.6782870000
   31      C       0.6459280000     0.5398780000    -2.4861500000
   32      C       1.6147630000     1.3529970000    -3.1069160000
   33      S       2.5682610000     2.1574300000    -1.9657350000
   34      C       1.8127070000     1.5129910000    -4.5599720000
   35      O       1.0995230000     0.9106620000    -5.3502770000
   36      O       2.7977690000     2.3353300000    -5.0043750000
   37      F      -0.2050240000    -0.1792660000    -3.2462900000
   38      C       3.0790740000     2.5581240000    -6.3349760000
   39      H       3.9259100000     3.2679190000    -6.3702680000
   40      H       2.2081090000     2.9903670000    -6.8756090000
   41      H       3.3581470000     1.6188430000    -6.8618780000
   42      H       2.6013310000     2.1811800000     1.3215100000
 ----------------------------------------------------------------

   11   -2754.2484567946      6.14e-07  Convergence criterion met
 Total energy in the final basis set =    -2754.2484567946
        RIMP2         total energy =     -2759.3180956029 a.u.

                    Orbital Energies (a.u.)
 --------------------------------------------------------------

 Alpha MOs
 -- Occupied --
-92.0154 -92.0045 -91.9830 -91.9803 -26.3357 -20.6158 -20.5895 -20.5875
-20.5564 -11.4159 -11.3781 -11.3193 -11.3158 -11.3103 -11.3101 -11.3016
-11.2976 -11.2954 -11.2905 -11.2892 -11.2843 -11.2842 -11.2806 -11.2779
-11.2748 -11.2567 -11.2524 -11.2473 -11.2408  -9.0144  -9.0081  -8.9830
 -8.9816  -6.6951  -6.6943  -6.6941  -6.6893  -6.6887  -6.6874  -6.6640
 -6.6634  -6.6625  -6.6625  -6.6618  -6.6608  -1.6507  -1.4759  -1.4135
 -1.4103  -1.3720  -1.2427  -1.1922  -1.1694  -1.1438  -1.0840  -1.0520
 -1.0471  -1.0336  -0.9983  -0.9921  -0.9759  -0.9570  -0.9474  -0.9388
 -0.8920  -0.8758  -0.8453  -0.8103  -0.7960  -0.7865  -0.7760  -0.7624
 -0.7543  -0.7288  -0.7219  -0.7181  -0.6983  -0.6914  -0.6819  -0.6801
 -0.6777  -0.6624  -0.6560  -0.6498  -0.6261  -0.6167  -0.6141  -0.6111
 -0.6055  -0.6040  -0.5879  -0.5696  -0.5658  -0.5645  -0.5539  -0.5516
 -0.5330  -0.5244  -0.5194  -0.5174  -0.5121  -0.5081  -0.5030  -0.4933
 -0.4866  -0.4834  -0.4736  -0.4660  -0.4642  -0.4613  -0.4515  -0.4250
 -0.3904  -0.3826  -0.3563  -0.3514  -0.3230  -0.2864  -0.2453

          Ground-State Mulliken Net Atomic Charges

     Atom                 Charge (a.u.)
  ----------------------------------------
      1 C                    -0.198188
      2 C                    -0.253123
      3 S                    -0.029098
      4 C                    -0.021980
      5 H                     0.195405
      6 C                    -0.023414
      7 C                     0.228641
      8 C                     0.244067
      9 C                    -0.046128
     10 C                    -0.010174
     11 O                    -0.334010
     12 O                    -0.342589
     13 C                    -0.085606
     14 H                     0.120774
     15 H                     0.090360
     16 H                     0.092851
     17 C                    -0.087058
     18 H                     0.124328
     19 H                     0.094205
     20 H                     0.090177
     21 C                    -0.289548
     22 S                    -0.033213
     23 C                     0.001864
     24 H                     0.187152
     25 H                     0.204658
     26 C                    -0.085010
     27 S                     0.110646
     28 C                    -0.159252
     29 C                    -0.014603
     30 C                    -0.040385
     31 C                     0.343293
     32 C                    -0.110012
     33 S                     0.068127
     34 C                     0.455966
     35 O                    -0.440689
     36 O                    -0.296762
     37 F                    -0.207120
     38 C                    -0.054555
     39 H                     0.117543
     40 H                     0.085491
     41 H                     0.085494
     42 H                     0.221476
  ----------------------------------------
  Sum of atomic charges =     0.000000

                    Cartesian Multipole Moments
 -----------------------------------------------------------------
    Charge (ESU x 10^10)
                -0.0000
    Dipole Moment (Debye)
         X       3.8055      Y       3.3687      Z       2.1825
       Tot       5.5311
    Quadrupole Moments (Debye-Ang)
        XX    -189.7704     XY      11.6671     YY    -177.9887
        XZ      -6.8689     YZ      -7.0235     ZZ    -178.6601

 Total job time:  314.07s(wall), 10112.42s(cpu)
        *  Thank you very much for using Q-Chem.  Have a nice day.  *
