 Q-Chem 5.4, Q-Chem, Inc., Pleasanton, CA (2021)
 Q-Chem 5.4.0 for Intel X86 EM64T Linux

User input:
--------------------------------------------------------------
$molecule
0 1
C	0.255929	-8.519741	-0.092419
C	-0.666007	-7.635967	0.449364
S	1.592708	-7.651740	-0.885736
C	-0.332317	-6.261894	0.254813
H	-1.571741	-7.954738	0.980526
C	0.904324	-6.079985	-0.458965
C	1.385968	-4.798382	-0.767823
C	-1.118303	-5.153542	0.681909
C	-0.638514	-3.869626	0.369139
C	0.600871	-3.688927	-0.342916
O	-2.248132	-5.481075	1.368544
O	2.520275	-4.479871	-1.458570
C	3.639637	-5.356026	-1.405396
H	4.495304	-4.790496	-1.820940
H	3.490336	-6.268513	-2.023129
H	3.873314	-5.658187	-0.361595
C	-3.314934	-4.546999	1.480048
H	-4.171837	-5.107564	1.899255
H	-3.601473	-4.131473	0.490123
H	-3.068969	-3.712085	2.171521
C	0.930308	-2.314326	-0.537642
S	-1.334769	-2.295487	0.785807
C	-0.000000	-1.435180	-0.000000
H	1.836691	-1.993211	-1.066134
H	0.249906	-9.615985	-0.091781
C	0.000000	0.000000	0.000000
S	0.579852	0.687566	1.510732
C	1.591625	1.895024	0.727629
C	0.583771	0.695758	-1.064665
C	1.475308	1.760606	-0.678287
C	0.542366	0.643841	-2.486150
C	1.355286	1.612843	-3.106916
S	2.154609	2.570627	-1.965735
C	1.522440	1.804778	-4.559972
O	0.924684	1.087757	-5.350277
O	2.349739	2.785679	-5.004375
F	-0.170780	-0.212144	-3.246290
C	2.588082	3.053936	-6.334976
H	3.298799	3.899999	-6.370268
H	1.655291	3.328371	-6.875609
H	3.026021	2.177385	-6.861878
H	2.183053	2.599759	1.321510
$end

$rem
JOBTYPE		SP
EXCHANGE	HF
CORRELATION	pRIMP2
BASIS		cc-pvtz
METHOD		rimp2
AUX_BASIS	rimp2-cc-pvtz
SOLVENT_METHOD	PCM
PURECART	11111
SYMMETRY	false
MEM_TOTAL	110000
SCF_CONVERGENCE = 6
THRESH=10
GUI = 2
$end

$solvent
dielectric 4.90
$end
--------------------------------------------------------------

             Standard Nuclear Orientation (Angstroms)
    I     Atom           X                Y                Z
 ----------------------------------------------------------------
    1      C       0.2559290000    -8.5197410000    -0.0924190000
    2      C      -0.6660070000    -7.6359670000     0.4493640000
    3      S       1.5927080000    -7.6517400000    -0.8857360000
    4      C      -0.3323170000    -6.2618940000     0.2548130000
    5      H      -1.5717410000    -7.9547380000     0.9805260000
    6      C       0.9043240000    -6.0799850000    -0.4589650000
    7      C       1.3859680000    -4.7983820000    -0.7678230000
    8      C      -1.1183030000    -5.1535420000     0.6819090000
    9      C      -0.6385140000    -3.8696260000     0.3691390000
   10      C       0.6008710000    -3.6889270000    -0.3429160000
   11      O      -2.2481320000    -5.4810750000     1.3685440000
   12      O       2.5202750000    -4.4798710000    -1.4585700000
   13      C       3.6396370000    -5.3560260000    -1.4053960000
   14      H       4.4953040000    -4.7904960000    -1.8209400000
   15      H       3.4903360000    -6.2685130000    -2.0231290000
   16      H       3.8733140000    -5.6581870000    -0.3615950000
   17      C      -3.3149340000    -4.5469990000     1.4800480000
   18      H      -4.1718370000    -5.1075640000     1.8992550000
   19      H      -3.6014730000    -4.1314730000     0.4901230000
   20      H      -3.0689690000    -3.7120850000     2.1715210000
   21      C       0.9303080000    -2.3143260000    -0.5376420000
   22      S      -1.3347690000    -2.2954870000     0.7858070000
   23      C       0.0000000000    -1.4351800000     0.0000000000
   24      H       1.8366910000    -1.9932110000    -1.0661340000
   25      H       0.2499060000    -9.6159850000    -0.0917810000
   26      C       0.0000000000     0.0000000000     0.0000000000
   27      S       0.5798520000     0.6875660000     1.5107320000
   28      C       1.5916250000     1.8950240000     0.7276290000
   29      C       0.5837710000     0.6957580000    -1.0646650000
   30      C       1.4753080000     1.7606060000    -0.6782870000
   31      C       0.5423660000     0.6438410000    -2.4861500000
   32      C       1.3552860000     1.6128430000    -3.1069160000
   33      S       2.1546090000     2.5706270000    -1.9657350000
   34      C       1.5224400000     1.8047780000    -4.5599720000
   35      O       0.9246840000     1.0877570000    -5.3502770000
   36      O       2.3497390000     2.7856790000    -5.0043750000
   37      F      -0.1707800000    -0.2121440000    -3.2462900000
   38      C       2.5880820000     3.0539360000    -6.3349760000
   39      H       3.2987990000     3.8999990000    -6.3702680000
   40      H       1.6552910000     3.3283710000    -6.8756090000
   41      H       3.0260210000     2.1773850000    -6.8618780000
   42      H       2.1830530000     2.5997590000     1.3215100000
 ----------------------------------------------------------------

   11   -2754.2700512127      4.80e-07  Convergence criterion met
 Total energy in the final basis set =    -2754.2700512127
        RIMP2         total energy =     -2759.3317855864 a.u.

                    Orbital Energies (a.u.)
 --------------------------------------------------------------

 Alpha MOs
 -- Occupied --
-92.0158 -91.9993 -91.9852 -91.9851 -26.3339 -20.6138 -20.5915 -20.5900
-20.5531 -11.4129 -11.3771 -11.3178 -11.3156 -11.3087 -11.3036 -11.2983
-11.2942 -11.2933 -11.2893 -11.2882 -11.2862 -11.2853 -11.2832 -11.2827
-11.2782 -11.2593 -11.2568 -11.2522 -11.2490  -9.0144  -9.0031  -8.9858
 -8.9851  -6.6950  -6.6943  -6.6940  -6.6843  -6.6837  -6.6824  -6.6668
 -6.6661  -6.6661  -6.6654  -6.6652  -6.6646  -1.6468  -1.4737  -1.4155
 -1.4128  -1.3694  -1.2375  -1.1941  -1.1683  -1.1433  -1.0835  -1.0506
 -1.0492  -1.0298  -1.0001  -0.9924  -0.9732  -0.9597  -0.9494  -0.9389
 -0.8943  -0.8718  -0.8466  -0.8031  -0.7936  -0.7868  -0.7737  -0.7706
 -0.7557  -0.7314  -0.7185  -0.7153  -0.7006  -0.6907  -0.6813  -0.6799
 -0.6737  -0.6606  -0.6580  -0.6516  -0.6283  -0.6189  -0.6157  -0.6086
 -0.6049  -0.5985  -0.5808  -0.5755  -0.5699  -0.5633  -0.5542  -0.5500
 -0.5321  -0.5267  -0.5239  -0.5150  -0.5138  -0.5080  -0.5021  -0.4954
 -0.4886  -0.4865  -0.4719  -0.4654  -0.4636  -0.4624  -0.4591  -0.4087
 -0.3967  -0.3860  -0.3593  -0.3473  -0.3179  -0.2897  -0.2537

          Ground-State Mulliken Net Atomic Charges

     Atom                 Charge (a.u.)
  ----------------------------------------
      1 C                    -0.191226
      2 C                    -0.254031
      3 S                    -0.024123
      4 C                    -0.017867
      5 H                     0.195960
      6 C                    -0.028007
      7 C                     0.239468
      8 C                     0.244540
      9 C                    -0.046431
     10 C                    -0.017827
     11 O                    -0.333627
     12 O                    -0.340442
     13 C                    -0.085554
     14 H                     0.122068
     15 H                     0.091002
     16 H                     0.093272
     17 C                    -0.087141
     18 H                     0.124957
     19 H                     0.095002
     20 H                     0.089191
     21 C                    -0.241581
     22 S                    -0.021307
     23 C                     0.005120
     24 H                     0.197750
     25 H                     0.205881
     26 C                    -0.076545
     27 S                     0.129762
     28 C                    -0.198060
     29 C                    -0.123974
     30 C                    -0.007371
     31 C                     0.394242
     32 C                    -0.144415
     33 S                     0.053558
     34 C                     0.459511
     35 O                    -0.444518
     36 O                    -0.297492
     37 F                    -0.210035
     38 C                    -0.054701
     39 H                     0.116934
     40 H                     0.085194
     41 H                     0.085044
     42 H                     0.217820
  ----------------------------------------
  Sum of atomic charges =     0.000000

                    Cartesian Multipole Moments
 -----------------------------------------------------------------
    Charge (ESU x 10^10)
                 0.0000
    Dipole Moment (Debye)
         X       2.9972      Y       2.1885      Z       3.2678
       Tot       4.9449
    Quadrupole Moments (Debye-Ang)
        XX    -171.4945     XY       8.0886     YY    -168.0458
        XZ     -14.2123     YZ      -9.9142     ZZ    -202.8516

 Total job time:  301.05s(wall), 9790.50s(cpu)
        *  Thank you very much for using Q-Chem.  Have a nice day.  *
