 Q-Chem 5.4, Q-Chem, Inc., Pleasanton, CA (2021)
 Q-Chem 5.4.0 for Intel X86 EM64T Linux

User input:
--------------------------------------------------------------
$molecule
0 1
C	0.267851	-8.519741	0.047927
C	-0.801461	-7.635967	0.056157
S	1.822194	-7.651740	0.029285
C	-0.415201	-6.261894	0.054516
H	-1.851431	-7.954738	0.063290
C	1.012650	-6.079985	0.054687
C	1.584194	-4.798382	0.028030
C	-1.309433	-5.153542	0.031399
C	-0.737539	-3.869626	0.000427
C	0.691828	-3.688927	0.003462
O	-2.631211	-5.481075	0.061128
O	2.911907	-4.479871	-0.003021
C	3.854716	-5.356026	0.602710
H	4.803517	-4.790496	0.670671
H	4.034285	-6.268513	-0.006913
H	3.535185	-5.658187	1.623507
C	-3.610841	-4.546999	-0.375708
H	-4.562544	-5.107564	-0.441115
H	-3.364029	-4.131473	-1.376277
H	-3.743566	-3.712085	0.346107
C	1.074491	-2.314326	-0.000458
S	-1.548848	-2.295487	0.013144
C	-0.000000	-1.435180	-0.000000
H	2.123688	-1.993211	-0.004953
H	0.262315	-9.615985	0.045468
C	0.000000	0.000000	0.000000
S	0.451648	0.777811	1.510732
C	1.238377	2.142617	0.727629
C	0.454085	0.786559	-1.064665
C	1.147169	1.990043	-0.678287
C	0.422325	0.728240	-2.486150
C	1.054629	1.823683	-3.106916
S	1.675491	2.905718	-1.965735
C	1.185914	2.041729	-4.559972
O	0.721749	1.231802	-5.350277
O	1.830313	3.151386	-5.004375
F	-0.131347	-0.238577	-3.246290
C	2.018453	3.456956	-6.334976
H	2.571455	4.413580	-6.370268
H	1.052178	3.565244	-6.875609
H	2.601950	2.669768	-6.861878
H	1.698444	2.939346	1.321510
$end

$rem
JOBTYPE		SP
EXCHANGE	HF
CORRELATION	pRIMP2
BASIS		cc-pvtz
METHOD		rimp2
AUX_BASIS	rimp2-cc-pvtz
SOLVENT_METHOD	PCM
PURECART	11111
SYMMETRY	false
MEM_TOTAL	110000
SCF_CONVERGENCE = 6
THRESH=10
GUI = 2
$end

$solvent
dielectric 4.90
$end
--------------------------------------------------------------

             Standard Nuclear Orientation (Angstroms)
    I     Atom           X                Y                Z
 ----------------------------------------------------------------
    1      C       0.2678510000    -8.5197410000     0.0479270000
    2      C      -0.8014610000    -7.6359670000     0.0561570000
    3      S       1.8221940000    -7.6517400000     0.0292850000
    4      C      -0.4152010000    -6.2618940000     0.0545160000
    5      H      -1.8514310000    -7.9547380000     0.0632900000
    6      C       1.0126500000    -6.0799850000     0.0546870000
    7      C       1.5841940000    -4.7983820000     0.0280300000
    8      C      -1.3094330000    -5.1535420000     0.0313990000
    9      C      -0.7375390000    -3.8696260000     0.0004270000
   10      C       0.6918280000    -3.6889270000     0.0034620000
   11      O      -2.6312110000    -5.4810750000     0.0611280000
   12      O       2.9119070000    -4.4798710000    -0.0030210000
   13      C       3.8547160000    -5.3560260000     0.6027100000
   14      H       4.8035170000    -4.7904960000     0.6706710000
   15      H       4.0342850000    -6.2685130000    -0.0069130000
   16      H       3.5351850000    -5.6581870000     1.6235070000
   17      C      -3.6108410000    -4.5469990000    -0.3757080000
   18      H      -4.5625440000    -5.1075640000    -0.4411150000
   19      H      -3.3640290000    -4.1314730000    -1.3762770000
   20      H      -3.7435660000    -3.7120850000     0.3461070000
   21      C       1.0744910000    -2.3143260000    -0.0004580000
   22      S      -1.5488480000    -2.2954870000     0.0131440000
   23      C       0.0000000000    -1.4351800000     0.0000000000
   24      H       2.1236880000    -1.9932110000    -0.0049530000
   25      H       0.2623150000    -9.6159850000     0.0454680000
   26      C       0.0000000000     0.0000000000     0.0000000000
   27      S       0.4516480000     0.7778110000     1.5107320000
   28      C       1.2383770000     2.1426170000     0.7276290000
   29      C       0.4540850000     0.7865590000    -1.0646650000
   30      C       1.1471690000     1.9900430000    -0.6782870000
   31      C       0.4223250000     0.7282400000    -2.4861500000
   32      C       1.0546290000     1.8236830000    -3.1069160000
   33      S       1.6754910000     2.9057180000    -1.9657350000
   34      C       1.1859140000     2.0417290000    -4.5599720000
   35      O       0.7217490000     1.2318020000    -5.3502770000
   36      O       1.8303130000     3.1513860000    -5.0043750000
   37      F      -0.1313470000    -0.2385770000    -3.2462900000
   38      C       2.0184530000     3.4569560000    -6.3349760000
   39      H       2.5714550000     4.4135800000    -6.3702680000
   40      H       1.0521780000     3.5652440000    -6.8756090000
   41      H       2.6019500000     2.6697680000    -6.8618780000
   42      H       1.6984440000     2.9393460000     1.3215100000
 ----------------------------------------------------------------

   10   -2754.2787516433      9.49e-07  Convergence criterion met
 Total energy in the final basis set =    -2754.2787516433
        RIMP2         total energy =     -2759.3369070509 a.u.

                    Orbital Energies (a.u.)
 --------------------------------------------------------------

 Alpha MOs
 -- Occupied --
-92.0160 -91.9969 -91.9862 -91.9857 -26.3338 -20.6129 -20.5915 -20.5909
-20.5517 -11.4117 -11.3765 -11.3181 -11.3170 -11.3017 -11.3009 -11.2991
-11.2965 -11.2923 -11.2888 -11.2861 -11.2860 -11.2859 -11.2842 -11.2832
-11.2791 -11.2598 -11.2579 -11.2559 -11.2494  -9.0143  -9.0008  -8.9867
 -8.9856  -6.6949  -6.6943  -6.6939  -6.6820  -6.6814  -6.6800  -6.6676
 -6.6669  -6.6666  -6.6660  -6.6659  -6.6651  -1.6466  -1.4728  -1.4156
 -1.4137  -1.3683  -1.2349  -1.1946  -1.1677  -1.1422  -1.0831  -1.0509
 -1.0482  -1.0285  -1.0007  -0.9924  -0.9720  -0.9602  -0.9497  -0.9385
 -0.8945  -0.8704  -0.8480  -0.8045  -0.7911  -0.7872  -0.7743  -0.7689
 -0.7568  -0.7318  -0.7180  -0.7151  -0.7007  -0.6896  -0.6820  -0.6792
 -0.6722  -0.6602  -0.6581  -0.6521  -0.6296  -0.6194  -0.6160  -0.6075
 -0.6028  -0.5967  -0.5830  -0.5754  -0.5704  -0.5654  -0.5531  -0.5527
 -0.5309  -0.5265  -0.5235  -0.5154  -0.5134  -0.5076  -0.5011  -0.4931
 -0.4904  -0.4858  -0.4738  -0.4653  -0.4624  -0.4619  -0.4595  -0.4036
 -0.4005  -0.3864  -0.3591  -0.3454  -0.3123  -0.2926  -0.2576

          Ground-State Mulliken Net Atomic Charges

     Atom                 Charge (a.u.)
  ----------------------------------------
      1 C                    -0.189374
      2 C                    -0.254381
      3 S                    -0.023534
      4 C                    -0.016155
      5 H                     0.196358
      6 C                    -0.029328
      7 C                     0.241718
      8 C                     0.244671
      9 C                    -0.053043
     10 C                    -0.015350
     11 O                    -0.333573
     12 O                    -0.340330
     13 C                    -0.085540
     14 H                     0.122226
     15 H                     0.091087
     16 H                     0.093588
     17 C                    -0.086252
     18 H                     0.124396
     19 H                     0.095256
     20 H                     0.089167
     21 C                    -0.213505
     22 S                    -0.000824
     23 C                    -0.033892
     24 H                     0.198776
     25 H                     0.206182
     26 C                    -0.050789
     27 S                     0.124072
     28 C                    -0.219128
     29 C                    -0.106961
     30 C                    -0.000258
     31 C                     0.374964
     32 C                    -0.150370
     33 S                     0.047151
     34 C                     0.458975
     35 O                    -0.446659
     36 O                    -0.297546
     37 F                    -0.209596
     38 C                    -0.054910
     39 H                     0.116761
     40 H                     0.084855
     41 H                     0.084922
     42 H                     0.216173
  ----------------------------------------
  Sum of atomic charges =     0.000000

                    Cartesian Multipole Moments
 -----------------------------------------------------------------
    Charge (ESU x 10^10)
                -0.0000
    Dipole Moment (Debye)
         X       2.0165      Y       1.9640      Z       3.3533
       Tot       4.3781
    Quadrupole Moments (Debye-Ang)
        XX    -173.8797     XY       7.0601     YY    -164.3152
        XZ      -0.0164     YZ     -11.0590     ZZ    -204.1550

 Total job time:  333.22s(wall), 10571.41s(cpu)
        *  Thank you very much for using Q-Chem.  Have a nice day.  *
