 Q-Chem 5.4, Q-Chem, Inc., Pleasanton, CA (2021)
 Q-Chem 5.4.0 for Intel X86 EM64T Linux

User input:
--------------------------------------------------------------
$molecule
0 1
C	-0.272104	-8.519741	-0.000687
C	0.779533	-7.635967	-0.194476
S	-1.799596	-7.651740	0.287581
C	0.399427	-6.261894	-0.125787
H	1.812314	-7.954738	-0.383826
C	-1.006762	-6.079985	0.121989
C	-1.564994	-4.798382	0.247488
C	1.284087	-5.153542	-0.258303
C	0.726260	-3.869626	-0.128493
C	-0.681918	-3.688927	0.116725
O	2.580622	-5.481075	-0.517104
O	-2.867144	-4.479871	0.508622
C	-3.900814	-5.356026	0.075811
H	-4.847002	-4.790496	0.173640
H	-3.971794	-6.268513	0.707354
H	-3.763397	-5.658187	-0.984963
C	3.621225	-4.546999	-0.257016
H	4.569828	-5.107564	-0.357864
H	3.551910	-4.131473	0.771211
H	3.626592	-3.712085	-0.990913
C	-1.058088	-2.314326	0.187034
S	1.523035	-2.295487	-0.281899
C	0.000000	-1.435180	0.000000
H	-2.090565	-1.993211	0.373653
H	-0.266226	-9.615985	0.000773
C	0.000000	0.000000	0.000000
S	0.780044	0.447780	1.510732
C	2.143774	1.236372	0.727629
C	0.786529	0.454137	-1.064665
C	1.988499	1.149844	-0.678287
C	0.729864	0.419512	-2.486150
C	1.825177	1.052041	-3.106916
S	2.903877	1.678680	-1.965735
C	2.047896	1.175232	-4.559972
O	1.240953	0.705897	-5.350277
O	3.160791	1.814024	-5.004375
F	-0.233039	-0.140940	-3.246290
C	3.476510	1.984585	-6.334976
H	4.433735	2.536545	-6.370268
H	2.693835	2.561503	-6.875609
H	3.588239	1.011113	-6.861878
H	2.940569	1.696327	1.321510
$end

$rem
JOBTYPE		SP
EXCHANGE	HF
CORRELATION	pRIMP2
BASIS		cc-pvtz
METHOD		rimp2
AUX_BASIS	rimp2-cc-pvtz
SOLVENT_METHOD	PCM
PURECART	11111
SYMMETRY	false
MEM_TOTAL	110000
SCF_CONVERGENCE = 6
THRESH=10
GUI = 2
$end

$solvent
dielectric 4.90
$end
--------------------------------------------------------------

             Standard Nuclear Orientation (Angstroms)
    I     Atom           X                Y                Z
 ----------------------------------------------------------------
    1      C      -0.2721040000    -8.5197410000    -0.0006870000
    2      C       0.7795330000    -7.6359670000    -0.1944760000
    3      S      -1.7995960000    -7.6517400000     0.2875810000
    4      C       0.3994270000    -6.2618940000    -0.1257870000
    5      H       1.8123140000    -7.9547380000    -0.3838260000
    6      C      -1.0067620000    -6.0799850000     0.1219890000
    7      C      -1.5649940000    -4.7983820000     0.2474880000
    8      C       1.2840870000    -5.1535420000    -0.2583030000
    9      C       0.7262600000    -3.8696260000    -0.1284930000
   10      C      -0.6819180000    -3.6889270000     0.1167250000
   11      O       2.5806220000    -5.4810750000    -0.5171040000
   12      O      -2.8671440000    -4.4798710000     0.5086220000
   13      C      -3.9008140000    -5.3560260000     0.0758110000
   14      H      -4.8470020000    -4.7904960000     0.1736400000
   15      H      -3.9717940000    -6.2685130000     0.7073540000
   16      H      -3.7633970000    -5.6581870000    -0.9849630000
   17      C       3.6212250000    -4.5469990000    -0.2570160000
   18      H       4.5698280000    -5.1075640000    -0.3578640000
   19      H       3.5519100000    -4.1314730000     0.7712110000
   20      H       3.6265920000    -3.7120850000    -0.9909130000
   21      C      -1.0580880000    -2.3143260000     0.1870340000
   22      S       1.5230350000    -2.2954870000    -0.2818990000
   23      C       0.0000000000    -1.4351800000     0.0000000000
   24      H      -2.0905650000    -1.9932110000     0.3736530000
   25      H      -0.2662260000    -9.6159850000     0.0007730000
   26      C       0.0000000000     0.0000000000     0.0000000000
   27      S       0.7800440000     0.4477800000     1.5107320000
   28      C       2.1437740000     1.2363720000     0.7276290000
   29      C       0.7865290000     0.4541370000    -1.0646650000
   30      C       1.9884990000     1.1498440000    -0.6782870000
   31      C       0.7298640000     0.4195120000    -2.4861500000
   32      C       1.8251770000     1.0520410000    -3.1069160000
   33      S       2.9038770000     1.6786800000    -1.9657350000
   34      C       2.0478960000     1.1752320000    -4.5599720000
   35      O       1.2409530000     0.7058970000    -5.3502770000
   36      O       3.1607910000     1.8140240000    -5.0043750000
   37      F      -0.2330390000    -0.1409400000    -3.2462900000
   38      C       3.4765100000     1.9845850000    -6.3349760000
   39      H       4.4337350000     2.5365450000    -6.3702680000
   40      H       2.6938350000     2.5615030000    -6.8756090000
   41      H       3.5882390000     1.0111130000    -6.8618780000
   42      H       2.9405690000     1.6963270000     1.3215100000
 ----------------------------------------------------------------

   11   -2754.2309544053      5.91e-07  Convergence criterion met
 Total energy in the final basis set =    -2754.2309544053
        RIMP2         total energy =     -2759.3035873349 a.u.

                    Orbital Energies (a.u.)
 --------------------------------------------------------------

 Alpha MOs
 -- Occupied --
-92.0160 -92.0071 -91.9838 -91.9802 -26.3343 -20.6163 -20.5906 -20.5880
-20.5576 -11.4168 -11.3766 -11.3263 -11.3161 -11.3130 -11.3126 -11.3015
-11.2951 -11.2906 -11.2881 -11.2861 -11.2840 -11.2809 -11.2805 -11.2766
-11.2700 -11.2552 -11.2547 -11.2480 -11.2425  -9.0149  -9.0106  -8.9837
 -8.9814  -6.6954  -6.6945  -6.6944  -6.6917  -6.6911  -6.6898  -6.6647
 -6.6641  -6.6633  -6.6624  -6.6617  -6.6607  -1.6472  -1.4765  -1.4145
 -1.4109  -1.3727  -1.2450  -1.1921  -1.1704  -1.1442  -1.0835  -1.0516
 -1.0477  -1.0334  -0.9981  -0.9915  -0.9759  -0.9585  -0.9487  -0.9381
 -0.8926  -0.8763  -0.8428  -0.8051  -0.7943  -0.7853  -0.7786  -0.7656
 -0.7528  -0.7303  -0.7179  -0.7154  -0.6988  -0.6925  -0.6820  -0.6788
 -0.6775  -0.6634  -0.6570  -0.6503  -0.6285  -0.6174  -0.6159  -0.6122
 -0.6086  -0.5994  -0.5837  -0.5755  -0.5647  -0.5632  -0.5534  -0.5408
 -0.5348  -0.5288  -0.5215  -0.5152  -0.5128  -0.5082  -0.5012  -0.4934
 -0.4909  -0.4862  -0.4677  -0.4674  -0.4647  -0.4617  -0.4580  -0.4046
 -0.3952  -0.3825  -0.3549  -0.3504  -0.3082  -0.2976  -0.2548

          Ground-State Mulliken Net Atomic Charges

     Atom                 Charge (a.u.)
  ----------------------------------------
      1 C                    -0.194386
      2 C                    -0.253940
      3 S                    -0.026045
      4 C                    -0.020288
      5 H                     0.195385
      6 C                    -0.027525
      7 C                     0.239366
      8 C                     0.242245
      9 C                    -0.043581
     10 C                    -0.009602
     11 O                    -0.333707
     12 O                    -0.340061
     13 C                    -0.085512
     14 H                     0.121678
     15 H                     0.090022
     16 H                     0.093500
     17 C                    -0.086620
     18 H                     0.124702
     19 H                     0.093260
     20 H                     0.089151
     21 C                    -0.253565
     22 S                    -0.044754
     23 C                    -0.036254
     24 H                     0.192942
     25 H                     0.205245
     26 C                    -0.152538
     27 S                     0.147809
     28 C                    -0.140054
     29 C                    -0.074881
     30 C                    -0.028968
     31 C                     0.393981
     32 C                    -0.127397
     33 S                     0.077561
     34 C                     0.458775
     35 O                    -0.436930
     36 O                    -0.296523
     37 F                    -0.208221
     38 C                    -0.054727
     39 H                     0.117488
     40 H                     0.085977
     41 H                     0.085934
     42 H                     0.221059
  ----------------------------------------
  Sum of atomic charges =     0.000000

                    Cartesian Multipole Moments
 -----------------------------------------------------------------
    Charge (ESU x 10^10)
                -0.0000
    Dipole Moment (Debye)
         X       5.3765      Y       2.3330      Z       2.3257
       Tot       6.3054
    Quadrupole Moments (Debye-Ang)
        XX    -161.8125     XY       9.5071     YY    -177.1590
        XZ      -9.5321     YZ      -4.9283     ZZ    -201.5466

 Total job time:  309.17s(wall), 10096.73s(cpu)
        *  Thank you very much for using Q-Chem.  Have a nice day.  *
