 Q-Chem 5.4, Q-Chem, Inc., Pleasanton, CA (2021)
 Q-Chem 5.4.0 for Intel X86 EM64T Linux

User input:
--------------------------------------------------------------
$molecule
0 1
C	-0.235306	-8.519741	-0.136647
C	0.772334	-7.635967	0.221346
S	-1.702286	-7.651740	-0.650746
C	0.408807	-6.261894	0.090779
H	1.761423	-7.954738	0.573754
C	-0.932876	-6.079985	-0.397735
C	-1.479069	-4.798382	-0.568166
C	1.241204	-5.153542	0.418347
C	0.693206	-3.869626	0.251852
C	-0.648921	-3.688927	-0.239872
O	2.493437	-5.481075	0.842486
O	-2.737331	-4.479871	-0.993092
C	-3.416110	-5.356026	-1.884752
H	-4.284447	-4.790496	-2.273124
H	-3.793352	-6.268513	-1.373310
H	-2.766716	-5.658187	-2.734702
C	3.264581	-4.546999	1.588030
H	4.136519	-5.107564	1.974995
H	2.690439	-4.131473	2.443843
H	3.636177	-3.712085	0.955140
C	-1.009848	-2.314326	-0.367068
S	1.459936	-2.295487	0.517386
C	-0.000000	-1.435180	-0.000000
H	-1.997308	-1.993211	-0.721689
H	-0.230945	-9.615985	-0.132444
C	0.000000	0.000000	0.000000
S	0.451648	0.777811	1.510732
C	1.238377	2.142617	0.727629
C	0.454085	0.786559	-1.064665
C	1.147169	1.990043	-0.678287
C	0.422325	0.728240	-2.486150
C	1.054629	1.823683	-3.106916
S	1.675491	2.905718	-1.965735
C	1.185914	2.041729	-4.559972
O	0.721749	1.231802	-5.350277
O	1.830313	3.151386	-5.004375
F	-0.131347	-0.238577	-3.246290
C	2.018453	3.456956	-6.334976
H	2.571455	4.413580	-6.370268
H	1.052178	3.565244	-6.875609
H	2.601950	2.669768	-6.861878
H	1.698444	2.939346	1.321510
$end

$rem
JOBTYPE		SP
EXCHANGE	HF
CORRELATION	pRIMP2
BASIS		cc-pvtz
METHOD		rimp2
AUX_BASIS	rimp2-cc-pvtz
SOLVENT_METHOD	PCM
PURECART	11111
SYMMETRY	false
MEM_TOTAL	110000
SCF_CONVERGENCE = 6
THRESH=10
GUI = 2
$end

$solvent
dielectric 4.90
$end
--------------------------------------------------------------

             Standard Nuclear Orientation (Angstroms)
    I     Atom           X                Y                Z
 ----------------------------------------------------------------
    1      C      -0.2353060000    -8.5197410000    -0.1366470000
    2      C       0.7723340000    -7.6359670000     0.2213460000
    3      S      -1.7022860000    -7.6517400000    -0.6507460000
    4      C       0.4088070000    -6.2618940000     0.0907790000
    5      H       1.7614230000    -7.9547380000     0.5737540000
    6      C      -0.9328760000    -6.0799850000    -0.3977350000
    7      C      -1.4790690000    -4.7983820000    -0.5681660000
    8      C       1.2412040000    -5.1535420000     0.4183470000
    9      C       0.6932060000    -3.8696260000     0.2518520000
   10      C      -0.6489210000    -3.6889270000    -0.2398720000
   11      O       2.4934370000    -5.4810750000     0.8424860000
   12      O      -2.7373310000    -4.4798710000    -0.9930920000
   13      C      -3.4161100000    -5.3560260000    -1.8847520000
   14      H      -4.2844470000    -4.7904960000    -2.2731240000
   15      H      -3.7933520000    -6.2685130000    -1.3733100000
   16      H      -2.7667160000    -5.6581870000    -2.7347020000
   17      C       3.2645810000    -4.5469990000     1.5880300000
   18      H       4.1365190000    -5.1075640000     1.9749950000
   19      H       2.6904390000    -4.1314730000     2.4438430000
   20      H       3.6361770000    -3.7120850000     0.9551400000
   21      C      -1.0098480000    -2.3143260000    -0.3670680000
   22      S       1.4599360000    -2.2954870000     0.5173860000
   23      C       0.0000000000    -1.4351800000     0.0000000000
   24      H      -1.9973080000    -1.9932110000    -0.7216890000
   25      H      -0.2309450000    -9.6159850000    -0.1324440000
   26      C       0.0000000000     0.0000000000     0.0000000000
   27      S       0.4516480000     0.7778110000     1.5107320000
   28      C       1.2383770000     2.1426170000     0.7276290000
   29      C       0.4540850000     0.7865590000    -1.0646650000
   30      C       1.1471690000     1.9900430000    -0.6782870000
   31      C       0.4223250000     0.7282400000    -2.4861500000
   32      C       1.0546290000     1.8236830000    -3.1069160000
   33      S       1.6754910000     2.9057180000    -1.9657350000
   34      C       1.1859140000     2.0417290000    -4.5599720000
   35      O       0.7217490000     1.2318020000    -5.3502770000
   36      O       1.8303130000     3.1513860000    -5.0043750000
   37      F      -0.1313470000    -0.2385770000    -3.2462900000
   38      C       2.0184530000     3.4569560000    -6.3349760000
   39      H       2.5714550000     4.4135800000    -6.3702680000
   40      H       1.0521780000     3.5652440000    -6.8756090000
   41      H       2.6019500000     2.6697680000    -6.8618780000
   42      H       1.6984440000     2.9393460000     1.3215100000
 ----------------------------------------------------------------

   10   -2754.2797692057      8.65e-07  Convergence criterion met
 Total energy in the final basis set =    -2754.2797692057
        RIMP2         total energy =     -2759.3378189218 a.u.

                    Orbital Energies (a.u.)
 --------------------------------------------------------------

 Alpha MOs
 -- Occupied --
-92.0156 -91.9969 -91.9887 -91.9858 -26.3337 -20.6129 -20.5921 -20.5905
-20.5516 -11.4117 -11.3766 -11.3186 -11.3169 -11.3012 -11.3008 -11.3007
-11.2968 -11.2916 -11.2889 -11.2871 -11.2858 -11.2852 -11.2850 -11.2832
-11.2792 -11.2592 -11.2583 -11.2540 -11.2495  -9.0141  -9.0008  -8.9892
 -8.9857  -6.6947  -6.6941  -6.6937  -6.6820  -6.6814  -6.6800  -6.6701
 -6.6694  -6.6684  -6.6667  -6.6660  -6.6652  -1.6466  -1.4727  -1.4162
 -1.4133  -1.3683  -1.2352  -1.1949  -1.1682  -1.1425  -1.0832  -1.0511
 -1.0483  -1.0286  -1.0013  -0.9924  -0.9722  -0.9607  -0.9501  -0.9378
 -0.8953  -0.8705  -0.8486  -0.8035  -0.7921  -0.7873  -0.7726  -0.7697
 -0.7569  -0.7318  -0.7181  -0.7151  -0.7006  -0.6897  -0.6820  -0.6791
 -0.6722  -0.6602  -0.6587  -0.6520  -0.6299  -0.6194  -0.6168  -0.6075
 -0.6025  -0.5968  -0.5851  -0.5775  -0.5666  -0.5626  -0.5553  -0.5461
 -0.5369  -0.5267  -0.5228  -0.5155  -0.5142  -0.5080  -0.5021  -0.4927
 -0.4900  -0.4852  -0.4723  -0.4695  -0.4624  -0.4619  -0.4611  -0.4102
 -0.3967  -0.3862  -0.3563  -0.3498  -0.3137  -0.2907  -0.2568

          Ground-State Mulliken Net Atomic Charges

     Atom                 Charge (a.u.)
  ----------------------------------------
      1 C                    -0.188869
      2 C                    -0.255026
      3 S                    -0.022657
      4 C                    -0.014226
      5 H                     0.196077
      6 C                    -0.027495
      7 C                     0.241233
      8 C                     0.240595
      9 C                    -0.043538
     10 C                    -0.025718
     11 O                    -0.333328
     12 O                    -0.339857
     13 C                    -0.085510
     14 H                     0.122599
     15 H                     0.090436
     16 H                     0.094414
     17 C                    -0.086649
     18 H                     0.124988
     19 H                     0.094216
     20 H                     0.089723
     21 C                    -0.216623
     22 S                    -0.002809
     23 C                    -0.071348
     24 H                     0.195758
     25 H                     0.206253
     26 C                    -0.013814
     27 S                     0.117451
     28 C                    -0.215948
     29 C                    -0.080838
     30 C                    -0.004254
     31 C                     0.361913
     32 C                    -0.146223
     33 S                     0.047283
     34 C                     0.458175
     35 O                    -0.446956
     36 O                    -0.297629
     37 F                    -0.209394
     38 C                    -0.054872
     39 H                     0.116776
     40 H                     0.084780
     41 H                     0.084887
     42 H                     0.216022
  ----------------------------------------
  Sum of atomic charges =     0.000000

                    Cartesian Multipole Moments
 -----------------------------------------------------------------
    Charge (ESU x 10^10)
                 0.0000
    Dipole Moment (Debye)
         X       2.2551      Y       1.8512      Z       2.9034
       Tot       4.1161
    Quadrupole Moments (Debye-Ang)
        XX    -180.0284     XY       7.0729     YY    -163.6952
        XZ       5.8969     YZ      -8.0595     ZZ    -197.9282

 Total job time:  358.26s(wall), 11014.13s(cpu)
        *  Thank you very much for using Q-Chem.  Have a nice day.  *
