 Q-Chem 5.4, Q-Chem, Inc., Pleasanton, CA (2021)
 Q-Chem 5.4.0 for Intel X86 EM64T Linux

User input:
--------------------------------------------------------------
$molecule
0 1
C	-0.175432	-8.519741	0.208002
C	0.352097	-7.635967	-0.722164
S	-0.936458	-7.651740	1.563424
C	0.160388	-6.261894	-0.386833
H	0.870905	-7.954738	-1.635031
C	-0.553685	-6.079985	0.849637
C	-0.816372	-4.798382	1.357938
C	0.627524	-5.153542	-1.149702
C	0.368399	-3.869626	-0.638941
C	-0.348912	-3.688927	0.597409
O	1.262667	-5.481075	-2.309260
O	-1.453338	-4.479871	2.523296
C	-2.449320	-5.356026	3.036927
H	-2.982577	-4.790496	3.824632
H	-2.011155	-6.268513	3.497250
H	-3.173591	-5.658187	2.249807
C	2.130793	-4.546999	-2.939226
H	2.663289	-5.107564	-3.730721
H	2.873906	-4.131473	-2.225196
H	1.572045	-3.712085	-3.415077
C	-0.536849	-2.314326	0.930765
S	0.763041	-2.295487	-1.347913
C	0.000000	-1.435180	0.000000
H	-1.057554	-1.993211	1.841645
H	-0.170535	-9.615985	0.204438
C	0.000000	0.000000	0.000000
S	0.309721	0.844422	1.510732
C	0.847502	2.325108	0.727629
C	0.310602	0.853460	-1.064665
C	0.784173	2.159014	-0.678287
C	0.289451	0.790512	-2.486150
C	0.721927	1.979112	-3.106916
S	1.145464	3.152519	-1.965735
C	0.813355	2.216642	-4.559972
O	0.496884	1.338418	-5.350277
O	1.255274	3.421340	-5.004375
F	-0.087923	-0.257761	-3.246290
C	1.387494	3.754937	-6.334976
H	1.765978	4.793056	-6.370268
H	0.417095	3.693789	-6.875609
H	2.098820	3.081033	-6.861878
H	1.162229	3.189623	1.321510
$end

$rem
JOBTYPE		SP
EXCHANGE	HF
CORRELATION	pRIMP2
BASIS		cc-pvtz
METHOD		rimp2
AUX_BASIS	rimp2-cc-pvtz
SOLVENT_METHOD	PCM
PURECART	11111
SYMMETRY	false
MEM_TOTAL	110000
SCF_CONVERGENCE = 6
THRESH=10
GUI = 2
$end

$solvent
dielectric 4.90
$end
--------------------------------------------------------------

             Standard Nuclear Orientation (Angstroms)
    I     Atom           X                Y                Z
 ----------------------------------------------------------------
    1      C      -0.1754320000    -8.5197410000     0.2080020000
    2      C       0.3520970000    -7.6359670000    -0.7221640000
    3      S      -0.9364580000    -7.6517400000     1.5634240000
    4      C       0.1603880000    -6.2618940000    -0.3868330000
    5      H       0.8709050000    -7.9547380000    -1.6350310000
    6      C      -0.5536850000    -6.0799850000     0.8496370000
    7      C      -0.8163720000    -4.7983820000     1.3579380000
    8      C       0.6275240000    -5.1535420000    -1.1497020000
    9      C       0.3683990000    -3.8696260000    -0.6389410000
   10      C      -0.3489120000    -3.6889270000     0.5974090000
   11      O       1.2626670000    -5.4810750000    -2.3092600000
   12      O      -1.4533380000    -4.4798710000     2.5232960000
   13      C      -2.4493200000    -5.3560260000     3.0369270000
   14      H      -2.9825770000    -4.7904960000     3.8246320000
   15      H      -2.0111550000    -6.2685130000     3.4972500000
   16      H      -3.1735910000    -5.6581870000     2.2498070000
   17      C       2.1307930000    -4.5469990000    -2.9392260000
   18      H       2.6632890000    -5.1075640000    -3.7307210000
   19      H       2.8739060000    -4.1314730000    -2.2251960000
   20      H       1.5720450000    -3.7120850000    -3.4150770000
   21      C      -0.5368490000    -2.3143260000     0.9307650000
   22      S       0.7630410000    -2.2954870000    -1.3479130000
   23      C       0.0000000000    -1.4351800000     0.0000000000
   24      H      -1.0575540000    -1.9932110000     1.8416450000
   25      H      -0.1705350000    -9.6159850000     0.2044380000
   26      C       0.0000000000     0.0000000000     0.0000000000
   27      S       0.3097210000     0.8444220000     1.5107320000
   28      C       0.8475020000     2.3251080000     0.7276290000
   29      C       0.3106020000     0.8534600000    -1.0646650000
   30      C       0.7841730000     2.1590140000    -0.6782870000
   31      C       0.2894510000     0.7905120000    -2.4861500000
   32      C       0.7219270000     1.9791120000    -3.1069160000
   33      S       1.1454640000     3.1525190000    -1.9657350000
   34      C       0.8133550000     2.2166420000    -4.5599720000
   35      O       0.4968840000     1.3384180000    -5.3502770000
   36      O       1.2552740000     3.4213400000    -5.0043750000
   37      F      -0.0879230000    -0.2577610000    -3.2462900000
   38      C       1.3874940000     3.7549370000    -6.3349760000
   39      H       1.7659780000     4.7930560000    -6.3702680000
   40      H       0.4170950000     3.6937890000    -6.8756090000
   41      H       2.0988200000     3.0810330000    -6.8618780000
   42      H       1.1622290000     3.1896230000     1.3215100000
 ----------------------------------------------------------------

   10   -2754.2887004848      8.37e-07  Convergence criterion met
 Total energy in the final basis set =    -2754.2887004848
        RIMP2         total energy =     -2759.3465600766 a.u.

                    Orbital Energies (a.u.)
 --------------------------------------------------------------

 Alpha MOs
 -- Occupied --
-92.0156 -91.9961 -91.9876 -91.9860 -26.3343 -20.6124 -20.5916 -20.5915
-20.5505 -11.4108 -11.3781 -11.3187 -11.3175 -11.3099 -11.2985 -11.2978
-11.2961 -11.2960 -11.2887 -11.2861 -11.2861 -11.2855 -11.2836 -11.2832
-11.2794 -11.2611 -11.2585 -11.2562 -11.2497  -9.0140  -9.0001  -8.9883
 -8.9860  -6.6947  -6.6941  -6.6936  -6.6813  -6.6806  -6.6793  -6.6692
 -6.6685  -6.6675  -6.6669  -6.6663  -6.6655  -1.6486  -1.4722  -1.4158
 -1.4141  -1.3675  -1.2350  -1.1958  -1.1687  -1.1424  -1.0845  -1.0520
 -1.0481  -1.0289  -1.0021  -0.9933  -0.9724  -0.9605  -0.9499  -0.9386
 -0.8956  -0.8701  -0.8506  -0.8086  -0.7933  -0.7869  -0.7751  -0.7642
 -0.7578  -0.7323  -0.7196  -0.7166  -0.7002  -0.6889  -0.6831  -0.6788
 -0.6727  -0.6617  -0.6585  -0.6523  -0.6284  -0.6196  -0.6164  -0.6069
 -0.6031  -0.5957  -0.5857  -0.5734  -0.5688  -0.5640  -0.5582  -0.5523
 -0.5315  -0.5267  -0.5247  -0.5164  -0.5149  -0.5082  -0.5020  -0.4960
 -0.4874  -0.4842  -0.4783  -0.4667  -0.4619  -0.4616  -0.4590  -0.4205
 -0.3951  -0.3868  -0.3600  -0.3497  -0.3231  -0.2851  -0.2484

          Ground-State Mulliken Net Atomic Charges

     Atom                 Charge (a.u.)
  ----------------------------------------
      1 C                    -0.188774
      2 C                    -0.254476
      3 S                    -0.023522
      4 C                    -0.015717
      5 H                     0.196489
      6 C                    -0.027493
      7 C                     0.238856
      8 C                     0.241068
      9 C                    -0.044474
     10 C                    -0.008490
     11 O                    -0.333300
     12 O                    -0.340193
     13 C                    -0.085556
     14 H                     0.122182
     15 H                     0.091041
     16 H                     0.094311
     17 C                    -0.089608
     18 H                     0.125654
     19 H                     0.094062
     20 H                     0.091713
     21 C                    -0.264330
     22 S                    -0.011590
     23 C                     0.008129
     24 H                     0.191992
     25 H                     0.206388
     26 C                     0.029628
     27 S                     0.118908
     28 C                    -0.237066
     29 C                    -0.134115
     30 C                    -0.009725
     31 C                     0.362572
     32 C                    -0.140142
     33 S                     0.043901
     34 C                     0.460013
     35 O                    -0.449473
     36 O                    -0.297952
     37 F                    -0.207310
     38 C                    -0.054806
     39 H                     0.116756
     40 H                     0.084770
     41 H                     0.084376
     42 H                     0.215303
  ----------------------------------------
  Sum of atomic charges =     0.000000

                    Cartesian Multipole Moments
 -----------------------------------------------------------------
    Charge (ESU x 10^10)
                 0.0000
    Dipole Moment (Debye)
         X       1.1401      Y       1.7422      Z       2.8351
       Tot       3.5175
    Quadrupole Moments (Debye-Ang)
        XX    -188.1359     XY       6.5926     YY    -161.5701
        XZ     -16.4514     YZ      -9.2374     ZZ    -192.5811

 Total job time:  314.44s(wall), 10407.67s(cpu)
        *  Thank you very much for using Q-Chem.  Have a nice day.  *
