 Q-Chem 5.4, Q-Chem, Inc., Pleasanton, CA (2021)
 Q-Chem 5.4.0 for Intel X86 EM64T Linux

User input:
--------------------------------------------------------------
$molecule
0 1
C	-0.000687	-8.519741	0.272104
C	-0.194476	-7.635967	-0.779533
S	0.287581	-7.651740	1.799596
C	-0.125787	-6.261894	-0.399427
H	-0.383826	-7.954738	-1.812314
C	0.121989	-6.079985	1.006762
C	0.247488	-4.798382	1.564994
C	-0.258303	-5.153542	-1.284087
C	-0.128493	-3.869626	-0.726260
C	0.116725	-3.688927	0.681918
O	-0.517104	-5.481075	-2.580622
O	0.508622	-4.479871	2.867144
C	0.075811	-5.356026	3.900814
H	0.173640	-4.790496	4.847002
H	0.707354	-6.268513	3.971794
H	-0.984963	-5.658187	3.763397
C	-0.257016	-4.546999	-3.621225
H	-0.357864	-5.107564	-4.569828
H	0.771211	-4.131473	-3.551910
H	-0.990913	-3.712085	-3.626592
C	0.187034	-2.314326	1.058088
S	-0.281899	-2.295487	-1.523035
C	-0.000000	-1.435180	-0.000000
H	0.373653	-1.993211	2.090565
H	0.000773	-9.615985	0.266226
C	0.000000	0.000000	0.000000
S	0.690437	0.576430	1.510732
C	1.896512	1.589852	0.727629
C	0.695720	0.583817	-1.064665
C	1.758621	1.477674	-0.678287
C	0.645928	0.539878	-2.486150
C	1.614763	1.352997	-3.106916
S	2.568261	2.157430	-1.965735
C	1.812707	1.512991	-4.559972
O	1.099523	0.910662	-5.350277
O	2.797769	2.335330	-5.004375
F	-0.205024	-0.179266	-3.246290
C	3.079074	2.558124	-6.334976
H	3.925910	3.267919	-6.370268
H	2.208109	2.990367	-6.875609
H	3.358147	1.618843	-6.861878
H	2.601331	2.181180	1.321510
$end

$rem
JOBTYPE		SP
EXCHANGE	HF
CORRELATION	pRIMP2
BASIS		cc-pvtz
METHOD		rimp2
AUX_BASIS	rimp2-cc-pvtz
SOLVENT_METHOD	PCM
PURECART	11111
SYMMETRY	false
MEM_TOTAL	110000
SCF_CONVERGENCE = 6
THRESH=10
GUI = 2
$end

$solvent
dielectric 4.90
$end
--------------------------------------------------------------

             Standard Nuclear Orientation (Angstroms)
    I     Atom           X                Y                Z
 ----------------------------------------------------------------
    1      C      -0.0006870000    -8.5197410000     0.2721040000
    2      C      -0.1944760000    -7.6359670000    -0.7795330000
    3      S       0.2875810000    -7.6517400000     1.7995960000
    4      C      -0.1257870000    -6.2618940000    -0.3994270000
    5      H      -0.3838260000    -7.9547380000    -1.8123140000
    6      C       0.1219890000    -6.0799850000     1.0067620000
    7      C       0.2474880000    -4.7983820000     1.5649940000
    8      C      -0.2583030000    -5.1535420000    -1.2840870000
    9      C      -0.1284930000    -3.8696260000    -0.7262600000
   10      C       0.1167250000    -3.6889270000     0.6819180000
   11      O      -0.5171040000    -5.4810750000    -2.5806220000
   12      O       0.5086220000    -4.4798710000     2.8671440000
   13      C       0.0758110000    -5.3560260000     3.9008140000
   14      H       0.1736400000    -4.7904960000     4.8470020000
   15      H       0.7073540000    -6.2685130000     3.9717940000
   16      H      -0.9849630000    -5.6581870000     3.7633970000
   17      C      -0.2570160000    -4.5469990000    -3.6212250000
   18      H      -0.3578640000    -5.1075640000    -4.5698280000
   19      H       0.7712110000    -4.1314730000    -3.5519100000
   20      H      -0.9909130000    -3.7120850000    -3.6265920000
   21      C       0.1870340000    -2.3143260000     1.0580880000
   22      S      -0.2818990000    -2.2954870000    -1.5230350000
   23      C       0.0000000000    -1.4351800000     0.0000000000
   24      H       0.3736530000    -1.9932110000     2.0905650000
   25      H       0.0007730000    -9.6159850000     0.2662260000
   26      C       0.0000000000     0.0000000000     0.0000000000
   27      S       0.6904370000     0.5764300000     1.5107320000
   28      C       1.8965120000     1.5898520000     0.7276290000
   29      C       0.6957200000     0.5838170000    -1.0646650000
   30      C       1.7586210000     1.4776740000    -0.6782870000
   31      C       0.6459280000     0.5398780000    -2.4861500000
   32      C       1.6147630000     1.3529970000    -3.1069160000
   33      S       2.5682610000     2.1574300000    -1.9657350000
   34      C       1.8127070000     1.5129910000    -4.5599720000
   35      O       1.0995230000     0.9106620000    -5.3502770000
   36      O       2.7977690000     2.3353300000    -5.0043750000
   37      F      -0.2050240000    -0.1792660000    -3.2462900000
   38      C       3.0790740000     2.5581240000    -6.3349760000
   39      H       3.9259100000     3.2679190000    -6.3702680000
   40      H       2.2081090000     2.9903670000    -6.8756090000
   41      H       3.3581470000     1.6188430000    -6.8618780000
   42      H       2.6013310000     2.1811800000     1.3215100000
 ----------------------------------------------------------------

   11   -2754.2466384393      5.92e-07  Convergence criterion met
 Total energy in the final basis set =    -2754.2466384393
        RIMP2         total energy =     -2759.3169088561 a.u.

                    Orbital Energies (a.u.)
 --------------------------------------------------------------

 Alpha MOs
 -- Occupied --
-92.0152 -92.0051 -91.9828 -91.9802 -26.3364 -20.6161 -20.5894 -20.5872
-20.5569 -11.4164 -11.3785 -11.3201 -11.3158 -11.3112 -11.3097 -11.3018
-11.2973 -11.2957 -11.2907 -11.2892 -11.2842 -11.2840 -11.2804 -11.2771
-11.2744 -11.2567 -11.2519 -11.2471 -11.2399  -9.0143  -9.0087  -8.9828
 -8.9815  -6.6950  -6.6942  -6.6939  -6.6899  -6.6892  -6.6879  -6.6638
 -6.6631  -6.6624  -6.6623  -6.6617  -6.6606  -1.6518  -1.4763  -1.4134
 -1.4100  -1.3724  -1.2432  -1.1920  -1.1694  -1.1439  -1.0843  -1.0522
 -1.0468  -1.0340  -0.9984  -0.9920  -0.9762  -0.9569  -0.9473  -0.9389
 -0.8920  -0.8762  -0.8454  -0.8107  -0.7968  -0.7867  -0.7760  -0.7619
 -0.7545  -0.7290  -0.7231  -0.7184  -0.6982  -0.6916  -0.6823  -0.6803
 -0.6778  -0.6628  -0.6558  -0.6496  -0.6256  -0.6164  -0.6140  -0.6114
 -0.6061  -0.6041  -0.5868  -0.5690  -0.5661  -0.5633  -0.5546  -0.5515
 -0.5337  -0.5243  -0.5194  -0.5190  -0.5120  -0.5075  -0.5033  -0.4933
 -0.4867  -0.4827  -0.4747  -0.4664  -0.4645  -0.4610  -0.4511  -0.4256
 -0.3895  -0.3830  -0.3586  -0.3505  -0.3232  -0.2864  -0.2435

          Ground-State Mulliken Net Atomic Charges

     Atom                 Charge (a.u.)
  ----------------------------------------
      1 C                    -0.199206
      2 C                    -0.252772
      3 S                    -0.029334
      4 C                    -0.022952
      5 H                     0.195358
      6 C                    -0.022918
      7 C                     0.227164
      8 C                     0.244303
      9 C                    -0.046634
     10 C                    -0.008820
     11 O                    -0.333901
     12 O                    -0.342662
     13 C                    -0.085545
     14 H                     0.120692
     15 H                     0.090195
     16 H                     0.092835
     17 C                    -0.087425
     18 H                     0.124462
     19 H                     0.093640
     20 H                     0.090878
     21 C                    -0.285319
     22 S                    -0.037639
     23 C                     0.001631
     24 H                     0.183371
     25 H                     0.204544
     26 C                    -0.080304
     27 S                     0.112075
     28 C                    -0.156589
     29 C                    -0.009859
     30 C                    -0.043418
     31 C                     0.332229
     32 C                    -0.106081
     33 S                     0.069900
     34 C                     0.456207
     35 O                    -0.439969
     36 O                    -0.296633
     37 F                    -0.207642
     38 C                    -0.054512
     39 H                     0.117646
     40 H                     0.085617
     41 H                     0.085525
     42 H                     0.221861
  ----------------------------------------
  Sum of atomic charges =     0.000000

                    Cartesian Multipole Moments
 -----------------------------------------------------------------
    Charge (ESU x 10^10)
                 0.0000
    Dipole Moment (Debye)
         X       3.9257      Y       3.5368      Z       2.0541
       Tot       5.6691
    Quadrupole Moments (Debye-Ang)
        XX    -189.7853     XY      11.6797     YY    -178.6049
        XZ     -11.1668     YZ      -6.7511     ZZ    -178.2454

 Total job time:  306.09s(wall), 9930.68s(cpu)
        *  Thank you very much for using Q-Chem.  Have a nice day.  *
