 Q-Chem 5.4, Q-Chem, Inc., Pleasanton, CA (2021)
 Q-Chem 5.4.0 for Intel X86 EM64T Linux

User input:
--------------------------------------------------------------
$molecule
0 1
C	-0.135457	-8.519741	-0.235993
C	0.558188	-7.635967	0.577858
S	-1.148850	-7.651740	-1.414705
C	0.308648	-6.261894	0.283020
H	1.238560	-7.954738	1.377597
C	-0.609026	-6.079985	-0.810887
C	-0.996828	-4.798382	-1.231581
C	0.865740	-5.153542	0.982901
C	0.474408	-3.869626	0.564713
C	-0.442046	-3.688927	-0.532196
O	1.738137	-5.481075	1.976332
O	-1.874052	-4.479871	-2.228709
C	-2.016062	-5.356026	-3.340298
H	-2.573877	-4.790496	-4.110807
H	-2.598484	-6.268513	-3.085998
H	-1.028695	-5.658187	-3.751679
C	2.033195	-4.546999	3.007565
H	2.594833	-5.107564	3.778655
H	1.108067	-4.131473	3.461650
H	2.671451	-3.712085	2.645264
C	-0.691020	-2.314326	-0.822814
S	1.005649	-2.295487	1.178037
C	-0.000000	-1.435180	-0.000000
H	-1.368875	-1.993211	-1.623656
H	-0.133782	-9.615985	-0.230172
C	0.000000	0.000000	0.000000
S	0.451648	0.777811	1.510732
C	1.238377	2.142617	0.727629
C	0.454085	0.786559	-1.064665
C	1.147169	1.990043	-0.678287
C	0.422325	0.728240	-2.486150
C	1.054629	1.823683	-3.106916
S	1.675491	2.905718	-1.965735
C	1.185914	2.041729	-4.559972
O	0.721749	1.231802	-5.350277
O	1.830313	3.151386	-5.004375
F	-0.131347	-0.238577	-3.246290
C	2.018453	3.456956	-6.334976
H	2.571455	4.413580	-6.370268
H	1.052178	3.565244	-6.875609
H	2.601950	2.669768	-6.861878
H	1.698444	2.939346	1.321510
$end

$rem
JOBTYPE		SP
EXCHANGE	HF
CORRELATION	pRIMP2
BASIS		cc-pvtz
METHOD		rimp2
AUX_BASIS	rimp2-cc-pvtz
SOLVENT_METHOD	PCM
PURECART	11111
SYMMETRY	false
MEM_TOTAL	110000
SCF_CONVERGENCE = 6
THRESH=10
GUI = 2
$end

$solvent
dielectric 4.90
$end
--------------------------------------------------------------

             Standard Nuclear Orientation (Angstroms)
    I     Atom           X                Y                Z
 ----------------------------------------------------------------
    1      C      -0.1354570000    -8.5197410000    -0.2359930000
    2      C       0.5581880000    -7.6359670000     0.5778580000
    3      S      -1.1488500000    -7.6517400000    -1.4147050000
    4      C       0.3086480000    -6.2618940000     0.2830200000
    5      H       1.2385600000    -7.9547380000     1.3775970000
    6      C      -0.6090260000    -6.0799850000    -0.8108870000
    7      C      -0.9968280000    -4.7983820000    -1.2315810000
    8      C       0.8657400000    -5.1535420000     0.9829010000
    9      C       0.4744080000    -3.8696260000     0.5647130000
   10      C      -0.4420460000    -3.6889270000    -0.5321960000
   11      O       1.7381370000    -5.4810750000     1.9763320000
   12      O      -1.8740520000    -4.4798710000    -2.2287090000
   13      C      -2.0160620000    -5.3560260000    -3.3402980000
   14      H      -2.5738770000    -4.7904960000    -4.1108070000
   15      H      -2.5984840000    -6.2685130000    -3.0859980000
   16      H      -1.0286950000    -5.6581870000    -3.7516790000
   17      C       2.0331950000    -4.5469990000     3.0075650000
   18      H       2.5948330000    -5.1075640000     3.7786550000
   19      H       1.1080670000    -4.1314730000     3.4616500000
   20      H       2.6714510000    -3.7120850000     2.6452640000
   21      C      -0.6910200000    -2.3143260000    -0.8228140000
   22      S       1.0056490000    -2.2954870000     1.1780370000
   23      C       0.0000000000    -1.4351800000     0.0000000000
   24      H      -1.3688750000    -1.9932110000    -1.6236560000
   25      H      -0.1337820000    -9.6159850000    -0.2301720000
   26      C       0.0000000000     0.0000000000     0.0000000000
   27      S       0.4516480000     0.7778110000     1.5107320000
   28      C       1.2383770000     2.1426170000     0.7276290000
   29      C       0.4540850000     0.7865590000    -1.0646650000
   30      C       1.1471690000     1.9900430000    -0.6782870000
   31      C       0.4223250000     0.7282400000    -2.4861500000
   32      C       1.0546290000     1.8236830000    -3.1069160000
   33      S       1.6754910000     2.9057180000    -1.9657350000
   34      C       1.1859140000     2.0417290000    -4.5599720000
   35      O       0.7217490000     1.2318020000    -5.3502770000
   36      O       1.8303130000     3.1513860000    -5.0043750000
   37      F      -0.1313470000    -0.2385770000    -3.2462900000
   38      C       2.0184530000     3.4569560000    -6.3349760000
   39      H       2.5714550000     4.4135800000    -6.3702680000
   40      H       1.0521780000     3.5652440000    -6.8756090000
   41      H       2.6019500000     2.6697680000    -6.8618780000
   42      H       1.6984440000     2.9393460000     1.3215100000
 ----------------------------------------------------------------

   10   -2754.2808553301      8.27e-07  Convergence criterion met
 Total energy in the final basis set =    -2754.2808553301
        RIMP2         total energy =     -2759.3406875828 a.u.

                    Orbital Energies (a.u.)
 --------------------------------------------------------------

 Alpha MOs
 -- Occupied --
-92.0163 -91.9974 -91.9907 -91.9854 -26.3350 -20.6129 -20.5923 -20.5897
-20.5515 -11.4116 -11.3775 -11.3189 -11.3158 -11.3049 -11.3006 -11.3004
-11.2981 -11.2948 -11.2889 -11.2874 -11.2860 -11.2846 -11.2841 -11.2832
-11.2786 -11.2600 -11.2574 -11.2513 -11.2493  -9.0149  -9.0013  -8.9911
 -8.9853  -6.6956  -6.6950  -6.6946  -6.6826  -6.6819  -6.6806  -6.6720
 -6.6713  -6.6703  -6.6663  -6.6657  -6.6648  -1.6481  -1.4727  -1.4163
 -1.4125  -1.3682  -1.2361  -1.1952  -1.1690  -1.1430  -1.0836  -1.0511
 -1.0490  -1.0293  -1.0016  -0.9928  -0.9730  -0.9603  -0.9499  -0.9380
 -0.8957  -0.8711  -0.8492  -0.8035  -0.7945  -0.7875  -0.7714  -0.7706
 -0.7566  -0.7312  -0.7195  -0.7163  -0.7006  -0.6900  -0.6821  -0.6792
 -0.6729  -0.6610  -0.6587  -0.6515  -0.6289  -0.6190  -0.6160  -0.6076
 -0.6020  -0.5972  -0.5878  -0.5761  -0.5673  -0.5610  -0.5550  -0.5449
 -0.5374  -0.5275  -0.5217  -0.5164  -0.5163  -0.5087  -0.5041  -0.4945
 -0.4866  -0.4859  -0.4746  -0.4689  -0.4621  -0.4620  -0.4605  -0.4187
 -0.3965  -0.3848  -0.3568  -0.3507  -0.3213  -0.2874  -0.2497

          Ground-State Mulliken Net Atomic Charges

     Atom                 Charge (a.u.)
  ----------------------------------------
      1 C                    -0.190505
      2 C                    -0.254799
      3 S                    -0.022881
      4 C                    -0.015978
      5 H                     0.195946
      6 C                    -0.026710
      7 C                     0.238448
      8 C                     0.241215
      9 C                    -0.049674
     10 C                    -0.022280
     11 O                    -0.333063
     12 O                    -0.339859
     13 C                    -0.085549
     14 H                     0.123029
     15 H                     0.090459
     16 H                     0.093785
     17 C                    -0.087590
     18 H                     0.125385
     19 H                     0.094442
     20 H                     0.089369
     21 C                    -0.241138
     22 S                    -0.013112
     23 C                    -0.033199
     24 H                     0.193409
     25 H                     0.206019
     26 C                    -0.011884
     27 S                     0.096702
     28 C                    -0.209932
     29 C                    -0.055850
     30 C                    -0.017719
     31 C                     0.362127
     32 C                    -0.135684
     33 S                     0.047717
     34 C                     0.456656
     35 O                    -0.447736
     36 O                    -0.297767
     37 F                    -0.210370
     38 C                    -0.054846
     39 H                     0.116822
     40 H                     0.084705
     41 H                     0.084822
     42 H                     0.217066
  ----------------------------------------
  Sum of atomic charges =     0.000000

                    Cartesian Multipole Moments
 -----------------------------------------------------------------
    Charge (ESU x 10^10)
                 0.0000
    Dipole Moment (Debye)
         X       2.3565      Y       1.9967      Z       3.0556
       Tot       4.3448
    Quadrupole Moments (Debye-Ang)
        XX    -192.5823     XY       6.1746     YY    -164.7010
        XZ       4.4123     YZ      -8.5685     ZZ    -185.5033

 Total job time:  319.80s(wall), 10584.57s(cpu)
        *  Thank you very much for using Q-Chem.  Have a nice day.  *
