 Q-Chem 5.4, Q-Chem, Inc., Pleasanton, CA (2021)
 Q-Chem 5.4.0 for Intel X86 EM64T Linux

User input:
--------------------------------------------------------------
$molecule
0 1
C	0.136647	-8.519741	-0.235306
C	-0.221346	-7.635967	0.772334
S	0.650746	-7.651740	-1.702286
C	-0.090779	-6.261894	0.408807
H	-0.573754	-7.954738	1.761423
C	0.397735	-6.079985	-0.932876
C	0.568166	-4.798382	-1.479069
C	-0.418347	-5.153542	1.241204
C	-0.251852	-3.869626	0.693206
C	0.239872	-3.688927	-0.648921
O	-0.842486	-5.481075	2.493437
O	0.993092	-4.479871	-2.737331
C	1.884752	-5.356026	-3.416110
H	2.273124	-4.790496	-4.284447
H	1.373310	-6.268513	-3.793352
H	2.734702	-5.658187	-2.766716
C	-1.588030	-4.546999	3.264581
H	-1.974995	-5.107564	4.136519
H	-2.443843	-4.131473	2.690439
H	-0.955140	-3.712085	3.636177
C	0.367068	-2.314326	-1.009848
S	-0.517386	-2.295487	1.459936
C	-0.000000	-1.435180	-0.000000
H	0.721689	-1.993211	-1.997308
H	0.132444	-9.615985	-0.230945
C	0.000000	0.000000	0.000000
S	0.579852	0.687566	1.510732
C	1.591625	1.895024	0.727629
C	0.583771	0.695758	-1.064665
C	1.475308	1.760606	-0.678287
C	0.542366	0.643841	-2.486150
C	1.355286	1.612843	-3.106916
S	2.154609	2.570627	-1.965735
C	1.522440	1.804778	-4.559972
O	0.924684	1.087757	-5.350277
O	2.349739	2.785679	-5.004375
F	-0.170780	-0.212144	-3.246290
C	2.588082	3.053936	-6.334976
H	3.298799	3.899999	-6.370268
H	1.655291	3.328371	-6.875609
H	3.026021	2.177385	-6.861878
H	2.183053	2.599759	1.321510
$end

$rem
JOBTYPE		SP
EXCHANGE	HF
CORRELATION	pRIMP2
BASIS		cc-pvtz
METHOD		rimp2
AUX_BASIS	rimp2-cc-pvtz
SOLVENT_METHOD	PCM
PURECART	11111
SYMMETRY	false
MEM_TOTAL	110000
SCF_CONVERGENCE = 6
THRESH=10
GUI = 2
$end

$solvent
dielectric 4.90
$end
--------------------------------------------------------------

             Standard Nuclear Orientation (Angstroms)
    I     Atom           X                Y                Z
 ----------------------------------------------------------------
    1      C       0.1366470000    -8.5197410000    -0.2353060000
    2      C      -0.2213460000    -7.6359670000     0.7723340000
    3      S       0.6507460000    -7.6517400000    -1.7022860000
    4      C      -0.0907790000    -6.2618940000     0.4088070000
    5      H      -0.5737540000    -7.9547380000     1.7614230000
    6      C       0.3977350000    -6.0799850000    -0.9328760000
    7      C       0.5681660000    -4.7983820000    -1.4790690000
    8      C      -0.4183470000    -5.1535420000     1.2412040000
    9      C      -0.2518520000    -3.8696260000     0.6932060000
   10      C       0.2398720000    -3.6889270000    -0.6489210000
   11      O      -0.8424860000    -5.4810750000     2.4934370000
   12      O       0.9930920000    -4.4798710000    -2.7373310000
   13      C       1.8847520000    -5.3560260000    -3.4161100000
   14      H       2.2731240000    -4.7904960000    -4.2844470000
   15      H       1.3733100000    -6.2685130000    -3.7933520000
   16      H       2.7347020000    -5.6581870000    -2.7667160000
   17      C      -1.5880300000    -4.5469990000     3.2645810000
   18      H      -1.9749950000    -5.1075640000     4.1365190000
   19      H      -2.4438430000    -4.1314730000     2.6904390000
   20      H      -0.9551400000    -3.7120850000     3.6361770000
   21      C       0.3670680000    -2.3143260000    -1.0098480000
   22      S      -0.5173860000    -2.2954870000     1.4599360000
   23      C       0.0000000000    -1.4351800000     0.0000000000
   24      H       0.7216890000    -1.9932110000    -1.9973080000
   25      H       0.1324440000    -9.6159850000    -0.2309450000
   26      C       0.0000000000     0.0000000000     0.0000000000
   27      S       0.5798520000     0.6875660000     1.5107320000
   28      C       1.5916250000     1.8950240000     0.7276290000
   29      C       0.5837710000     0.6957580000    -1.0646650000
   30      C       1.4753080000     1.7606060000    -0.6782870000
   31      C       0.5423660000     0.6438410000    -2.4861500000
   32      C       1.3552860000     1.6128430000    -3.1069160000
   33      S       2.1546090000     2.5706270000    -1.9657350000
   34      C       1.5224400000     1.8047780000    -4.5599720000
   35      O       0.9246840000     1.0877570000    -5.3502770000
   36      O       2.3497390000     2.7856790000    -5.0043750000
   37      F      -0.1707800000    -0.2121440000    -3.2462900000
   38      C       2.5880820000     3.0539360000    -6.3349760000
   39      H       3.2987990000     3.8999990000    -6.3702680000
   40      H       1.6552910000     3.3283710000    -6.8756090000
   41      H       3.0260210000     2.1773850000    -6.8618780000
   42      H       2.1830530000     2.5997590000     1.3215100000
 ----------------------------------------------------------------

   11   -2754.2691260839      4.53e-07  Convergence criterion met
 Total energy in the final basis set =    -2754.2691260839
        RIMP2         total energy =     -2759.3338473695 a.u.

                    Orbital Energies (a.u.)
 --------------------------------------------------------------

 Alpha MOs
 -- Occupied --
-92.0171 -92.0012 -91.9861 -91.9850 -26.3363 -20.6142 -20.5918 -20.5891
-20.5536 -11.4134 -11.3778 -11.3182 -11.3147 -11.3088 -11.3047 -11.3002
-11.2984 -11.2963 -11.2896 -11.2877 -11.2868 -11.2844 -11.2836 -11.2826
-11.2776 -11.2597 -11.2563 -11.2490 -11.2489  -9.0159  -9.0049  -8.9871
 -8.9849  -6.6966  -6.6959  -6.6955  -6.6861  -6.6855  -6.6842  -6.6681
 -6.6674  -6.6664  -6.6659  -6.6652  -6.6644  -1.6500  -1.4741  -1.4157
 -1.4119  -1.3698  -1.2388  -1.1946  -1.1694  -1.1441  -1.0842  -1.0515
 -1.0494  -1.0310  -1.0007  -0.9930  -0.9744  -0.9596  -0.9494  -0.9387
 -0.8952  -0.8729  -0.8477  -0.8036  -0.7972  -0.7875  -0.7725  -0.7709
 -0.7558  -0.7319  -0.7219  -0.7177  -0.7002  -0.6914  -0.6815  -0.6795
 -0.6750  -0.6619  -0.6581  -0.6511  -0.6269  -0.6185  -0.6150  -0.6091
 -0.6048  -0.5993  -0.5843  -0.5746  -0.5685  -0.5607  -0.5560  -0.5465
 -0.5342  -0.5268  -0.5244  -0.5172  -0.5158  -0.5083  -0.5064  -0.4967
 -0.4871  -0.4848  -0.4752  -0.4671  -0.4630  -0.4624  -0.4581  -0.4219
 -0.3965  -0.3836  -0.3573  -0.3516  -0.3244  -0.2856  -0.2467

          Ground-State Mulliken Net Atomic Charges

     Atom                 Charge (a.u.)
  ----------------------------------------
      1 C                    -0.192707
      2 C                    -0.254415
      3 S                    -0.023817
      4 C                    -0.018740
      5 H                     0.195714
      6 C                    -0.026717
      7 C                     0.241048
      8 C                     0.245194
      9 C                    -0.041867
     10 C                    -0.023919
     11 O                    -0.333539
     12 O                    -0.340370
     13 C                    -0.086121
     14 H                     0.122963
     15 H                     0.090983
     16 H                     0.092964
     17 C                    -0.087541
     18 H                     0.125602
     19 H                     0.095091
     20 H                     0.089029
     21 C                    -0.229887
     22 S                    -0.044374
     23 C                    -0.008153
     24 H                     0.194495
     25 H                     0.205720
     26 C                    -0.036488
     27 S                     0.122663
     28 C                    -0.204142
     29 C                    -0.072950
     30 C                    -0.022923
     31 C                     0.338168
     32 C                    -0.130324
     33 S                     0.061491
     34 C                     0.459982
     35 O                    -0.444778
     36 O                    -0.297546
     37 F                    -0.212179
     38 C                    -0.054548
     39 H                     0.117107
     40 H                     0.085258
     41 H                     0.084921
     42 H                     0.219654
  ----------------------------------------
  Sum of atomic charges =     0.000000

                    Cartesian Multipole Moments
 -----------------------------------------------------------------
    Charge (ESU x 10^10)
                 0.0000
    Dipole Moment (Debye)
         X       3.1941      Y       2.4451      Z       3.2098
       Tot       5.1462
    Quadrupole Moments (Debye-Ang)
        XX    -186.6002     XY       7.8381     YY    -168.5255
        XZ     -19.0407     YZ      -9.3730     ZZ    -187.3317

 Total job time:  304.56s(wall), 9810.82s(cpu)
        *  Thank you very much for using Q-Chem.  Have a nice day.  *
