 Q-Chem 5.4, Q-Chem, Inc., Pleasanton, CA (2021)
 Q-Chem 5.4.0 for Intel X86 EM64T Linux

User input:
--------------------------------------------------------------
$molecule
0 1
C	0.208002	-8.519741	0.175432
C	-0.722164	-7.635967	-0.352097
S	1.563424	-7.651740	0.936458
C	-0.386833	-6.261894	-0.160388
H	-1.635031	-7.954738	-0.870905
C	0.849637	-6.079985	0.553685
C	1.357938	-4.798382	0.816372
C	-1.149702	-5.153542	-0.627524
C	-0.638941	-3.869626	-0.368399
C	0.597409	-3.688927	0.348912
O	-2.309260	-5.481075	-1.262667
O	2.523296	-4.479871	1.453338
C	3.036927	-5.356026	2.449320
H	3.824632	-4.790496	2.982577
H	3.497250	-6.268513	2.011155
H	2.249807	-5.658187	3.173591
C	-2.939226	-4.546999	-2.130793
H	-3.730721	-5.107564	-2.663289
H	-2.225196	-4.131473	-2.873906
H	-3.415077	-3.712085	-1.572045
C	0.930765	-2.314326	0.536849
S	-1.347913	-2.295487	-0.763041
C	-0.000000	-1.435180	-0.000000
H	1.841645	-1.993211	1.057554
H	0.204438	-9.615985	0.170535
C	0.000000	0.000000	0.000000
S	0.579852	0.687566	1.510732
C	1.591625	1.895024	0.727629
C	0.583771	0.695758	-1.064665
C	1.475308	1.760606	-0.678287
C	0.542366	0.643841	-2.486150
C	1.355286	1.612843	-3.106916
S	2.154609	2.570627	-1.965735
C	1.522440	1.804778	-4.559972
O	0.924684	1.087757	-5.350277
O	2.349739	2.785679	-5.004375
F	-0.170780	-0.212144	-3.246290
C	2.588082	3.053936	-6.334976
H	3.298799	3.899999	-6.370268
H	1.655291	3.328371	-6.875609
H	3.026021	2.177385	-6.861878
H	2.183053	2.599759	1.321510
$end

$rem
JOBTYPE		SP
EXCHANGE	HF
CORRELATION	pRIMP2
BASIS		cc-pvtz
METHOD		rimp2
AUX_BASIS	rimp2-cc-pvtz
SOLVENT_METHOD	PCM
PURECART	11111
SYMMETRY	false
MEM_TOTAL	110000
SCF_CONVERGENCE = 6
THRESH=10
GUI = 2
$end

$solvent
dielectric 4.90
$end
--------------------------------------------------------------

             Standard Nuclear Orientation (Angstroms)
    I     Atom           X                Y                Z
 ----------------------------------------------------------------
    1      C       0.2080020000    -8.5197410000     0.1754320000
    2      C      -0.7221640000    -7.6359670000    -0.3520970000
    3      S       1.5634240000    -7.6517400000     0.9364580000
    4      C      -0.3868330000    -6.2618940000    -0.1603880000
    5      H      -1.6350310000    -7.9547380000    -0.8709050000
    6      C       0.8496370000    -6.0799850000     0.5536850000
    7      C       1.3579380000    -4.7983820000     0.8163720000
    8      C      -1.1497020000    -5.1535420000    -0.6275240000
    9      C      -0.6389410000    -3.8696260000    -0.3683990000
   10      C       0.5974090000    -3.6889270000     0.3489120000
   11      O      -2.3092600000    -5.4810750000    -1.2626670000
   12      O       2.5232960000    -4.4798710000     1.4533380000
   13      C       3.0369270000    -5.3560260000     2.4493200000
   14      H       3.8246320000    -4.7904960000     2.9825770000
   15      H       3.4972500000    -6.2685130000     2.0111550000
   16      H       2.2498070000    -5.6581870000     3.1735910000
   17      C      -2.9392260000    -4.5469990000    -2.1307930000
   18      H      -3.7307210000    -5.1075640000    -2.6632890000
   19      H      -2.2251960000    -4.1314730000    -2.8739060000
   20      H      -3.4150770000    -3.7120850000    -1.5720450000
   21      C       0.9307650000    -2.3143260000     0.5368490000
   22      S      -1.3479130000    -2.2954870000    -0.7630410000
   23      C       0.0000000000    -1.4351800000     0.0000000000
   24      H       1.8416450000    -1.9932110000     1.0575540000
   25      H       0.2044380000    -9.6159850000     0.1705350000
   26      C       0.0000000000     0.0000000000     0.0000000000
   27      S       0.5798520000     0.6875660000     1.5107320000
   28      C       1.5916250000     1.8950240000     0.7276290000
   29      C       0.5837710000     0.6957580000    -1.0646650000
   30      C       1.4753080000     1.7606060000    -0.6782870000
   31      C       0.5423660000     0.6438410000    -2.4861500000
   32      C       1.3552860000     1.6128430000    -3.1069160000
   33      S       2.1546090000     2.5706270000    -1.9657350000
   34      C       1.5224400000     1.8047780000    -4.5599720000
   35      O       0.9246840000     1.0877570000    -5.3502770000
   36      O       2.3497390000     2.7856790000    -5.0043750000
   37      F      -0.1707800000    -0.2121440000    -3.2462900000
   38      C       2.5880820000     3.0539360000    -6.3349760000
   39      H       3.2987990000     3.8999990000    -6.3702680000
   40      H       1.6552910000     3.3283710000    -6.8756090000
   41      H       3.0260210000     2.1773850000    -6.8618780000
   42      H       2.1830530000     2.5997590000     1.3215100000
 ----------------------------------------------------------------

   11   -2754.2680984021      5.17e-07  Convergence criterion met
 Total energy in the final basis set =    -2754.2680984021
        RIMP2         total energy =     -2759.3311398670 a.u.

                    Orbital Energies (a.u.)
 --------------------------------------------------------------

 Alpha MOs
 -- Occupied --
-92.0169 -91.9994 -91.9848 -91.9841 -26.3338 -20.6137 -20.5907 -20.5900
-20.5530 -11.4128 -11.3764 -11.3172 -11.3150 -11.3075 -11.3035 -11.2982
-11.2948 -11.2939 -11.2893 -11.2889 -11.2855 -11.2853 -11.2823 -11.2823
-11.2777 -11.2587 -11.2562 -11.2512 -11.2487  -9.0152  -9.0032  -8.9847
 -8.9847  -6.6959  -6.6952  -6.6948  -6.6845  -6.6838  -6.6825  -6.6657
 -6.6657  -6.6651  -6.6650  -6.6642  -6.6640  -1.6469  -1.4736  -1.4148
 -1.4127  -1.3693  -1.2373  -1.1937  -1.1682  -1.1430  -1.0831  -1.0499
 -1.0491  -1.0301  -0.9996  -0.9921  -0.9732  -0.9591  -0.9489  -0.9387
 -0.8934  -0.8721  -0.8464  -0.8067  -0.7916  -0.7864  -0.7756  -0.7662
 -0.7555  -0.7307  -0.7182  -0.7155  -0.6997  -0.6901  -0.6811  -0.6798
 -0.6737  -0.6605  -0.6573  -0.6514  -0.6288  -0.6186  -0.6151  -0.6085
 -0.6031  -0.5994  -0.5871  -0.5723  -0.5688  -0.5657  -0.5536  -0.5520
 -0.5287  -0.5264  -0.5217  -0.5150  -0.5130  -0.5082  -0.5014  -0.4922
 -0.4890  -0.4870  -0.4731  -0.4642  -0.4631  -0.4623  -0.4572  -0.4129
 -0.3956  -0.3845  -0.3586  -0.3456  -0.3163  -0.2906  -0.2535

          Ground-State Mulliken Net Atomic Charges

     Atom                 Charge (a.u.)
  ----------------------------------------
      1 C                    -0.192088
      2 C                    -0.253992
      3 S                    -0.025496
      4 C                    -0.017428
      5 H                     0.196020
      6 C                    -0.028481
      7 C                     0.238046
      8 C                     0.243530
      9 C                    -0.045619
     10 C                    -0.016043
     11 O                    -0.333848
     12 O                    -0.341202
     13 C                    -0.085552
     14 H                     0.121612
     15 H                     0.090929
     16 H                     0.093468
     17 C                    -0.086654
     18 H                     0.124209
     19 H                     0.095669
     20 H                     0.089367
     21 C                    -0.254174
     22 S                    -0.011218
     23 C                    -0.015072
     24 H                     0.198440
     25 H                     0.205696
     26 C                    -0.071706
     27 S                     0.118716
     28 C                    -0.198226
     29 C                    -0.055389
     30 C                    -0.013651
     31 C                     0.355864
     32 C                    -0.137147
     33 S                     0.055040
     34 C                     0.457638
     35 O                    -0.444912
     36 O                    -0.297457
     37 F                    -0.208475
     38 C                    -0.054680
     39 H                     0.116942
     40 H                     0.084995
     41 H                     0.085046
     42 H                     0.217283
  ----------------------------------------
  Sum of atomic charges =     0.000000

                    Cartesian Multipole Moments
 -----------------------------------------------------------------
    Charge (ESU x 10^10)
                 0.0000
    Dipole Moment (Debye)
         X       2.6625      Y       2.3534      Z       3.0607
       Tot       4.6899
    Quadrupole Moments (Debye-Ang)
        XX    -181.4467     XY       9.7265     YY    -169.4173
        XZ       4.8789     YZ      -9.7085     ZZ    -192.9404

 Total job time:  297.86s(wall), 9709.18s(cpu)
        *  Thank you very much for using Q-Chem.  Have a nice day.  *
