 Q-Chem 5.4, Q-Chem, Inc., Pleasanton, CA (2021)
 Q-Chem 5.4.0 for Intel X86 EM64T Linux

User input:
--------------------------------------------------------------
$molecule
0 1
C	-0.268090	-8.519741	0.046574
C	0.733920	-7.635967	-0.326886
S	-1.722318	-7.651740	0.595708
C	0.371516	-6.261894	-0.193236
H	1.718130	-7.954738	-0.692700
C	-0.970283	-6.079985	0.294958
C	-1.498243	-4.798382	0.515487
C	1.219725	-5.153542	-0.477358
C	0.692914	-3.869626	-0.252655
C	-0.651289	-3.688927	0.233366
O	2.451623	-5.481075	-0.957369
O	-2.735264	-4.479871	0.998769
C	-3.828387	-5.356026	0.752029
H	-4.743213	-4.790496	1.012675
H	-3.788623	-6.268513	1.386303
H	-3.877260	-5.658187	-0.316492
C	3.521580	-4.546999	-0.881930
H	4.438260	-5.107564	-1.145969
H	3.631868	-4.131473	0.142712
H	3.399425	-3.712085	-1.605610
C	-1.009535	-2.314326	0.367928
S	1.450945	-2.295487	-0.542088
C	0.000000	-1.435180	0.000000
H	-1.993920	-1.993211	0.730999
H	-0.262047	-9.615985	0.046991
C	0.000000	0.000000	0.000000
S	0.080615	0.895811	1.510732
C	0.216842	2.465231	0.727629
C	0.079127	0.904769	-1.064665
C	0.198659	2.288406	-0.678287
C	0.074988	0.838492	-2.486150
C	0.185097	2.098524	-3.106916
S	0.290501	3.341568	-1.965735
C	0.211932	2.351623	-4.559972
O	0.133545	1.421416	-5.350277
O	0.326994	3.629649	-5.004375
F	-0.018214	-0.271734	-3.246290
C	0.368367	3.986101	-6.334976
H	0.465270	5.086806	-6.370268
H	-0.553140	3.675878	-6.875609
H	1.229874	3.519263	-6.861878
H	0.297091	3.381746	1.321510
$end

$rem
JOBTYPE		SP
EXCHANGE	HF
CORRELATION	pRIMP2
BASIS		cc-pvtz
METHOD		rimp2
AUX_BASIS	rimp2-cc-pvtz
SOLVENT_METHOD	PCM
PURECART	11111
SYMMETRY	false
MEM_TOTAL	110000
SCF_CONVERGENCE = 6
THRESH=10
GUI = 2
$end

$solvent
dielectric 4.90
$end
--------------------------------------------------------------

             Standard Nuclear Orientation (Angstroms)
    I     Atom           X                Y                Z
 ----------------------------------------------------------------
    1      C      -0.2680900000    -8.5197410000     0.0465740000
    2      C       0.7339200000    -7.6359670000    -0.3268860000
    3      S      -1.7223180000    -7.6517400000     0.5957080000
    4      C       0.3715160000    -6.2618940000    -0.1932360000
    5      H       1.7181300000    -7.9547380000    -0.6927000000
    6      C      -0.9702830000    -6.0799850000     0.2949580000
    7      C      -1.4982430000    -4.7983820000     0.5154870000
    8      C       1.2197250000    -5.1535420000    -0.4773580000
    9      C       0.6929140000    -3.8696260000    -0.2526550000
   10      C      -0.6512890000    -3.6889270000     0.2333660000
   11      O       2.4516230000    -5.4810750000    -0.9573690000
   12      O      -2.7352640000    -4.4798710000     0.9987690000
   13      C      -3.8283870000    -5.3560260000     0.7520290000
   14      H      -4.7432130000    -4.7904960000     1.0126750000
   15      H      -3.7886230000    -6.2685130000     1.3863030000
   16      H      -3.8772600000    -5.6581870000    -0.3164920000
   17      C       3.5215800000    -4.5469990000    -0.8819300000
   18      H       4.4382600000    -5.1075640000    -1.1459690000
   19      H       3.6318680000    -4.1314730000     0.1427120000
   20      H       3.3994250000    -3.7120850000    -1.6056100000
   21      C      -1.0095350000    -2.3143260000     0.3679280000
   22      S       1.4509450000    -2.2954870000    -0.5420880000
   23      C       0.0000000000    -1.4351800000     0.0000000000
   24      H      -1.9939200000    -1.9932110000     0.7309990000
   25      H      -0.2620470000    -9.6159850000     0.0469910000
   26      C       0.0000000000     0.0000000000     0.0000000000
   27      S       0.0806150000     0.8958110000     1.5107320000
   28      C       0.2168420000     2.4652310000     0.7276290000
   29      C       0.0791270000     0.9047690000    -1.0646650000
   30      C       0.1986590000     2.2884060000    -0.6782870000
   31      C       0.0749880000     0.8384920000    -2.4861500000
   32      C       0.1850970000     2.0985240000    -3.1069160000
   33      S       0.2905010000     3.3415680000    -1.9657350000
   34      C       0.2119320000     2.3516230000    -4.5599720000
   35      O       0.1335450000     1.4214160000    -5.3502770000
   36      O       0.3269940000     3.6296490000    -5.0043750000
   37      F      -0.0182140000    -0.2717340000    -3.2462900000
   38      C       0.3683670000     3.9861010000    -6.3349760000
   39      H       0.4652700000     5.0868060000    -6.3702680000
   40      H      -0.5531400000     3.6758780000    -6.8756090000
   41      H       1.2298740000     3.5192630000    -6.8618780000
   42      H       0.2970910000     3.3817460000     1.3215100000
 ----------------------------------------------------------------

   10   -2754.2958045911      8.75e-07  Convergence criterion met
 Total energy in the final basis set =    -2754.2958045911
        RIMP2         total energy =     -2759.3482110996 a.u.

                    Orbital Energies (a.u.)
 --------------------------------------------------------------

 Alpha MOs
 -- Occupied --
-92.0165 -91.9943 -91.9901 -91.9868 -26.3338 -20.6118 -20.5924 -20.5922
-20.5497 -11.4100 -11.3772 -11.3194 -11.3191 -11.3102 -11.2968 -11.2961
-11.2939 -11.2929 -11.2883 -11.2870 -11.2870 -11.2864 -11.2844 -11.2822
-11.2805 -11.2613 -11.2600 -11.2598 -11.2502  -9.0146  -8.9983  -8.9904
 -8.9867  -6.6953  -6.6947  -6.6942  -6.6796  -6.6789  -6.6776  -6.6713
 -6.6706  -6.6697  -6.6677  -6.6670  -6.6662  -1.6467  -1.4716  -1.4166
 -1.4149  -1.3668  -1.2330  -1.1964  -1.1685  -1.1416  -1.0843  -1.0525
 -1.0472  -1.0275  -1.0027  -0.9934  -0.9711  -0.9616  -0.9506  -0.9384
 -0.8961  -0.8689  -0.8511  -0.8061  -0.7900  -0.7885  -0.7744  -0.7671
 -0.7586  -0.7330  -0.7179  -0.7149  -0.7013  -0.6884  -0.6835  -0.6783
 -0.6708  -0.6606  -0.6593  -0.6529  -0.6309  -0.6204  -0.6172  -0.6062
 -0.6019  -0.5941  -0.5835  -0.5781  -0.5681  -0.5661  -0.5567  -0.5518
 -0.5340  -0.5262  -0.5249  -0.5163  -0.5141  -0.5082  -0.5012  -0.4955
 -0.4904  -0.4839  -0.4764  -0.4682  -0.4616  -0.4611  -0.4601  -0.4087
 -0.4004  -0.3872  -0.3577  -0.3492  -0.3168  -0.2879  -0.2584

          Ground-State Mulliken Net Atomic Charges

     Atom                 Charge (a.u.)
  ----------------------------------------
      1 C                    -0.186675
      2 C                    -0.254416
      3 S                    -0.021588
      4 C                    -0.012468
      5 H                     0.196648
      6 C                    -0.027612
      7 C                     0.247785
      8 C                     0.239139
      9 C                    -0.043372
     10 C                    -0.030226
     11 O                    -0.333093
     12 O                    -0.339865
     13 C                    -0.085726
     14 H                     0.122684
     15 H                     0.091069
     16 H                     0.094688
     17 C                    -0.086455
     18 H                     0.124956
     19 H                     0.094291
     20 H                     0.090559
     21 C                    -0.225011
     22 S                    -0.000016
     23 C                    -0.044656
     24 H                     0.197316
     25 H                     0.206728
     26 C                    -0.006678
     27 S                     0.119314
     28 C                    -0.241951
     29 C                    -0.106013
     30 C                    -0.004532
     31 C                     0.398081
     32 C                    -0.157218
     33 S                     0.037241
     34 C                     0.460991
     35 O                    -0.450450
     36 O                    -0.297865
     37 F                    -0.210860
     38 C                    -0.055069
     39 H                     0.116505
     40 H                     0.084607
     41 H                     0.084438
     42 H                     0.214778
  ----------------------------------------
  Sum of atomic charges =     0.000000

                    Cartesian Multipole Moments
 -----------------------------------------------------------------
    Charge (ESU x 10^10)
                 0.0000
    Dipole Moment (Debye)
         X       0.2884      Y       1.4053      Z       3.0373
       Tot       3.3590
    Quadrupole Moments (Debye-Ang)
        XX    -176.5820     XY       2.3945     YY    -158.0417
        XZ      -3.9911     YZ      -9.3336     ZZ    -206.3821

 Total job time:  280.99s(wall), 9277.07s(cpu)
        *  Thank you very much for using Q-Chem.  Have a nice day.  *
