 Q-Chem 5.4, Q-Chem, Inc., Pleasanton, CA (2021)
 Q-Chem 5.4.0 for Intel X86 EM64T Linux

User input:
--------------------------------------------------------------
$molecule
0 1
C	0.046574	-8.519741	0.268090
C	-0.326886	-7.635967	-0.733920
S	0.595708	-7.651740	1.722318
C	-0.193236	-6.261894	-0.371516
H	-0.692700	-7.954738	-1.718130
C	0.294958	-6.079985	0.970283
C	0.515487	-4.798382	1.498243
C	-0.477358	-5.153542	-1.219725
C	-0.252655	-3.869626	-0.692914
C	0.233366	-3.688927	0.651289
O	-0.957369	-5.481075	-2.451623
O	0.998769	-4.479871	2.735264
C	0.752029	-5.356026	3.828387
H	1.012675	-4.790496	4.743213
H	1.386303	-6.268513	3.788623
H	-0.316492	-5.658187	3.877260
C	-0.881930	-4.546999	-3.521580
H	-1.145969	-5.107564	-4.438260
H	0.142712	-4.131473	-3.631868
H	-1.605610	-3.712085	-3.399425
C	0.367928	-2.314326	1.009535
S	-0.542088	-2.295487	-1.450945
C	-0.000000	-1.435180	-0.000000
H	0.730999	-1.993211	1.993920
H	0.046991	-9.615985	0.262047
C	0.000000	0.000000	0.000000
S	0.579852	0.687566	1.510732
C	1.591625	1.895024	0.727629
C	0.583771	0.695758	-1.064665
C	1.475308	1.760606	-0.678287
C	0.542366	0.643841	-2.486150
C	1.355286	1.612843	-3.106916
S	2.154609	2.570627	-1.965735
C	1.522440	1.804778	-4.559972
O	0.924684	1.087757	-5.350277
O	2.349739	2.785679	-5.004375
F	-0.170780	-0.212144	-3.246290
C	2.588082	3.053936	-6.334976
H	3.298799	3.899999	-6.370268
H	1.655291	3.328371	-6.875609
H	3.026021	2.177385	-6.861878
H	2.183053	2.599759	1.321510
$end

$rem
JOBTYPE		SP
EXCHANGE	HF
CORRELATION	pRIMP2
BASIS		cc-pvtz
METHOD		rimp2
AUX_BASIS	rimp2-cc-pvtz
SOLVENT_METHOD	PCM
PURECART	11111
SYMMETRY	false
MEM_TOTAL	110000
SCF_CONVERGENCE = 6
THRESH=10
GUI = 2
$end

$solvent
dielectric 4.90
$end
--------------------------------------------------------------

             Standard Nuclear Orientation (Angstroms)
    I     Atom           X                Y                Z
 ----------------------------------------------------------------
    1      C       0.0465740000    -8.5197410000     0.2680900000
    2      C      -0.3268860000    -7.6359670000    -0.7339200000
    3      S       0.5957080000    -7.6517400000     1.7223180000
    4      C      -0.1932360000    -6.2618940000    -0.3715160000
    5      H      -0.6927000000    -7.9547380000    -1.7181300000
    6      C       0.2949580000    -6.0799850000     0.9702830000
    7      C       0.5154870000    -4.7983820000     1.4982430000
    8      C      -0.4773580000    -5.1535420000    -1.2197250000
    9      C      -0.2526550000    -3.8696260000    -0.6929140000
   10      C       0.2333660000    -3.6889270000     0.6512890000
   11      O      -0.9573690000    -5.4810750000    -2.4516230000
   12      O       0.9987690000    -4.4798710000     2.7352640000
   13      C       0.7520290000    -5.3560260000     3.8283870000
   14      H       1.0126750000    -4.7904960000     4.7432130000
   15      H       1.3863030000    -6.2685130000     3.7886230000
   16      H      -0.3164920000    -5.6581870000     3.8772600000
   17      C      -0.8819300000    -4.5469990000    -3.5215800000
   18      H      -1.1459690000    -5.1075640000    -4.4382600000
   19      H       0.1427120000    -4.1314730000    -3.6318680000
   20      H      -1.6056100000    -3.7120850000    -3.3994250000
   21      C       0.3679280000    -2.3143260000     1.0095350000
   22      S      -0.5420880000    -2.2954870000    -1.4509450000
   23      C       0.0000000000    -1.4351800000     0.0000000000
   24      H       0.7309990000    -1.9932110000     1.9939200000
   25      H       0.0469910000    -9.6159850000     0.2620470000
   26      C       0.0000000000     0.0000000000     0.0000000000
   27      S       0.5798520000     0.6875660000     1.5107320000
   28      C       1.5916250000     1.8950240000     0.7276290000
   29      C       0.5837710000     0.6957580000    -1.0646650000
   30      C       1.4753080000     1.7606060000    -0.6782870000
   31      C       0.5423660000     0.6438410000    -2.4861500000
   32      C       1.3552860000     1.6128430000    -3.1069160000
   33      S       2.1546090000     2.5706270000    -1.9657350000
   34      C       1.5224400000     1.8047780000    -4.5599720000
   35      O       0.9246840000     1.0877570000    -5.3502770000
   36      O       2.3497390000     2.7856790000    -5.0043750000
   37      F      -0.1707800000    -0.2121440000    -3.2462900000
   38      C       2.5880820000     3.0539360000    -6.3349760000
   39      H       3.2987990000     3.8999990000    -6.3702680000
   40      H       1.6552910000     3.3283710000    -6.8756090000
   41      H       3.0260210000     2.1773850000    -6.8618780000
   42      H       2.1830530000     2.5997590000     1.3215100000
 ----------------------------------------------------------------

   10   -2754.2651735404      9.85e-07  Convergence criterion met
 Total energy in the final basis set =    -2754.2651735404
        RIMP2         total energy =     -2759.3306334529 a.u.

                    Orbital Energies (a.u.)
 --------------------------------------------------------------

 Alpha MOs
 -- Occupied --
-92.0154 -92.0008 -91.9842 -91.9823 -26.3356 -20.6143 -20.5901 -20.5890
-20.5539 -11.4138 -11.3782 -11.3167 -11.3131 -11.3095 -11.3052 -11.3000
-11.2989 -11.2973 -11.2906 -11.2897 -11.2850 -11.2847 -11.2817 -11.2804
-11.2766 -11.2584 -11.2547 -11.2482 -11.2473  -9.0142  -9.0045  -8.9842
 -8.9834  -6.6949  -6.6942  -6.6938  -6.6858  -6.6851  -6.6838  -6.6651
 -6.6645  -6.6643  -6.6637  -6.6636  -6.6625  -1.6507  -1.4744  -1.4142
 -1.4118  -1.3701  -1.2393  -1.1934  -1.1688  -1.1434  -1.0838  -1.0511
 -1.0485  -1.0317  -0.9995  -0.9925  -0.9746  -0.9583  -0.9483  -0.9387
 -0.8933  -0.8734  -0.8476  -0.8098  -0.7954  -0.7866  -0.7755  -0.7631
 -0.7555  -0.7299  -0.7213  -0.7182  -0.6989  -0.6905  -0.6816  -0.6804
 -0.6761  -0.6620  -0.6568  -0.6507  -0.6268  -0.6177  -0.6146  -0.6093
 -0.6041  -0.6013  -0.5882  -0.5695  -0.5668  -0.5657  -0.5551  -0.5523
 -0.5314  -0.5253  -0.5199  -0.5184  -0.5130  -0.5084  -0.5026  -0.4938
 -0.4862  -0.4841  -0.4759  -0.4640  -0.4632  -0.4626  -0.4541  -0.4245
 -0.3926  -0.3839  -0.3573  -0.3511  -0.3233  -0.2853  -0.2462

          Ground-State Mulliken Net Atomic Charges

     Atom                 Charge (a.u.)
  ----------------------------------------
      1 C                    -0.194531
      2 C                    -0.253575
      3 S                    -0.026968
      4 C                    -0.018778
      5 H                     0.195837
      6 C                    -0.025816
      7 C                     0.233886
      8 C                     0.243514
      9 C                    -0.044892
     10 C                    -0.016855
     11 O                    -0.333969
     12 O                    -0.341774
     13 C                    -0.085581
     14 H                     0.121344
     15 H                     0.090693
     16 H                     0.093288
     17 C                    -0.087244
     18 H                     0.124550
     19 H                     0.094654
     20 H                     0.090116
     21 C                    -0.269174
     22 S                    -0.024587
     23 C                    -0.010449
     24 H                     0.189029
     25 H                     0.205323
     26 C                    -0.039536
     27 S                     0.102755
     28 C                    -0.183828
     29 C                    -0.042405
     30 C                    -0.035521
     31 C                     0.353238
     32 C                    -0.119543
     33 S                     0.057537
     34 C                     0.455939
     35 O                    -0.444647
     36 O                    -0.297253
     37 F                    -0.207036
     38 C                    -0.054603
     39 H                     0.117216
     40 H                     0.085117
     41 H                     0.085026
     42 H                     0.219503
  ----------------------------------------
  Sum of atomic charges =     0.000000

                    Cartesian Multipole Moments
 -----------------------------------------------------------------
    Charge (ESU x 10^10)
                -0.0000
    Dipole Moment (Debye)
         X       2.6929      Y       2.8545      Z       2.4919
       Tot       4.6486
    Quadrupole Moments (Debye-Ang)
        XX    -193.9501     XY      10.6559     YY    -171.6511
        XZ      -4.8366     YZ      -8.4866     ZZ    -179.7053

 Total job time:  280.60s(wall), 9299.23s(cpu)
        *  Thank you very much for using Q-Chem.  Have a nice day.  *
