 Q-Chem 5.4, Q-Chem, Inc., Pleasanton, CA (2021)
 Q-Chem 5.4.0 for Intel X86 EM64T Linux

User input:
--------------------------------------------------------------
$molecule
0 1
C	0.047927	-8.519741	-0.267851
C	0.056157	-7.635967	0.801461
S	0.029285	-7.651740	-1.822194
C	0.054516	-6.261894	0.415201
H	0.063290	-7.954738	1.851431
C	0.054687	-6.079985	-1.012650
C	0.028030	-4.798382	-1.584194
C	0.031399	-5.153542	1.309433
C	0.000427	-3.869626	0.737539
C	0.003462	-3.688927	-0.691828
O	0.061128	-5.481075	2.631211
O	-0.003021	-4.479871	-2.911907
C	0.602710	-5.356026	-3.854716
H	0.670671	-4.790496	-4.803517
H	-0.006913	-6.268513	-4.034285
H	1.623507	-5.658187	-3.535185
C	-0.375708	-4.546999	3.610841
H	-0.441115	-5.107564	4.562544
H	-1.376277	-4.131473	3.364029
H	0.346107	-3.712085	3.743566
C	-0.000458	-2.314326	-1.074491
S	0.013144	-2.295487	1.548848
C	-0.000000	-1.435180	-0.000000
H	-0.004953	-1.993211	-2.123688
H	0.045468	-9.615985	-0.262315
C	0.000000	0.000000	0.000000
S	0.579852	0.687566	1.510732
C	1.591625	1.895024	0.727629
C	0.583771	0.695758	-1.064665
C	1.475308	1.760606	-0.678287
C	0.542366	0.643841	-2.486150
C	1.355286	1.612843	-3.106916
S	2.154609	2.570627	-1.965735
C	1.522440	1.804778	-4.559972
O	0.924684	1.087757	-5.350277
O	2.349739	2.785679	-5.004375
F	-0.170780	-0.212144	-3.246290
C	2.588082	3.053936	-6.334976
H	3.298799	3.899999	-6.370268
H	1.655291	3.328371	-6.875609
H	3.026021	2.177385	-6.861878
H	2.183053	2.599759	1.321510
$end

$rem
JOBTYPE		SP
EXCHANGE	HF
CORRELATION	pRIMP2
BASIS		cc-pvtz
METHOD		rimp2
AUX_BASIS	rimp2-cc-pvtz
SOLVENT_METHOD	PCM
PURECART	11111
SYMMETRY	false
MEM_TOTAL	110000
SCF_CONVERGENCE = 6
THRESH=10
GUI = 2
$end

$solvent
dielectric 4.90
$end
--------------------------------------------------------------

             Standard Nuclear Orientation (Angstroms)
    I     Atom           X                Y                Z
 ----------------------------------------------------------------
    1      C       0.0479270000    -8.5197410000    -0.2678510000
    2      C       0.0561570000    -7.6359670000     0.8014610000
    3      S       0.0292850000    -7.6517400000    -1.8221940000
    4      C       0.0545160000    -6.2618940000     0.4152010000
    5      H       0.0632900000    -7.9547380000     1.8514310000
    6      C       0.0546870000    -6.0799850000    -1.0126500000
    7      C       0.0280300000    -4.7983820000    -1.5841940000
    8      C       0.0313990000    -5.1535420000     1.3094330000
    9      C       0.0004270000    -3.8696260000     0.7375390000
   10      C       0.0034620000    -3.6889270000    -0.6918280000
   11      O       0.0611280000    -5.4810750000     2.6312110000
   12      O      -0.0030210000    -4.4798710000    -2.9119070000
   13      C       0.6027100000    -5.3560260000    -3.8547160000
   14      H       0.6706710000    -4.7904960000    -4.8035170000
   15      H      -0.0069130000    -6.2685130000    -4.0342850000
   16      H       1.6235070000    -5.6581870000    -3.5351850000
   17      C      -0.3757080000    -4.5469990000     3.6108410000
   18      H      -0.4411150000    -5.1075640000     4.5625440000
   19      H      -1.3762770000    -4.1314730000     3.3640290000
   20      H       0.3461070000    -3.7120850000     3.7435660000
   21      C      -0.0004580000    -2.3143260000    -1.0744910000
   22      S       0.0131440000    -2.2954870000     1.5488480000
   23      C       0.0000000000    -1.4351800000     0.0000000000
   24      H      -0.0049530000    -1.9932110000    -2.1236880000
   25      H       0.0454680000    -9.6159850000    -0.2623150000
   26      C       0.0000000000     0.0000000000     0.0000000000
   27      S       0.5798520000     0.6875660000     1.5107320000
   28      C       1.5916250000     1.8950240000     0.7276290000
   29      C       0.5837710000     0.6957580000    -1.0646650000
   30      C       1.4753080000     1.7606060000    -0.6782870000
   31      C       0.5423660000     0.6438410000    -2.4861500000
   32      C       1.3552860000     1.6128430000    -3.1069160000
   33      S       2.1546090000     2.5706270000    -1.9657350000
   34      C       1.5224400000     1.8047780000    -4.5599720000
   35      O       0.9246840000     1.0877570000    -5.3502770000
   36      O       2.3497390000     2.7856790000    -5.0043750000
   37      F      -0.1707800000    -0.2121440000    -3.2462900000
   38      C       2.5880820000     3.0539360000    -6.3349760000
   39      H       3.2987990000     3.8999990000    -6.3702680000
   40      H       1.6552910000     3.3283710000    -6.8756090000
   41      H       3.0260210000     2.1773850000    -6.8618780000
   42      H       2.1830530000     2.5997590000     1.3215100000
 ----------------------------------------------------------------

   10   -2754.2655691458      9.91e-07  Convergence criterion met
 Total energy in the final basis set =    -2754.2655691458
        RIMP2         total energy =     -2759.3318422518 a.u.

                    Orbital Energies (a.u.)
 --------------------------------------------------------------

 Alpha MOs
 -- Occupied --
-92.0170 -92.0017 -91.9868 -91.9846 -26.3384 -20.6143 -20.5916 -20.5884
-20.5539 -11.4138 -11.3783 -11.3179 -11.3137 -11.3086 -11.3054 -11.3005
-11.2992 -11.2959 -11.2897 -11.2884 -11.2868 -11.2839 -11.2825 -11.2822
-11.2771 -11.2590 -11.2556 -11.2486 -11.2453  -9.0160  -9.0054  -8.9877
 -8.9845  -6.6967  -6.6960  -6.6956  -6.6866  -6.6860  -6.6847  -6.6687
 -6.6680  -6.6670  -6.6655  -6.6649  -6.6640  -1.6529  -1.4743  -1.4156
 -1.4112  -1.3701  -1.2392  -1.1942  -1.1696  -1.1440  -1.0839  -1.0515
 -1.0492  -1.0314  -1.0007  -0.9929  -0.9749  -0.9592  -0.9492  -0.9382
 -0.8951  -0.8733  -0.8481  -0.8051  -0.7983  -0.7876  -0.7726  -0.7698
 -0.7557  -0.7319  -0.7236  -0.7193  -0.6997  -0.6918  -0.6827  -0.6802
 -0.6746  -0.6621  -0.6579  -0.6506  -0.6266  -0.6181  -0.6142  -0.6094
 -0.6036  -0.5998  -0.5866  -0.5743  -0.5672  -0.5602  -0.5552  -0.5442
 -0.5356  -0.5285  -0.5221  -0.5187  -0.5167  -0.5093  -0.5054  -0.4960
 -0.4872  -0.4834  -0.4756  -0.4671  -0.4632  -0.4611  -0.4572  -0.4251
 -0.3967  -0.3827  -0.3582  -0.3501  -0.3248  -0.2854  -0.2445

          Ground-State Mulliken Net Atomic Charges

     Atom                 Charge (a.u.)
  ----------------------------------------
      1 C                    -0.193608
      2 C                    -0.254626
      3 S                    -0.024550
      4 C                    -0.019674
      5 H                     0.195681
      6 C                    -0.026896
      7 C                     0.243039
      8 C                     0.245087
      9 C                    -0.046801
     10 C                    -0.017180
     11 O                    -0.333319
     12 O                    -0.341087
     13 C                    -0.086355
     14 H                     0.123472
     15 H                     0.090852
     16 H                     0.092739
     17 C                    -0.088292
     18 H                     0.125687
     19 H                     0.094726
     20 H                     0.089188
     21 C                    -0.256662
     22 S                    -0.043546
     23 C                    -0.026651
     24 H                     0.211875
     25 H                     0.205527
     26 C                    -0.020234
     27 S                     0.109340
     28 C                    -0.199213
     29 C                    -0.057235
     30 C                    -0.028547
     31 C                     0.339662
     32 C                    -0.120446
     33 S                     0.062375
     34 C                     0.457224
     35 O                    -0.444671
     36 O                    -0.297359
     37 F                    -0.212738
     38 C                    -0.054516
     39 H                     0.117202
     40 H                     0.085224
     41 H                     0.084977
     42 H                     0.220328
  ----------------------------------------
  Sum of atomic charges =     0.000000

                    Cartesian Multipole Moments
 -----------------------------------------------------------------
    Charge (ESU x 10^10)
                -0.0000
    Dipole Moment (Debye)
         X       3.2990      Y       2.6417      Z       3.1035
       Tot       5.2434
    Quadrupole Moments (Debye-Ang)
        XX    -192.7641     XY       7.7462     YY    -169.7083
        XZ     -13.2968     YZ      -9.1537     ZZ    -180.8638

 Total job time:  283.00s(wall), 9322.12s(cpu)
        *  Thank you very much for using Q-Chem.  Have a nice day.  *
