 Q-Chem 5.4, Q-Chem, Inc., Pleasanton, CA (2021)
 Q-Chem 5.4.0 for Intel X86 EM64T Linux

User input:
--------------------------------------------------------------
$molecule
0 1
C	-0.046574	-8.519741	-0.268090
C	0.326886	-7.635967	0.733920
S	-0.595708	-7.651740	-1.722318
C	0.193236	-6.261894	0.371516
H	0.692700	-7.954738	1.718130
C	-0.294958	-6.079985	-0.970283
C	-0.515487	-4.798382	-1.498243
C	0.477358	-5.153542	1.219725
C	0.252655	-3.869626	0.692914
C	-0.233366	-3.688927	-0.651289
O	0.957369	-5.481075	2.451623
O	-0.998769	-4.479871	-2.735264
C	-0.752029	-5.356026	-3.828387
H	-1.012675	-4.790496	-4.743213
H	-1.386303	-6.268513	-3.788623
H	0.316492	-5.658187	-3.877260
C	0.881930	-4.546999	3.521580
H	1.145969	-5.107564	4.438260
H	-0.142712	-4.131473	3.631868
H	1.605610	-3.712085	3.399425
C	-0.367928	-2.314326	-1.009535
S	0.542088	-2.295487	1.450945
C	-0.000000	-1.435180	-0.000000
H	-0.730999	-1.993211	-1.993920
H	-0.046991	-9.615985	-0.262047
C	0.000000	0.000000	0.000000
S	0.451648	0.777811	1.510732
C	1.238377	2.142617	0.727629
C	0.454085	0.786559	-1.064665
C	1.147169	1.990043	-0.678287
C	0.422325	0.728240	-2.486150
C	1.054629	1.823683	-3.106916
S	1.675491	2.905718	-1.965735
C	1.185914	2.041729	-4.559972
O	0.721749	1.231802	-5.350277
O	1.830313	3.151386	-5.004375
F	-0.131347	-0.238577	-3.246290
C	2.018453	3.456956	-6.334976
H	2.571455	4.413580	-6.370268
H	1.052178	3.565244	-6.875609
H	2.601950	2.669768	-6.861878
H	1.698444	2.939346	1.321510
$end

$rem
JOBTYPE		SP
EXCHANGE	HF
CORRELATION	pRIMP2
BASIS		cc-pvtz
METHOD		rimp2
AUX_BASIS	rimp2-cc-pvtz
SOLVENT_METHOD	PCM
PURECART	11111
SYMMETRY	false
MEM_TOTAL	110000
SCF_CONVERGENCE = 6
THRESH=10
GUI = 2
$end

$solvent
dielectric 4.90
$end
--------------------------------------------------------------

             Standard Nuclear Orientation (Angstroms)
    I     Atom           X                Y                Z
 ----------------------------------------------------------------
    1      C      -0.0465740000    -8.5197410000    -0.2680900000
    2      C       0.3268860000    -7.6359670000     0.7339200000
    3      S      -0.5957080000    -7.6517400000    -1.7223180000
    4      C       0.1932360000    -6.2618940000     0.3715160000
    5      H       0.6927000000    -7.9547380000     1.7181300000
    6      C      -0.2949580000    -6.0799850000    -0.9702830000
    7      C      -0.5154870000    -4.7983820000    -1.4982430000
    8      C       0.4773580000    -5.1535420000     1.2197250000
    9      C       0.2526550000    -3.8696260000     0.6929140000
   10      C      -0.2333660000    -3.6889270000    -0.6512890000
   11      O       0.9573690000    -5.4810750000     2.4516230000
   12      O      -0.9987690000    -4.4798710000    -2.7352640000
   13      C      -0.7520290000    -5.3560260000    -3.8283870000
   14      H      -1.0126750000    -4.7904960000    -4.7432130000
   15      H      -1.3863030000    -6.2685130000    -3.7886230000
   16      H       0.3164920000    -5.6581870000    -3.8772600000
   17      C       0.8819300000    -4.5469990000     3.5215800000
   18      H       1.1459690000    -5.1075640000     4.4382600000
   19      H      -0.1427120000    -4.1314730000     3.6318680000
   20      H       1.6056100000    -3.7120850000     3.3994250000
   21      C      -0.3679280000    -2.3143260000    -1.0095350000
   22      S       0.5420880000    -2.2954870000     1.4509450000
   23      C       0.0000000000    -1.4351800000     0.0000000000
   24      H      -0.7309990000    -1.9932110000    -1.9939200000
   25      H      -0.0469910000    -9.6159850000    -0.2620470000
   26      C       0.0000000000     0.0000000000     0.0000000000
   27      S       0.4516480000     0.7778110000     1.5107320000
   28      C       1.2383770000     2.1426170000     0.7276290000
   29      C       0.4540850000     0.7865590000    -1.0646650000
   30      C       1.1471690000     1.9900430000    -0.6782870000
   31      C       0.4223250000     0.7282400000    -2.4861500000
   32      C       1.0546290000     1.8236830000    -3.1069160000
   33      S       1.6754910000     2.9057180000    -1.9657350000
   34      C       1.1859140000     2.0417290000    -4.5599720000
   35      O       0.7217490000     1.2318020000    -5.3502770000
   36      O       1.8303130000     3.1513860000    -5.0043750000
   37      F      -0.1313470000    -0.2385770000    -3.2462900000
   38      C       2.0184530000     3.4569560000    -6.3349760000
   39      H       2.5714550000     4.4135800000    -6.3702680000
   40      H       1.0521780000     3.5652440000    -6.8756090000
   41      H       2.6019500000     2.6697680000    -6.8618780000
   42      H       1.6984440000     2.9393460000     1.3215100000
 ----------------------------------------------------------------

   10   -2754.2799266356      8.28e-07  Convergence criterion met
 Total energy in the final basis set =    -2754.2799266356
        RIMP2         total energy =     -2759.3411464813 a.u.

                    Orbital Energies (a.u.)
 --------------------------------------------------------------

 Alpha MOs
 -- Occupied --
-92.0165 -91.9981 -91.9901 -91.9856 -26.3373 -20.6130 -20.5924 -20.5897
-20.5516 -11.4118 -11.3783 -11.3190 -11.3160 -11.3065 -11.3008 -11.3006
-11.2988 -11.2960 -11.2890 -11.2874 -11.2856 -11.2845 -11.2844 -11.2834
-11.2786 -11.2603 -11.2576 -11.2504 -11.2494  -9.0152  -9.0019  -8.9907
 -8.9855  -6.6960  -6.6953  -6.6949  -6.6832  -6.6825  -6.6812  -6.6716
 -6.6709  -6.6699  -6.6665  -6.6658  -6.6650  -1.6512  -1.4729  -1.4164
 -1.4125  -1.3684  -1.2366  -1.1955  -1.1695  -1.1433  -1.0840  -1.0514
 -1.0494  -1.0297  -1.0021  -0.9932  -0.9736  -0.9601  -0.9499  -0.9382
 -0.8960  -0.8715  -0.8498  -0.8053  -0.7965  -0.7880  -0.7719  -0.7701
 -0.7566  -0.7313  -0.7215  -0.7187  -0.7006  -0.6905  -0.6835  -0.6794
 -0.6735  -0.6619  -0.6587  -0.6515  -0.6283  -0.6191  -0.6152  -0.6078
 -0.6017  -0.5974  -0.5882  -0.5755  -0.5678  -0.5603  -0.5549  -0.5448
 -0.5370  -0.5284  -0.5213  -0.5192  -0.5171  -0.5093  -0.5052  -0.4956
 -0.4862  -0.4848  -0.4765  -0.4674  -0.4623  -0.4615  -0.4593  -0.4234
 -0.3973  -0.3844  -0.3583  -0.3505  -0.3244  -0.2859  -0.2464

          Ground-State Mulliken Net Atomic Charges

     Atom                 Charge (a.u.)
  ----------------------------------------
      1 C                    -0.190565
      2 C                    -0.254790
      3 S                    -0.022513
      4 C                    -0.016297
      5 H                     0.195925
      6 C                    -0.027854
      7 C                     0.242093
      8 C                     0.242026
      9 C                    -0.047114
     10 C                    -0.021364
     11 O                    -0.333164
     12 O                    -0.339841
     13 C                    -0.085935
     14 H                     0.123690
     15 H                     0.090752
     16 H                     0.093436
     17 C                    -0.088362
     18 H                     0.125747
     19 H                     0.094706
     20 H                     0.089415
     21 C                    -0.246209
     22 S                    -0.029138
     23 C                    -0.032795
     24 H                     0.202654
     25 H                     0.206082
     26 C                    -0.000684
     27 S                     0.093448
     28 C                    -0.211893
     29 C                    -0.059409
     30 C                    -0.023649
     31 C                     0.364074
     32 C                    -0.130369
     33 S                     0.050158
     34 C                     0.456080
     35 O                    -0.448084
     36 O                    -0.297765
     37 F                    -0.212364
     38 C                    -0.054823
     39 H                     0.116906
     40 H                     0.084739
     41 H                     0.084768
     42 H                     0.218280
  ----------------------------------------
  Sum of atomic charges =     0.000000

                    Cartesian Multipole Moments
 -----------------------------------------------------------------
    Charge (ESU x 10^10)
                 0.0000
    Dipole Moment (Debye)
         X       2.3418      Y       2.0098      Z       3.0989
       Tot       4.3734
    Quadrupole Moments (Debye-Ang)
        XX    -197.2547     XY       6.0483     YY    -164.4300
        XZ      -2.8216     YZ      -8.9667     ZZ    -180.7221

 Total job time:  326.52s(wall), 11005.49s(cpu)
        *  Thank you very much for using Q-Chem.  Have a nice day.  *
