 Q-Chem 5.4, Q-Chem, Inc., Pleasanton, CA (2021)
 Q-Chem 5.4.0 for Intel X86 EM64T Linux

User input:
--------------------------------------------------------------
$molecule
0 1
C	-0.040281	-0.397395	-0.217353
S	0.028619	0.392805	1.363147
C	0.171319	2.024305	0.687547
C	0.046519	0.596805	-1.202753
C	0.161519	1.912005	-0.710853
H	0.026019	0.362105	-2.277253
H	0.238219	2.789605	-1.369953
C	-0.040281	-1.875595	-0.217353
H	-0.867981	-1.876195	0.476447
H	-0.674481	-2.314895	-0.973153
H	0.482419	-2.586595	0.405347
H	0.248019	2.901605	1.338647
$end

$rem
JOBTYPE		SP
EXCHANGE	HF
CORRELATION	pRIMP2
BASIS		cc-pvtz
METHOD		rimp2
AUX_BASIS	rimp2-cc-pvtz
SOLVENT_METHOD	PCM
PURECART	11111
SYMMETRY	false
MEM_TOTAL	110000
SCF_CONVERGENCE = 6
THRESH=10
GUI = 2
$end

$solvent
dielectric 4.90
$end
--------------------------------------------------------------

             Standard Nuclear Orientation (Angstroms)
    I     Atom           X                Y                Z
 ----------------------------------------------------------------
    1      C      -0.0402810000    -0.3973950000    -0.2173530000
    2      S       0.0286190000     0.3928050000     1.3631470000
    3      C       0.1713190000     2.0243050000     0.6875470000
    4      C       0.0465190000     0.5968050000    -1.2027530000
    5      C       0.1615190000     1.9120050000    -0.7108530000
    6      H       0.0260190000     0.3621050000    -2.2772530000
    7      H       0.2382190000     2.7896050000    -1.3699530000
    8      C      -0.0402810000    -1.8755950000    -0.2173530000
    9      H      -0.8679810000    -1.8761950000     0.4764470000
   10      H      -0.6744810000    -2.3148950000    -0.9731530000
   11      H       0.4824190000    -2.5865950000     0.4053470000
   12      H       0.2480190000     2.9016050000     1.3386470000
 ----------------------------------------------------------------

   10    -590.3720529106      5.93e-07  Convergence criterion met
 Total energy in the final basis set =     -590.3720529106
        RIMP2         total energy =      -591.3729188741 a.u.

                    Orbital Energies (a.u.)
 --------------------------------------------------------------

 Alpha MOs
 -- Occupied --
-91.9780 -11.2875 -11.2666 -11.2429 -11.2350 -11.2257  -8.9780  -6.6589
 -6.6585  -6.6579  -1.1574  -1.0400  -0.9721  -0.9195  -0.7567  -0.7208
 -0.6711  -0.5981  -0.5675  -0.5602  -0.5409  -0.4936  -0.4708  -0.4538
 -0.3465  -0.3040

          Ground-State Mulliken Net Atomic Charges

     Atom                 Charge (a.u.)
  ----------------------------------------
      1 C                     0.012225
      2 S                    -0.008868
      3 C                    -0.234238
      4 C                    -0.218646
      5 C                    -0.193885
      6 H                     0.184920
      7 H                     0.185373
      8 C                    -0.349108
      9 H                     0.124902
     10 H                     0.131943
     11 H                     0.160537
     12 H                     0.204845
  ----------------------------------------
  Sum of atomic charges =     0.000000

                    Cartesian Multipole Moments
 -----------------------------------------------------------------
    Charge (ESU x 10^10)
                -0.0000
    Dipole Moment (Debye)
         X      -0.4283      Y      -0.5085      Z      -0.6574
       Tot       0.9350
    Quadrupole Moments (Debye-Ang)
        XX     -47.8582     XY       1.7639     YY     -35.9801
        XZ       0.5395     YZ      -0.1978     ZZ     -42.1043

 Total job time:  10.13s(wall), 541.07s(cpu)
        *  Thank you very much for using Q-Chem.  Have a nice day.  *
