 Q-Chem 5.4, Q-Chem, Inc., Pleasanton, CA (2021)
 Q-Chem 5.4.0 for Intel X86 EM64T Linux

User input:
--------------------------------------------------------------
$molecule
0 1
C	-0.255613	-0.329934	-0.218828
S	0.140787	0.357066	1.361672
C	0.959587	1.775366	0.686072
C	0.243187	0.534466	-1.204228
C	0.903287	1.677866	-0.712328
H	0.125387	0.330366	-2.278728
H	1.343687	2.440766	-1.371428
C	-0.255613	-1.808134	-0.218828
H	-0.796113	-1.808734	0.716172
H	-1.110013	-2.247434	-0.712128
H	0.448487	-2.519134	0.187572
H	1.399887	2.538166	1.337172
$end

$rem
JOBTYPE		SP
EXCHANGE	HF
CORRELATION	pRIMP2
BASIS		cc-pvtz
METHOD		rimp2
AUX_BASIS	rimp2-cc-pvtz
SOLVENT_METHOD	PCM
PURECART	11111
SYMMETRY	false
MEM_TOTAL	110000
SCF_CONVERGENCE = 6
THRESH=10
GUI = 2
$end

$solvent
dielectric 4.90
$end
--------------------------------------------------------------

             Standard Nuclear Orientation (Angstroms)
    I     Atom           X                Y                Z
 ----------------------------------------------------------------
    1      C      -0.2556130000    -0.3299340000    -0.2188280000
    2      S       0.1407870000     0.3570660000     1.3616720000
    3      C       0.9595870000     1.7753660000     0.6860720000
    4      C       0.2431870000     0.5344660000    -1.2042280000
    5      C       0.9032870000     1.6778660000    -0.7123280000
    6      H       0.1253870000     0.3303660000    -2.2787280000
    7      H       1.3436870000     2.4407660000    -1.3714280000
    8      C      -0.2556130000    -1.8081340000    -0.2188280000
    9      H      -0.7961130000    -1.8087340000     0.7161720000
   10      H      -1.1100130000    -2.2474340000    -0.7121280000
   11      H       0.4484870000    -2.5191340000     0.1875720000
   12      H       1.3998870000     2.5381660000     1.3371720000
 ----------------------------------------------------------------

   10    -590.3527118216      7.60e-07  Convergence criterion met
 Total energy in the final basis set =     -590.3527118216
        RIMP2         total energy =      -591.3586375867 a.u.

                    Orbital Energies (a.u.)
 --------------------------------------------------------------

 Alpha MOs
 -- Occupied --
-91.9793 -11.2757 -11.2737 -11.2437 -11.2412 -11.2201  -8.9794  -6.6602
 -6.6596  -6.6591  -1.1597  -1.0376  -0.9745  -0.9164  -0.7600  -0.7216
 -0.6711  -0.5949  -0.5679  -0.5617  -0.5432  -0.4837  -0.4632  -0.4503
 -0.3461  -0.3098

          Ground-State Mulliken Net Atomic Charges

     Atom                 Charge (a.u.)
  ----------------------------------------
      1 C                    -0.029436
      2 S                     0.000336
      3 C                    -0.213639
      4 C                    -0.189431
      5 C                    -0.195875
      6 H                     0.184206
      7 H                     0.186595
      8 C                    -0.343857
      9 H                     0.111546
     10 H                     0.124912
     11 H                     0.158501
     12 H                     0.206143
  ----------------------------------------
  Sum of atomic charges =     0.000000

                    Cartesian Multipole Moments
 -----------------------------------------------------------------
    Charge (ESU x 10^10)
                -0.0000
    Dipole Moment (Debye)
         X       0.5676      Y       0.0098      Z      -0.5776
       Tot       0.8099
    Quadrupole Moments (Debye-Ang)
        XX     -45.3514     XY       4.4840     YY     -38.5449
        XZ       0.6476     YZ      -0.3007     ZZ     -42.0449

 Total job time:  10.07s(wall), 548.16s(cpu)
        *  Thank you very much for using Q-Chem.  Have a nice day.  *
