 Q-Chem 5.4, Q-Chem, Inc., Pleasanton, CA (2021)
 Q-Chem 5.4.0 for Intel X86 EM64T Linux

User input:
--------------------------------------------------------------
$molecule
0 1
C	-0.327961	-0.278098	-0.216471
S	0.181739	0.329602	1.364029
C	1.234439	1.584202	0.688429
C	0.313439	0.486502	-1.201871
C	1.161939	1.497902	-0.709971
H	0.161939	0.306002	-2.276371
H	1.728139	2.172802	-1.369071
C	-0.327961	-1.756298	-0.216471
H	-1.263561	-1.756898	0.323029
H	-0.821261	-2.195598	-1.070971
H	0.078639	-2.467298	0.487529
H	1.800439	2.258902	1.339529
$end

$rem
JOBTYPE		SP
EXCHANGE	HF
CORRELATION	pRIMP2
BASIS		cc-pvtz
METHOD		rimp2
AUX_BASIS	rimp2-cc-pvtz
SOLVENT_METHOD	PCM
PURECART	11111
SYMMETRY	false
MEM_TOTAL	110000
SCF_CONVERGENCE = 6
THRESH=10
GUI = 2
$end

$solvent
dielectric 4.90
$end
--------------------------------------------------------------

             Standard Nuclear Orientation (Angstroms)
    I     Atom           X                Y                Z
 ----------------------------------------------------------------
    1      C      -0.3279610000    -0.2780980000    -0.2164710000
    2      S       0.1817390000     0.3296020000     1.3640290000
    3      C       1.2344390000     1.5842020000     0.6884290000
    4      C       0.3134390000     0.4865020000    -1.2018710000
    5      C       1.1619390000     1.4979020000    -0.7099710000
    6      H       0.1619390000     0.3060020000    -2.2763710000
    7      H       1.7281390000     2.1728020000    -1.3690710000
    8      C      -0.3279610000    -1.7562980000    -0.2164710000
    9      H      -1.2635610000    -1.7568980000     0.3230290000
   10      H      -0.8212610000    -2.1955980000    -1.0709710000
   11      H       0.0786390000    -2.4672980000     0.4875290000
   12      H       1.8004390000     2.2589020000     1.3395290000
 ----------------------------------------------------------------

   10    -590.3366005567      9.29e-07  Convergence criterion met
 Total energy in the final basis set =     -590.3366005567
        RIMP2         total energy =      -591.3453636237 a.u.

                    Orbital Energies (a.u.)
 --------------------------------------------------------------

 Alpha MOs
 -- Occupied --
-91.9774 -11.2781 -11.2695 -11.2442 -11.2431 -11.2175  -8.9776  -6.6585
 -6.6579  -6.6574  -1.1608  -1.0363  -0.9748  -0.9153  -0.7598  -0.7229
 -0.6699  -0.5941  -0.5624  -0.5604  -0.5493  -0.4842  -0.4580  -0.4532
 -0.3458  -0.3012

          Ground-State Mulliken Net Atomic Charges

     Atom                 Charge (a.u.)
  ----------------------------------------
      1 C                    -0.060610
      2 S                    -0.001233
      3 C                    -0.197544
      4 C                    -0.158995
      5 C                    -0.204678
      6 H                     0.185204
      7 H                     0.185429
      8 C                    -0.367872
      9 H                     0.125743
     10 H                     0.123496
     11 H                     0.164955
     12 H                     0.206105
  ----------------------------------------
  Sum of atomic charges =     0.000000

                    Cartesian Multipole Moments
 -----------------------------------------------------------------
    Charge (ESU x 10^10)
                 0.0000
    Dipole Moment (Debye)
         X       0.6760      Y      -0.0724      Z      -0.8155
       Tot       1.0618
    Quadrupole Moments (Debye-Ang)
        XX     -44.1860     XY       5.5819     YY     -40.1914
        XZ       0.8702     YZ      -0.0095     ZZ     -41.5329

 Total job time:  10.32s(wall), 552.72s(cpu)
        *  Thank you very much for using Q-Chem.  Have a nice day.  *
