 Q-Chem 5.4, Q-Chem, Inc., Pleasanton, CA (2021)
 Q-Chem 5.4.0 for Intel X86 EM64T Linux

User input:
--------------------------------------------------------------
$molecule
0 1
C	-0.400002	-0.214208	-0.219296
S	0.207498	0.295792	1.361204
C	1.461998	1.348492	0.685604
C	0.364398	0.427392	-1.204696
C	1.375698	1.276092	-0.712796
H	0.183898	0.275892	-2.279196
H	2.050498	1.842392	-1.371896
C	-0.400002	-1.692408	-0.219296
H	0.293798	-1.693008	0.608404
H	-1.155802	-2.131708	0.414904
H	0.222698	-2.403408	-0.741996
H	2.136598	1.914692	1.336704
$end

$rem
JOBTYPE		SP
EXCHANGE	HF
CORRELATION	pRIMP2
BASIS		cc-pvtz
METHOD		rimp2
AUX_BASIS	rimp2-cc-pvtz
SOLVENT_METHOD	PCM
PURECART	11111
SYMMETRY	false
MEM_TOTAL	110000
SCF_CONVERGENCE = 6
THRESH=10
GUI = 2
$end

$solvent
dielectric 4.90
$end
--------------------------------------------------------------

             Standard Nuclear Orientation (Angstroms)
    I     Atom           X                Y                Z
 ----------------------------------------------------------------
    1      C      -0.4000020000    -0.2142080000    -0.2192960000
    2      S       0.2074980000     0.2957920000     1.3612040000
    3      C       1.4619980000     1.3484920000     0.6856040000
    4      C       0.3643980000     0.4273920000    -1.2046960000
    5      C       1.3756980000     1.2760920000    -0.7127960000
    6      H       0.1838980000     0.2758920000    -2.2791960000
    7      H       2.0504980000     1.8423920000    -1.3718960000
    8      C      -0.4000020000    -1.6924080000    -0.2192960000
    9      H       0.2937980000    -1.6930080000     0.6084040000
   10      H      -1.1558020000    -2.1317080000     0.4149040000
   11      H       0.2226980000    -2.4034080000    -0.7419960000
   12      H       2.1365980000     1.9146920000     1.3367040000
 ----------------------------------------------------------------

   10    -590.3146928087      8.91e-07  Convergence criterion met
 Total energy in the final basis set =     -590.3146928087
        RIMP2         total energy =      -591.3258332856 a.u.

                    Orbital Energies (a.u.)
 --------------------------------------------------------------

 Alpha MOs
 -- Occupied --
-91.9726 -11.2851 -11.2652 -11.2506 -11.2440 -11.2138  -8.9741  -6.6549
 -6.6541  -6.6537  -1.1678  -1.0390  -0.9781  -0.9078  -0.7647  -0.7249
 -0.6723  -0.5904  -0.5744  -0.5650  -0.5331  -0.4930  -0.4631  -0.4437
 -0.3435  -0.3015

          Ground-State Mulliken Net Atomic Charges

     Atom                 Charge (a.u.)
  ----------------------------------------
      1 C                    -0.060414
      2 S                    -0.005459
      3 C                    -0.180252
      4 C                    -0.145498
      5 C                    -0.224516
      6 H                     0.185949
      7 H                     0.187303
      8 C                    -0.370617
      9 H                     0.134559
     10 H                     0.114961
     11 H                     0.156993
     12 H                     0.206992
  ----------------------------------------
  Sum of atomic charges =     0.000000

                    Cartesian Multipole Moments
 -----------------------------------------------------------------
    Charge (ESU x 10^10)
                 0.0000
    Dipole Moment (Debye)
         X       2.1606      Y      -0.0787      Z      -0.6924
       Tot       2.2702
    Quadrupole Moments (Debye-Ang)
        XX     -43.0728     XY       3.7218     YY     -42.1993
        XZ       0.0943     YZ      -0.2801     ZZ     -41.5918

 Total job time:  20.42s(wall), 585.69s(cpu)
        *  Thank you very much for using Q-Chem.  Have a nice day.  *
