 Q-Chem 5.4, Q-Chem, Inc., Pleasanton, CA (2021)
 Q-Chem 5.4.0 for Intel X86 EM64T Linux

User input:
--------------------------------------------------------------
$molecule
0 1
C	-0.330474	-0.278098	-0.219377
S	0.179226	0.329602	1.361123
C	1.231926	1.584202	0.685523
C	0.310926	0.486502	-1.204777
C	1.159426	1.497902	-0.712877
H	0.159426	0.306002	-2.279277
H	1.725626	2.172802	-1.371977
C	-0.330474	-1.756298	-0.219377
H	-0.700374	-1.756898	0.795323
H	-1.257574	-2.195598	-0.556877
H	0.433526	-2.467298	0.058523
H	1.797926	2.258902	1.336623
$end

$rem
JOBTYPE		SP
EXCHANGE	HF
CORRELATION	pRIMP2
BASIS		cc-pvtz
METHOD		rimp2
AUX_BASIS	rimp2-cc-pvtz
SOLVENT_METHOD	PCM
PURECART	11111
SYMMETRY	false
MEM_TOTAL	110000
SCF_CONVERGENCE = 6
THRESH=10
GUI = 2
$end

$solvent
dielectric 4.90
$end
--------------------------------------------------------------

             Standard Nuclear Orientation (Angstroms)
    I     Atom           X                Y                Z
 ----------------------------------------------------------------
    1      C      -0.3304740000    -0.2780980000    -0.2193770000
    2      S       0.1792260000     0.3296020000     1.3611230000
    3      C       1.2319260000     1.5842020000     0.6855230000
    4      C       0.3109260000     0.4865020000    -1.2047770000
    5      C       1.1594260000     1.4979020000    -0.7128770000
    6      H       0.1594260000     0.3060020000    -2.2792770000
    7      H       1.7256260000     2.1728020000    -1.3719770000
    8      C      -0.3304740000    -1.7562980000    -0.2193770000
    9      H      -0.7003740000    -1.7568980000     0.7953230000
   10      H      -1.2575740000    -2.1955980000    -0.5568770000
   11      H       0.4335260000    -2.4672980000     0.0585230000
   12      H       1.7979260000     2.2589020000     1.3366230000
 ----------------------------------------------------------------

   11    -590.3379921633      3.76e-07  Convergence criterion met
 Total energy in the final basis set =     -590.3379921633
        RIMP2         total energy =      -591.3466771025 a.u.

                    Orbital Energies (a.u.)
 --------------------------------------------------------------

 Alpha MOs
 -- Occupied --
-91.9788 -11.2812 -11.2652 -11.2461 -11.2435 -11.2173  -8.9790  -6.6598
 -6.6591  -6.6587  -1.1621  -1.0371  -0.9762  -0.9133  -0.7624  -0.7227
 -0.6712  -0.5931  -0.5697  -0.5617  -0.5439  -0.4782  -0.4612  -0.4467
 -0.3448  -0.3123

          Ground-State Mulliken Net Atomic Charges

     Atom                 Charge (a.u.)
  ----------------------------------------
      1 C                    -0.056007
      2 S                     0.003484
      3 C                    -0.198644
      4 C                    -0.164222
      5 C                    -0.202788
      6 H                     0.184677
      7 H                     0.186467
      8 C                    -0.343149
      9 H                     0.108446
     10 H                     0.118878
     11 H                     0.155695
     12 H                     0.207164
  ----------------------------------------
  Sum of atomic charges =     0.000000

                    Cartesian Multipole Moments
 -----------------------------------------------------------------
    Charge (ESU x 10^10)
                 0.0000
    Dipole Moment (Debye)
         X       1.1386      Y       0.1689      Z      -0.5593
       Tot       1.2798
    Quadrupole Moments (Debye-Ang)
        XX     -43.8779     XY       4.8468     YY     -40.2650
        XZ       0.6205     YZ      -0.3595     ZZ     -41.9143

 Total job time:  11.65s(wall), 608.62s(cpu)
        *  Thank you very much for using Q-Chem.  Have a nice day.  *
