 Q-Chem 5.4, Q-Chem, Inc., Pleasanton, CA (2021)
 Q-Chem 5.4.0 for Intel X86 EM64T Linux

User input:
--------------------------------------------------------------
$molecule
0 1
C	-0.090030	-0.391505	-0.220089
S	0.047470	0.389695	1.360411
C	0.331870	2.002495	0.684811
C	0.083070	0.591395	-1.205489
C	0.312270	1.891595	-0.713589
H	0.042170	0.359295	-2.279989
H	0.465170	2.759095	-1.372689
C	-0.090030	-1.869705	-0.220089
H	0.096970	-1.870305	0.843611
H	-1.061630	-2.309005	-0.048789
H	0.710570	-2.580705	-0.361389
H	0.484670	2.869795	1.335911
$end

$rem
JOBTYPE		SP
EXCHANGE	HF
CORRELATION	pRIMP2
BASIS		cc-pvtz
METHOD		rimp2
AUX_BASIS	rimp2-cc-pvtz
SOLVENT_METHOD	PCM
PURECART	11111
SYMMETRY	false
MEM_TOTAL	110000
SCF_CONVERGENCE = 6
THRESH=10
GUI = 2
$end

$solvent
dielectric 4.90
$end
--------------------------------------------------------------

             Standard Nuclear Orientation (Angstroms)
    I     Atom           X                Y                Z
 ----------------------------------------------------------------
    1      C      -0.0900300000    -0.3915050000    -0.2200890000
    2      S       0.0474700000     0.3896950000     1.3604110000
    3      C       0.3318700000     2.0024950000     0.6848110000
    4      C       0.0830700000     0.5913950000    -1.2054890000
    5      C       0.3122700000     1.8915950000    -0.7135890000
    6      H       0.0421700000     0.3592950000    -2.2799890000
    7      H       0.4651700000     2.7590950000    -1.3726890000
    8      C      -0.0900300000    -1.8697050000    -0.2200890000
    9      H       0.0969700000    -1.8703050000     0.8436110000
   10      H      -1.0616300000    -2.3090050000    -0.0487890000
   11      H       0.7105700000    -2.5807050000    -0.3613890000
   12      H       0.4846700000     2.8697950000     1.3359110000
 ----------------------------------------------------------------

   10    -590.3679122596      5.94e-07  Convergence criterion met
 Total energy in the final basis set =     -590.3679122596
        RIMP2         total energy =      -591.3702715500 a.u.

                    Orbital Energies (a.u.)
 --------------------------------------------------------------

 Alpha MOs
 -- Occupied --
-91.9804 -11.2820 -11.2699 -11.2430 -11.2367 -11.2230  -8.9804  -6.6612
 -6.6607  -6.6601  -1.1583  -1.0397  -0.9733  -0.9179  -0.7590  -0.7204
 -0.6719  -0.5964  -0.5693  -0.5628  -0.5352  -0.4997  -0.4626  -0.4493
 -0.3463  -0.3116

          Ground-State Mulliken Net Atomic Charges

     Atom                 Charge (a.u.)
  ----------------------------------------
      1 C                     0.021875
      2 S                    -0.005422
      3 C                    -0.233688
      4 C                    -0.215778
      5 C                    -0.189532
      6 H                     0.185175
      7 H                     0.185939
      8 C                    -0.347086
      9 H                     0.113022
     10 H                     0.126668
     11 H                     0.152288
     12 H                     0.206539
  ----------------------------------------
  Sum of atomic charges =     0.000000

                    Cartesian Multipole Moments
 -----------------------------------------------------------------
    Charge (ESU x 10^10)
                -0.0000
    Dipole Moment (Debye)
         X       0.3451      Y      -0.1830      Z      -0.4364
       Tot       0.5856
    Quadrupole Moments (Debye-Ang)
        XX     -47.2304     XY       1.1078     YY     -36.3867
        XZ      -0.0739     YZ      -0.3556     ZZ     -42.3785

 Total job time:  20.06s(wall), 585.43s(cpu)
        *  Thank you very much for using Q-Chem.  Have a nice day.  *
