 Q-Chem 5.4, Q-Chem, Inc., Pleasanton, CA (2021)
 Q-Chem 5.4.0 for Intel X86 EM64T Linux

User input:
--------------------------------------------------------------
$molecule
0 1
C	-0.394387	-0.214208	-0.219377
S	0.213113	0.295792	1.361123
C	1.467613	1.348492	0.685523
C	0.370013	0.427392	-1.204777
C	1.381313	1.276092	-0.712877
H	0.189513	0.275892	-2.279277
H	2.056113	1.842392	-1.371977
C	-0.394387	-1.692408	-0.219377
H	-0.764287	-1.693008	0.795323
H	-1.321487	-2.131708	-0.556877
H	0.369613	-2.403408	0.058523
H	2.142213	1.914692	1.336623
$end

$rem
JOBTYPE		SP
EXCHANGE	HF
CORRELATION	pRIMP2
BASIS		cc-pvtz
METHOD		rimp2
AUX_BASIS	rimp2-cc-pvtz
SOLVENT_METHOD	PCM
PURECART	11111
SYMMETRY	false
MEM_TOTAL	110000
SCF_CONVERGENCE = 6
THRESH=10
GUI = 2
$end

$solvent
dielectric 4.90
$end
--------------------------------------------------------------

             Standard Nuclear Orientation (Angstroms)
    I     Atom           X                Y                Z
 ----------------------------------------------------------------
    1      C      -0.3943870000    -0.2142080000    -0.2193770000
    2      S       0.2131130000     0.2957920000     1.3611230000
    3      C       1.4676130000     1.3484920000     0.6855230000
    4      C       0.3700130000     0.4273920000    -1.2047770000
    5      C       1.3813130000     1.2760920000    -0.7128770000
    6      H       0.1895130000     0.2758920000    -2.2792770000
    7      H       2.0561130000     1.8423920000    -1.3719770000
    8      C      -0.3943870000    -1.6924080000    -0.2193770000
    9      H      -0.7642870000    -1.6930080000     0.7953230000
   10      H      -1.3214870000    -2.1317080000    -0.5568770000
   11      H       0.3696130000    -2.4034080000     0.0585230000
   12      H       2.1422130000     1.9146920000     1.3366230000
 ----------------------------------------------------------------

   11    -590.3199175305      5.00e-07  Convergence criterion met
 Total energy in the final basis set =     -590.3199175305
        RIMP2         total energy =      -591.3311400254 a.u.

                    Orbital Energies (a.u.)
 --------------------------------------------------------------

 Alpha MOs
 -- Occupied --
-91.9777 -11.2881 -11.2556 -11.2519 -11.2439 -11.2147  -8.9783  -6.6591
 -6.6583  -6.6579  -1.1653  -1.0368  -0.9783  -0.9101  -0.7650  -0.7246
 -0.6714  -0.5919  -0.5712  -0.5613  -0.5459  -0.4722  -0.4576  -0.4451
 -0.3431  -0.3132

          Ground-State Mulliken Net Atomic Charges

     Atom                 Charge (a.u.)
  ----------------------------------------
      1 C                    -0.095578
      2 S                     0.006896
      3 C                    -0.175628
      4 C                    -0.120812
      5 C                    -0.219888
      6 H                     0.186078
      7 H                     0.186028
      8 C                    -0.347139
      9 H                     0.107870
     10 H                     0.114132
     11 H                     0.149778
     12 H                     0.208262
  ----------------------------------------
  Sum of atomic charges =     0.000000

                    Cartesian Multipole Moments
 -----------------------------------------------------------------
    Charge (ESU x 10^10)
                -0.0000
    Dipole Moment (Debye)
         X       1.6999      Y       0.2457      Z      -0.5891
       Tot       1.8158
    Quadrupole Moments (Debye-Ang)
        XX     -42.3774     XY       4.9733     YY     -42.0892
        XZ       0.7319     YZ      -0.3956     ZZ     -41.6411

 Total job time:  26.47s(wall), 623.94s(cpu)
        *  Thank you very much for using Q-Chem.  Have a nice day.  *
