 Q-Chem 5.4, Q-Chem, Inc., Pleasanton, CA (2021)
 Q-Chem 5.4.0 for Intel X86 EM64T Linux

User input:
--------------------------------------------------------------
$molecule
0 1
C	-0.131230	-0.381707	-0.209652
S	0.073870	0.384493	1.370848
C	0.497670	1.966393	0.695248
C	0.126870	0.582293	-1.195052
C	0.468470	1.857593	-0.703152
H	0.065970	0.354693	-2.269552
H	0.696470	2.708493	-1.362252
C	-0.131230	-1.859907	-0.209652
H	-0.825030	-1.860507	-1.037352
H	0.624570	-2.299207	-0.843852
H	-0.753930	-2.570907	0.313048
H	0.725570	2.817093	1.346348
$end

$rem
JOBTYPE		SP
EXCHANGE	HF
CORRELATION	pRIMP2
BASIS		cc-pvtz
METHOD		rimp2
AUX_BASIS	rimp2-cc-pvtz
SOLVENT_METHOD	PCM
PURECART	11111
SYMMETRY	false
MEM_TOTAL	110000
SCF_CONVERGENCE = 6
THRESH=10
GUI = 2
$end

$solvent
dielectric 4.90
$end
--------------------------------------------------------------

             Standard Nuclear Orientation (Angstroms)
    I     Atom           X                Y                Z
 ----------------------------------------------------------------
    1      C      -0.1312300000    -0.3817070000    -0.2096520000
    2      S       0.0738700000     0.3844930000     1.3708480000
    3      C       0.4976700000     1.9663930000     0.6952480000
    4      C       0.1268700000     0.5822930000    -1.1950520000
    5      C       0.4684700000     1.8575930000    -0.7031520000
    6      H       0.0659700000     0.3546930000    -2.2695520000
    7      H       0.6964700000     2.7084930000    -1.3622520000
    8      C      -0.1312300000    -1.8599070000    -0.2096520000
    9      H      -0.8250300000    -1.8605070000    -1.0373520000
   10      H       0.6245700000    -2.2992070000    -0.8438520000
   11      H      -0.7539300000    -2.5709070000     0.3130480000
   12      H       0.7255700000     2.8170930000     1.3463480000
 ----------------------------------------------------------------

   10    -590.3681136150      6.16e-07  Convergence criterion met
 Total energy in the final basis set =     -590.3681136150
        RIMP2         total energy =      -591.3710677761 a.u.

                    Orbital Energies (a.u.)
 --------------------------------------------------------------

 Alpha MOs
 -- Occupied --
-91.9752 -11.2868 -11.2661 -11.2432 -11.2384 -11.2243  -8.9753  -6.6562
 -6.6556  -6.6551  -1.1569  -1.0385  -0.9720  -0.9192  -0.7540  -0.7234
 -0.6714  -0.5978  -0.5661  -0.5609  -0.5427  -0.5004  -0.4664  -0.4425
 -0.3451  -0.3049

          Ground-State Mulliken Net Atomic Charges

     Atom                 Charge (a.u.)
  ----------------------------------------
      1 C                     0.030166
      2 S                    -0.003351
      3 C                    -0.236311
      4 C                    -0.239471
      5 C                    -0.186791
      6 H                     0.181541
      7 H                     0.186064
      8 C                    -0.367920
      9 H                     0.127169
     10 H                     0.134444
     11 H                     0.171809
     12 H                     0.202648
  ----------------------------------------
  Sum of atomic charges =     0.000000

                    Cartesian Multipole Moments
 -----------------------------------------------------------------
    Charge (ESU x 10^10)
                -0.0000
    Dipole Moment (Debye)
         X      -0.1326      Y      -0.5570      Z      -1.6529
       Tot       1.7493
    Quadrupole Moments (Debye-Ang)
        XX     -47.1024     XY       3.3861     YY     -36.6443
        XZ      -0.1171     YZ       1.6458     ZZ     -41.9070

 Total job time:  11.54s(wall), 558.28s(cpu)
        *  Thank you very much for using Q-Chem.  Have a nice day.  *
