 Q-Chem 5.4, Q-Chem, Inc., Pleasanton, CA (2021)
 Q-Chem 5.4.0 for Intel X86 EM64T Linux

User input:
--------------------------------------------------------------
$molecule
0 1
C	-0.087950	-0.391505	-0.209225
S	0.049550	0.389695	1.371275
C	0.333950	2.002495	0.695675
C	0.085150	0.591395	-1.194625
C	0.314350	1.891595	-0.702725
H	0.044250	0.359295	-2.269125
H	0.467250	2.759095	-1.361825
C	-0.087950	-1.869705	-0.209225
H	-0.627450	-1.870305	-1.144825
H	0.766550	-2.309005	-0.702525
H	-0.791950	-2.580705	0.197375
H	0.486750	2.869795	1.346775
$end

$rem
JOBTYPE		SP
EXCHANGE	HF
CORRELATION	pRIMP2
BASIS		cc-pvtz
METHOD		rimp2
AUX_BASIS	rimp2-cc-pvtz
SOLVENT_METHOD	PCM
PURECART	11111
SYMMETRY	false
MEM_TOTAL	110000
SCF_CONVERGENCE = 6
THRESH=10
GUI = 2
$end

$solvent
dielectric 4.90
$end
--------------------------------------------------------------

             Standard Nuclear Orientation (Angstroms)
    I     Atom           X                Y                Z
 ----------------------------------------------------------------
    1      C      -0.0879500000    -0.3915050000    -0.2092250000
    2      S       0.0495500000     0.3896950000     1.3712750000
    3      C       0.3339500000     2.0024950000     0.6956750000
    4      C       0.0851500000     0.5913950000    -1.1946250000
    5      C       0.3143500000     1.8915950000    -0.7027250000
    6      H       0.0442500000     0.3592950000    -2.2691250000
    7      H       0.4672500000     2.7590950000    -1.3618250000
    8      C      -0.0879500000    -1.8697050000    -0.2092250000
    9      H      -0.6274500000    -1.8703050000    -1.1448250000
   10      H       0.7665500000    -2.3090050000    -0.7025250000
   11      H      -0.7919500000    -2.5807050000     0.1973750000
   12      H       0.4867500000     2.8697950000     1.3467750000
 ----------------------------------------------------------------

   10    -590.3711754151      5.97e-07  Convergence criterion met
 Total energy in the final basis set =     -590.3711754151
        RIMP2         total energy =      -591.3736295365 a.u.

                    Orbital Energies (a.u.)
 --------------------------------------------------------------

 Alpha MOs
 -- Occupied --
-91.9751 -11.2868 -11.2667 -11.2431 -11.2393 -11.2243  -8.9752  -6.6560
 -6.6554  -6.6550  -1.1568  -1.0384  -0.9723  -0.9193  -0.7540  -0.7237
 -0.6719  -0.5979  -0.5680  -0.5609  -0.5413  -0.5002  -0.4670  -0.4404
 -0.3451  -0.3078

          Ground-State Mulliken Net Atomic Charges

     Atom                 Charge (a.u.)
  ----------------------------------------
      1 C                     0.032055
      2 S                    -0.005505
      3 C                    -0.234659
      4 C                    -0.231746
      5 C                    -0.192447
      6 H                     0.182559
      7 H                     0.186091
      8 C                    -0.363587
      9 H                     0.123811
     10 H                     0.130381
     11 H                     0.169853
     12 H                     0.203192
  ----------------------------------------
  Sum of atomic charges =     0.000000

                    Cartesian Multipole Moments
 -----------------------------------------------------------------
    Charge (ESU x 10^10)
                -0.0000
    Dipole Moment (Debye)
         X      -0.1231      Y      -0.4923      Z      -1.7162
       Tot       1.7897
    Quadrupole Moments (Debye-Ang)
        XX     -47.3357     XY       2.4864     YY     -36.2813
        XZ      -0.1436     YZ       1.8290     ZZ     -42.0050

 Total job time:  10.31s(wall), 551.46s(cpu)
        *  Thank you very much for using Q-Chem.  Have a nice day.  *
