 Q-Chem 5.4, Q-Chem, Inc., Pleasanton, CA (2021)
 Q-Chem 5.4.0 for Intel X86 EM64T Linux

User input:
--------------------------------------------------------------
$molecule
0 1
C	-0.176199	-0.368118	-0.208958
S	0.094901	0.377282	1.371542
C	0.655001	1.916282	0.695942
C	0.165001	0.569782	-1.194358
C	0.616401	1.810382	-0.702458
H	0.084401	0.348282	-2.268858
H	0.917701	2.638182	-1.361558
C	-0.176199	-1.846318	-0.208958
H	-0.545099	-1.846918	-1.223958
H	0.750901	-2.285618	-0.546358
H	-0.940099	-2.557318	0.069242
H	0.956101	2.743882	1.347042
$end

$rem
JOBTYPE		SP
EXCHANGE	HF
CORRELATION	pRIMP2
BASIS		cc-pvtz
METHOD		rimp2
AUX_BASIS	rimp2-cc-pvtz
SOLVENT_METHOD	PCM
PURECART	11111
SYMMETRY	false
MEM_TOTAL	110000
SCF_CONVERGENCE = 6
THRESH=10
GUI = 2
$end

$solvent
dielectric 4.90
$end
--------------------------------------------------------------

             Standard Nuclear Orientation (Angstroms)
    I     Atom           X                Y                Z
 ----------------------------------------------------------------
    1      C      -0.1761990000    -0.3681180000    -0.2089580000
    2      S       0.0949010000     0.3772820000     1.3715420000
    3      C       0.6550010000     1.9162820000     0.6959420000
    4      C       0.1650010000     0.5697820000    -1.1943580000
    5      C       0.6164010000     1.8103820000    -0.7024580000
    6      H       0.0844010000     0.3482820000    -2.2688580000
    7      H       0.9177010000     2.6381820000    -1.3615580000
    8      C      -0.1761990000    -1.8463180000    -0.2089580000
    9      H      -0.5450990000    -1.8469180000    -1.2239580000
   10      H       0.7509010000    -2.2856180000    -0.5463580000
   11      H      -0.9400990000    -2.5573180000     0.0692420000
   12      H       0.9561010000     2.7438820000     1.3470420000
 ----------------------------------------------------------------

   10    -590.3665964191      6.29e-07  Convergence criterion met
 Total energy in the final basis set =     -590.3665964191
        RIMP2         total energy =      -591.3703649010 a.u.

                    Orbital Energies (a.u.)
 --------------------------------------------------------------

 Alpha MOs
 -- Occupied --
-91.9742 -11.2832 -11.2699 -11.2434 -11.2419 -11.2229  -8.9744  -6.6553
 -6.6547  -6.6542  -1.1578  -1.0377  -0.9730  -0.9183  -0.7547  -0.7243
 -0.6719  -0.5972  -0.5700  -0.5603  -0.5395  -0.5003  -0.4665  -0.4363
 -0.3449  -0.3104

          Ground-State Mulliken Net Atomic Charges

     Atom                 Charge (a.u.)
  ----------------------------------------
      1 C                     0.020170
      2 S                    -0.005746
      3 C                    -0.224168
      4 C                    -0.223823
      5 C                    -0.196198
      6 H                     0.182674
      7 H                     0.186654
      8 C                    -0.360120
      9 H                     0.118079
     10 H                     0.133575
     11 H                     0.165201
     12 H                     0.203702
  ----------------------------------------
  Sum of atomic charges =     0.000000

                    Cartesian Multipole Moments
 -----------------------------------------------------------------
    Charge (ESU x 10^10)
                -0.0000
    Dipole Moment (Debye)
         X       0.2651      Y      -0.3387      Z      -1.7606
       Tot       1.8123
    Quadrupole Moments (Debye-Ang)
        XX     -46.4495     XY       3.6309     YY     -37.1302
        XZ       0.0780     YZ       1.9060     ZZ     -42.0345

 Total job time:  10.54s(wall), 559.38s(cpu)
        *  Thank you very much for using Q-Chem.  Have a nice day.  *
