 Q-Chem 5.4, Q-Chem, Inc., Pleasanton, CA (2021)
 Q-Chem 5.4.0 for Intel X86 EM64T Linux

User input:
--------------------------------------------------------------
$molecule
0 1
C	-0.256424	-0.329934	-0.219377
S	0.139976	0.357066	1.361123
C	0.958776	1.775366	0.685523
C	0.242376	0.534466	-1.204777
C	0.902476	1.677866	-0.712877
H	0.124576	0.330366	-2.279277
H	1.342876	2.440766	-1.371977
C	-0.256424	-1.808134	-0.219377
H	-0.626324	-1.808734	0.795323
H	-1.183524	-2.247434	-0.556877
H	0.507576	-2.519134	0.058523
H	1.399076	2.538166	1.336623
$end

$rem
JOBTYPE		SP
EXCHANGE	HF
CORRELATION	pRIMP2
BASIS		cc-pvtz
METHOD		rimp2
AUX_BASIS	rimp2-cc-pvtz
SOLVENT_METHOD	PCM
PURECART	11111
SYMMETRY	false
MEM_TOTAL	110000
SCF_CONVERGENCE = 6
THRESH=10
GUI = 2
$end

$solvent
dielectric 4.90
$end
--------------------------------------------------------------

             Standard Nuclear Orientation (Angstroms)
    I     Atom           X                Y                Z
 ----------------------------------------------------------------
    1      C      -0.2564240000    -0.3299340000    -0.2193770000
    2      S       0.1399760000     0.3570660000     1.3611230000
    3      C       0.9587760000     1.7753660000     0.6855230000
    4      C       0.2423760000     0.5344660000    -1.2047770000
    5      C       0.9024760000     1.6778660000    -0.7128770000
    6      H       0.1245760000     0.3303660000    -2.2792770000
    7      H       1.3428760000     2.4407660000    -1.3719770000
    8      C      -0.2564240000    -1.8081340000    -0.2193770000
    9      H      -0.6263240000    -1.8087340000     0.7953230000
   10      H      -1.1835240000    -2.2474340000    -0.5568770000
   11      H       0.5075760000    -2.5191340000     0.0585230000
   12      H       1.3990760000     2.5381660000     1.3366230000
 ----------------------------------------------------------------

   10    -590.3521679018      7.51e-07  Convergence criterion met
 Total energy in the final basis set =     -590.3521679018
        RIMP2         total energy =      -591.3582516962 a.u.

                    Orbital Energies (a.u.)
 --------------------------------------------------------------

 Alpha MOs
 -- Occupied --
-91.9796 -11.2760 -11.2729 -11.2436 -11.2415 -11.2199  -8.9796  -6.6604
 -6.6598  -6.6593  -1.1600  -1.0378  -0.9747  -0.9158  -0.7606  -0.7215
 -0.6713  -0.5946  -0.5690  -0.5620  -0.5419  -0.4851  -0.4626  -0.4482
 -0.3458  -0.3118

          Ground-State Mulliken Net Atomic Charges

     Atom                 Charge (a.u.)
  ----------------------------------------
      1 C                    -0.025024
      2 S                     0.000403
      3 C                    -0.215207
      4 C                    -0.193635
      5 C                    -0.193611
      6 H                     0.184251
      7 H                     0.186637
      8 C                    -0.339364
      9 H                     0.109094
     10 H                     0.123369
     11 H                     0.156579
     12 H                     0.206506
  ----------------------------------------
  Sum of atomic charges =     0.000000

                    Cartesian Multipole Moments
 -----------------------------------------------------------------
    Charge (ESU x 10^10)
                -0.0000
    Dipole Moment (Debye)
         X       0.6798      Y       0.0466      Z      -0.5302
       Tot       0.8633
    Quadrupole Moments (Debye-Ang)
        XX     -45.2953     XY       4.2479     YY     -38.5827
        XZ       0.5255     YZ      -0.3579     ZZ     -42.1132

 Total job time:  15.47s(wall), 553.89s(cpu)
        *  Thank you very much for using Q-Chem.  Have a nice day.  *
