 Q-Chem 5.4, Q-Chem, Inc., Pleasanton, CA (2021)
 Q-Chem 5.4.0 for Intel X86 EM64T Linux

User input:
--------------------------------------------------------------
$molecule
0 1
C	-0.090841	-0.391505	-0.208929
S	0.046659	0.389695	1.371571
C	0.331059	2.002495	0.695971
C	0.082259	0.591395	-1.194329
C	0.311459	1.891595	-0.702429
H	0.041359	0.359295	-2.268829
H	0.464359	2.759095	-1.361529
C	-0.090841	-1.869705	-0.208929
H	-0.090341	-1.870305	-1.288929
H	0.895759	-2.309005	-0.208929
H	-0.903841	-2.580705	-0.208829
H	0.483859	2.869795	1.347071
$end

$rem
JOBTYPE		SP
EXCHANGE	HF
CORRELATION	pRIMP2
BASIS		cc-pvtz
METHOD		rimp2
AUX_BASIS	rimp2-cc-pvtz
SOLVENT_METHOD	PCM
PURECART	11111
SYMMETRY	false
MEM_TOTAL	110000
SCF_CONVERGENCE = 6
THRESH=10
GUI = 2
$end

$solvent
dielectric 4.90
$end
--------------------------------------------------------------

             Standard Nuclear Orientation (Angstroms)
    I     Atom           X                Y                Z
 ----------------------------------------------------------------
    1      C      -0.0908410000    -0.3915050000    -0.2089290000
    2      S       0.0466590000     0.3896950000     1.3715710000
    3      C       0.3310590000     2.0024950000     0.6959710000
    4      C       0.0822590000     0.5913950000    -1.1943290000
    5      C       0.3114590000     1.8915950000    -0.7024290000
    6      H       0.0413590000     0.3592950000    -2.2688290000
    7      H       0.4643590000     2.7590950000    -1.3615290000
    8      C      -0.0908410000    -1.8697050000    -0.2089290000
    9      H      -0.0903410000    -1.8703050000    -1.2889290000
   10      H       0.8957590000    -2.3090050000    -0.2089290000
   11      H      -0.9038410000    -2.5807050000    -0.2088290000
   12      H       0.4838590000     2.8697950000     1.3470710000
 ----------------------------------------------------------------

   10    -590.3725256615      5.81e-07  Convergence criterion met
 Total energy in the final basis set =     -590.3725256615
        RIMP2         total energy =      -591.3749015083 a.u.

                    Orbital Energies (a.u.)
 --------------------------------------------------------------

 Alpha MOs
 -- Occupied --
-91.9746 -11.2848 -11.2692 -11.2430 -11.2415 -11.2235  -8.9748  -6.6556
 -6.6551  -6.6546  -1.1572  -1.0379  -0.9730  -0.9189  -0.7546  -0.7244
 -0.6725  -0.5974  -0.5711  -0.5598  -0.5388  -0.5002  -0.4674  -0.4363
 -0.3449  -0.3130

          Ground-State Mulliken Net Atomic Charges

     Atom                 Charge (a.u.)
  ----------------------------------------
      1 C                     0.033111
      2 S                    -0.008746
      3 C                    -0.226843
      4 C                    -0.222301
      5 C                    -0.200895
      6 H                     0.183178
      7 H                     0.187042
      8 C                    -0.356311
      9 H                     0.117361
     10 H                     0.131925
     11 H                     0.158150
     12 H                     0.204328
  ----------------------------------------
  Sum of atomic charges =     0.000000

                    Cartesian Multipole Moments
 -----------------------------------------------------------------
    Charge (ESU x 10^10)
                -0.0000
    Dipole Moment (Debye)
         X       0.2569      Y      -0.3182      Z      -1.7879
       Tot       1.8340
    Quadrupole Moments (Debye-Ang)
        XX     -47.1922     XY       1.7458     YY     -36.2845
        XZ       0.1610     YZ       2.1094     ZZ     -42.1221

 Total job time:  10.86s(wall), 570.99s(cpu)
        *  Thank you very much for using Q-Chem.  Have a nice day.  *
