 Q-Chem 5.4, Q-Chem, Inc., Pleasanton, CA (2021)
 Q-Chem 5.4.0 for Intel X86 EM64T Linux

User input:
--------------------------------------------------------------
$molecule
0 1
C	0.003626	-0.399361	-0.218828
S	0.003426	0.393839	1.361672
C	0.003426	2.031539	0.686072
C	0.003426	0.598639	-1.204228
C	0.003326	1.918839	-0.712328
H	0.003526	0.362939	-2.278728
H	0.003326	2.799839	-1.371428
C	0.003626	-1.877561	-0.218828
H	-0.536874	-1.878161	0.716172
H	-0.850774	-2.316861	-0.712128
H	0.707726	-2.588561	0.187572
H	0.003326	2.912239	1.337172
$end

$rem
JOBTYPE		SP
EXCHANGE	HF
CORRELATION	pRIMP2
BASIS		cc-pvtz
METHOD		rimp2
AUX_BASIS	rimp2-cc-pvtz
SOLVENT_METHOD	PCM
PURECART	11111
SYMMETRY	false
MEM_TOTAL	110000
SCF_CONVERGENCE = 6
THRESH=10
GUI = 2
$end

$solvent
dielectric 4.90
$end
--------------------------------------------------------------

             Standard Nuclear Orientation (Angstroms)
    I     Atom           X                Y                Z
 ----------------------------------------------------------------
    1      C       0.0036260000    -0.3993610000    -0.2188280000
    2      S       0.0034260000     0.3938390000     1.3616720000
    3      C       0.0034260000     2.0315390000     0.6860720000
    4      C       0.0034260000     0.5986390000    -1.2042280000
    5      C       0.0033260000     1.9188390000    -0.7123280000
    6      H       0.0035260000     0.3629390000    -2.2787280000
    7      H       0.0033260000     2.7998390000    -1.3714280000
    8      C       0.0036260000    -1.8775610000    -0.2188280000
    9      H      -0.5368740000    -1.8781610000     0.7161720000
   10      H      -0.8507740000    -2.3168610000    -0.7121280000
   11      H       0.7077260000    -2.5885610000     0.1875720000
   12      H       0.0033260000     2.9122390000     1.3371720000
 ----------------------------------------------------------------

   10    -590.3715713155      5.89e-07  Convergence criterion met
 Total energy in the final basis set =     -590.3715713155
        RIMP2         total energy =      -591.3729873753 a.u.

                    Orbital Energies (a.u.)
 --------------------------------------------------------------

 Alpha MOs
 -- Occupied --
-91.9792 -11.2850 -11.2683 -11.2430 -11.2361 -11.2244  -8.9792  -6.6601
 -6.6596  -6.6590  -1.1578  -1.0399  -0.9728  -0.9188  -0.7580  -0.7205
 -0.6715  -0.5976  -0.5689  -0.5616  -0.5374  -0.4982  -0.4650  -0.4518
 -0.3464  -0.3088

          Ground-State Mulliken Net Atomic Charges

     Atom                 Charge (a.u.)
  ----------------------------------------
      1 C                     0.022482
      2 S                    -0.004040
      3 C                    -0.234865
      4 C                    -0.218972
      5 C                    -0.191540
      6 H                     0.184953
      7 H                     0.185856
      8 C                    -0.348234
      9 H                     0.115343
     10 H                     0.130821
     11 H                     0.152778
     12 H                     0.205418
  ----------------------------------------
  Sum of atomic charges =     0.000000

                    Cartesian Multipole Moments
 -----------------------------------------------------------------
    Charge (ESU x 10^10)
                -0.0000
    Dipole Moment (Debye)
         X      -0.3420      Y      -0.3201      Z      -0.5207
       Tot       0.7004
    Quadrupole Moments (Debye-Ang)
        XX     -47.6714     XY       0.5513     YY     -36.0143
        XZ       0.4212     YZ      -0.3860     ZZ     -42.2863

 Total job time:  10.18s(wall), 548.49s(cpu)
        *  Thank you very much for using Q-Chem.  Have a nice day.  *
