 Q-Chem 5.4, Q-Chem, Inc., Pleasanton, CA (2021)
 Q-Chem 5.4.0 for Intel X86 EM64T Linux

User input:
--------------------------------------------------------------
$molecule
0 1
C	-0.398967	-0.214208	-0.209169
S	0.208533	0.295792	1.371331
C	1.463033	1.348492	0.695731
C	0.365433	0.427392	-1.194569
C	1.376733	1.276092	-0.702669
H	0.184933	0.275892	-2.269069
H	2.051533	1.842392	-1.361769
C	-0.398967	-1.692408	-0.209169
H	-0.210867	-1.693008	-1.272669
H	0.572633	-2.131708	-0.037769
H	-1.199667	-2.403408	-0.350169
H	2.137633	1.914692	1.346831
$end

$rem
JOBTYPE		SP
EXCHANGE	HF
CORRELATION	pRIMP2
BASIS		cc-pvtz
METHOD		rimp2
AUX_BASIS	rimp2-cc-pvtz
SOLVENT_METHOD	PCM
PURECART	11111
SYMMETRY	false
MEM_TOTAL	110000
SCF_CONVERGENCE = 6
THRESH=10
GUI = 2
$end

$solvent
dielectric 4.90
$end
--------------------------------------------------------------

             Standard Nuclear Orientation (Angstroms)
    I     Atom           X                Y                Z
 ----------------------------------------------------------------
    1      C      -0.3989670000    -0.2142080000    -0.2091690000
    2      S       0.2085330000     0.2957920000     1.3713310000
    3      C       1.4630330000     1.3484920000     0.6957310000
    4      C       0.3654330000     0.4273920000    -1.1945690000
    5      C       1.3767330000     1.2760920000    -0.7026690000
    6      H       0.1849330000     0.2758920000    -2.2690690000
    7      H       2.0515330000     1.8423920000    -1.3617690000
    8      C      -0.3989670000    -1.6924080000    -0.2091690000
    9      H      -0.2108670000    -1.6930080000    -1.2726690000
   10      H       0.5726330000    -2.1317080000    -0.0377690000
   11      H      -1.1996670000    -2.4034080000    -0.3501690000
   12      H       2.1376330000     1.9146920000     1.3468310000
 ----------------------------------------------------------------

   11    -590.3260848112      4.66e-07  Convergence criterion met
 Total energy in the final basis set =     -590.3260848112
        RIMP2         total energy =      -591.3377133606 a.u.

                    Orbital Energies (a.u.)
 --------------------------------------------------------------

 Alpha MOs
 -- Occupied --
-91.9744 -11.2844 -11.2641 -11.2519 -11.2442 -11.2162  -8.9749  -6.6557
 -6.6549  -6.6546  -1.1658  -1.0372  -0.9773  -0.9091  -0.7600  -0.7284
 -0.6718  -0.5959  -0.5759  -0.5549  -0.5415  -0.4821  -0.4688  -0.4324
 -0.3408  -0.3132

          Ground-State Mulliken Net Atomic Charges

     Atom                 Charge (a.u.)
  ----------------------------------------
      1 C                    -0.060528
      2 S                     0.005566
      3 C                    -0.183018
      4 C                    -0.141350
      5 C                    -0.223229
      6 H                     0.181644
      7 H                     0.187919
      8 C                    -0.350314
      9 H                     0.111334
     10 H                     0.130531
     11 H                     0.135363
     12 H                     0.206081
  ----------------------------------------
  Sum of atomic charges =     0.000000

                    Cartesian Multipole Moments
 -----------------------------------------------------------------
    Charge (ESU x 10^10)
                 0.0000
    Dipole Moment (Debye)
         X       1.8490      Y      -0.0286      Z      -1.7407
       Tot       2.5396
    Quadrupole Moments (Debye-Ang)
        XX     -42.5525     XY       4.7219     YY     -42.1067
        XZ       0.9281     YZ       1.6785     ZZ     -41.4966

 Total job time:  11.46s(wall), 610.04s(cpu)
        *  Thank you very much for using Q-Chem.  Have a nice day.  *
