 Q-Chem 5.4, Q-Chem, Inc., Pleasanton, CA (2021)
 Q-Chem 5.4.0 for Intel X86 EM64T Linux

User input:
--------------------------------------------------------------
$molecule
0 1
C	-0.451845	-0.140188	-0.219296
S	0.234955	0.256612	1.361204
C	1.653255	1.075412	0.685604
C	0.412355	0.358912	-1.204696
C	1.555655	1.019112	-0.712796
H	0.208255	0.241112	-2.279196
H	2.318555	1.459712	-1.371896
C	-0.451845	-1.618388	-0.219296
H	0.241955	-1.618988	0.608404
H	-1.207645	-2.057688	0.414904
H	0.170855	-2.329388	-0.741996
H	2.415855	1.515912	1.336704
$end

$rem
JOBTYPE		SP
EXCHANGE	HF
CORRELATION	pRIMP2
BASIS		cc-pvtz
METHOD		rimp2
AUX_BASIS	rimp2-cc-pvtz
SOLVENT_METHOD	PCM
PURECART	11111
SYMMETRY	false
MEM_TOTAL	110000
SCF_CONVERGENCE = 6
THRESH=10
GUI = 2
$end

$solvent
dielectric 4.90
$end
--------------------------------------------------------------

             Standard Nuclear Orientation (Angstroms)
    I     Atom           X                Y                Z
 ----------------------------------------------------------------
    1      C      -0.4518450000    -0.1401880000    -0.2192960000
    2      S       0.2349550000     0.2566120000     1.3612040000
    3      C       1.6532550000     1.0754120000     0.6856040000
    4      C       0.4123550000     0.3589120000    -1.2046960000
    5      C       1.5556550000     1.0191120000    -0.7127960000
    6      H       0.2082550000     0.2411120000    -2.2791960000
    7      H       2.3185550000     1.4597120000    -1.3718960000
    8      C      -0.4518450000    -1.6183880000    -0.2192960000
    9      H       0.2419550000    -1.6189880000     0.6084040000
   10      H      -1.2076450000    -2.0576880000     0.4149040000
   11      H       0.1708550000    -2.3293880000    -0.7419960000
   12      H       2.4158550000     1.5159120000     1.3367040000
 ----------------------------------------------------------------

   11    -590.2880111739      3.28e-07  Convergence criterion met
 Total energy in the final basis set =     -590.2880111739
        RIMP2         total energy =      -591.3026095712 a.u.

                    Orbital Energies (a.u.)
 --------------------------------------------------------------

 Alpha MOs
 -- Occupied --
-91.9712 -11.2943 -11.2592 -11.2544 -11.2451 -11.2101  -8.9732  -6.6539
 -6.6530  -6.6528  -1.1738  -1.0399  -0.9819  -0.9032  -0.7689  -0.7282
 -0.6735  -0.5891  -0.5789  -0.5665  -0.5331  -0.4901  -0.4637  -0.4370
 -0.3416  -0.2998

          Ground-State Mulliken Net Atomic Charges

     Atom                 Charge (a.u.)
  ----------------------------------------
      1 C                    -0.108597
      2 S                    -0.004140
      3 C                    -0.152739
      4 C                    -0.087731
      5 C                    -0.248134
      6 H                     0.189854
      7 H                     0.187355
      8 C                    -0.373207
      9 H                     0.132000
     10 H                     0.106625
     11 H                     0.149444
     12 H                     0.209270
  ----------------------------------------
  Sum of atomic charges =     0.000000

                    Cartesian Multipole Moments
 -----------------------------------------------------------------
    Charge (ESU x 10^10)
                 0.0000
    Dipole Moment (Debye)
         X       2.8086      Y      -0.0655      Z      -0.7456
       Tot       2.9066
    Quadrupole Moments (Debye-Ang)
        XX     -41.6311     XY       3.4659     YY     -44.0610
        XZ       0.2408     YZ      -0.4628     ZZ     -41.2463

 Total job time:  11.52s(wall), 610.94s(cpu)
        *  Thank you very much for using Q-Chem.  Have a nice day.  *
