 Q-Chem 5.4, Q-Chem, Inc., Pleasanton, CA (2021)
 Q-Chem 5.4.0 for Intel X86 EM64T Linux

User input:
--------------------------------------------------------------
$molecule
0 1
C	-0.448884	-0.140188	-0.208858
S	0.237916	0.256612	1.371642
C	1.656216	1.075412	0.696042
C	0.415316	0.358912	-1.194258
C	1.558616	1.019112	-0.702358
H	0.211216	0.241112	-2.268758
H	2.321516	1.459712	-1.361458
C	-0.448884	-1.618388	-0.208858
H	-0.635884	-1.618988	-1.272558
H	0.522716	-2.057688	-0.380158
H	-1.249484	-2.329388	-0.067558
H	2.418816	1.515912	1.347142
$end

$rem
JOBTYPE		SP
EXCHANGE	HF
CORRELATION	pRIMP2
BASIS		cc-pvtz
METHOD		rimp2
AUX_BASIS	rimp2-cc-pvtz
SOLVENT_METHOD	PCM
PURECART	11111
SYMMETRY	false
MEM_TOTAL	110000
SCF_CONVERGENCE = 6
THRESH=10
GUI = 2
$end

$solvent
dielectric 4.90
$end
--------------------------------------------------------------

             Standard Nuclear Orientation (Angstroms)
    I     Atom           X                Y                Z
 ----------------------------------------------------------------
    1      C      -0.4488840000    -0.1401880000    -0.2088580000
    2      S       0.2379160000     0.2566120000     1.3716420000
    3      C       1.6562160000     1.0754120000     0.6960420000
    4      C       0.4153160000     0.3589120000    -1.1942580000
    5      C       1.5586160000     1.0191120000    -0.7023580000
    6      H       0.2112160000     0.2411120000    -2.2687580000
    7      H       2.3215160000     1.4597120000    -1.3614580000
    8      C      -0.4488840000    -1.6183880000    -0.2088580000
    9      H      -0.6358840000    -1.6189880000    -1.2725580000
   10      H       0.5227160000    -2.0576880000    -0.3801580000
   11      H      -1.2494840000    -2.3293880000    -0.0675580000
   12      H       2.4188160000     1.5159120000     1.3471420000
 ----------------------------------------------------------------

   11    -590.3075017834      5.39e-07  Convergence criterion met
 Total energy in the final basis set =     -590.3075017834
        RIMP2         total energy =      -591.3218001006 a.u.

                    Orbital Energies (a.u.)
 --------------------------------------------------------------

 Alpha MOs
 -- Occupied --
-91.9738 -11.2934 -11.2593 -11.2526 -11.2461 -11.2151  -8.9747  -6.6554
 -6.6545  -6.6543  -1.1703  -1.0380  -0.9796  -0.9066  -0.7626  -0.7310
 -0.6728  -0.5958  -0.5800  -0.5551  -0.5390  -0.4840  -0.4669  -0.4225
 -0.3406  -0.3150

          Ground-State Mulliken Net Atomic Charges

     Atom                 Charge (a.u.)
  ----------------------------------------
      1 C                    -0.107239
      2 S                     0.012763
      3 C                    -0.154254
      4 C                    -0.095394
      5 C                    -0.242695
      6 H                     0.185920
      7 H                     0.188029
      8 C                    -0.350573
      9 H                     0.097062
     10 H                     0.122515
     11 H                     0.135816
     12 H                     0.208050
  ----------------------------------------
  Sum of atomic charges =     0.000000

                    Cartesian Multipole Moments
 -----------------------------------------------------------------
    Charge (ESU x 10^10)
                 0.0000
    Dipole Moment (Debye)
         X       2.2724      Y       0.0164      Z      -1.6977
       Tot       2.8366
    Quadrupole Moments (Debye-Ang)
        XX     -40.8294     XY       4.9832     YY     -43.7638
        XZ       0.8364     YZ       1.3592     ZZ     -41.3045

 Total job time:  11.62s(wall), 611.65s(cpu)
        *  Thank you very much for using Q-Chem.  Have a nice day.  *
