 Q-Chem 5.4, Q-Chem, Inc., Pleasanton, CA (2021)
 Q-Chem 5.4.0 for Intel X86 EM64T Linux

User input:
--------------------------------------------------------------
$molecule
0 1
C	-0.450809	-0.140188	-0.209169
S	0.235991	0.256612	1.371331
C	1.654291	1.075412	0.695731
C	0.413391	0.358912	-1.194569
C	1.556691	1.019112	-0.702669
H	0.209291	0.241112	-2.269069
H	2.319591	1.459712	-1.361769
C	-0.450809	-1.618388	-0.209169
H	-0.262709	-1.618988	-1.272669
H	0.520791	-2.057688	-0.037769
H	-1.251509	-2.329388	-0.350169
H	2.416891	1.515912	1.346831
$end

$rem
JOBTYPE		SP
EXCHANGE	HF
CORRELATION	pRIMP2
BASIS		cc-pvtz
METHOD		rimp2
AUX_BASIS	rimp2-cc-pvtz
SOLVENT_METHOD	PCM
PURECART	11111
SYMMETRY	false
MEM_TOTAL	110000
SCF_CONVERGENCE = 6
THRESH=10
GUI = 2
$end

$solvent
dielectric 4.90
$end
--------------------------------------------------------------

             Standard Nuclear Orientation (Angstroms)
    I     Atom           X                Y                Z
 ----------------------------------------------------------------
    1      C      -0.4508090000    -0.1401880000    -0.2091690000
    2      S       0.2359910000     0.2566120000     1.3713310000
    3      C       1.6542910000     1.0754120000     0.6957310000
    4      C       0.4133910000     0.3589120000    -1.1945690000
    5      C       1.5566910000     1.0191120000    -0.7026690000
    6      H       0.2092910000     0.2411120000    -2.2690690000
    7      H       2.3195910000     1.4597120000    -1.3617690000
    8      C      -0.4508090000    -1.6183880000    -0.2091690000
    9      H      -0.2627090000    -1.6189880000    -1.2726690000
   10      H       0.5207910000    -2.0576880000    -0.0377690000
   11      H      -1.2515090000    -2.3293880000    -0.3501690000
   12      H       2.4168910000     1.5159120000     1.3468310000
 ----------------------------------------------------------------

   11    -590.3032822655      5.74e-07  Convergence criterion met
 Total energy in the final basis set =     -590.3032822655
        RIMP2         total energy =      -591.3180200128 a.u.

                    Orbital Energies (a.u.)
 --------------------------------------------------------------

 Alpha MOs
 -- Occupied --
-91.9746 -11.2929 -11.2586 -11.2532 -11.2453 -11.2139  -8.9753  -6.6560
 -6.6552  -6.6550  -1.1712  -1.0385  -0.9801  -0.9050  -0.7633  -0.7316
 -0.6727  -0.5971  -0.5792  -0.5535  -0.5415  -0.4753  -0.4693  -0.4303
 -0.3378  -0.3144

          Ground-State Mulliken Net Atomic Charges

     Atom                 Charge (a.u.)
  ----------------------------------------
      1 C                    -0.107196
      2 S                     0.012193
      3 C                    -0.157530
      4 C                    -0.091778
      5 C                    -0.243222
      6 H                     0.184645
      7 H                     0.187576
      8 C                    -0.345516
      9 H                     0.104682
     10 H                     0.119784
     11 H                     0.128264
     12 H                     0.208097
  ----------------------------------------
  Sum of atomic charges =     0.000000

                    Cartesian Multipole Moments
 -----------------------------------------------------------------
    Charge (ESU x 10^10)
                 0.0000
    Dipole Moment (Debye)
         X       2.4615      Y      -0.0156      Z      -1.7191
       Tot       3.0024
    Quadrupole Moments (Debye-Ang)
        XX     -41.0940     XY       4.4744     YY     -43.9119
        XZ       1.1012     YZ       1.4343     ZZ     -41.1727

 Total job time:  11.36s(wall), 611.09s(cpu)
        *  Thank you very much for using Q-Chem.  Have a nice day.  *
