 Q-Chem 5.4, Q-Chem, Inc., Pleasanton, CA (2021)
 Q-Chem 5.4.0 for Intel X86 EM64T Linux

User input:
--------------------------------------------------------------
$molecule
0 1
C	-0.047982	-0.397395	-0.219296
S	0.020918	0.392805	1.361204
C	0.163618	2.024305	0.685604
C	0.038818	0.596805	-1.204696
C	0.153818	1.912005	-0.712796
H	0.018318	0.362105	-2.279196
H	0.230518	2.789605	-1.371896
C	-0.047982	-1.875595	-0.219296
H	0.645818	-1.876195	0.608404
H	-0.803782	-2.314895	0.414904
H	0.574718	-2.586595	-0.741996
H	0.240318	2.901605	1.336704
$end

$rem
JOBTYPE		SP
EXCHANGE	HF
CORRELATION	pRIMP2
BASIS		cc-pvtz
METHOD		rimp2
AUX_BASIS	rimp2-cc-pvtz
SOLVENT_METHOD	PCM
PURECART	11111
SYMMETRY	false
MEM_TOTAL	110000
SCF_CONVERGENCE = 6
THRESH=10
GUI = 2
$end

$solvent
dielectric 4.90
$end
--------------------------------------------------------------

             Standard Nuclear Orientation (Angstroms)
    I     Atom           X                Y                Z
 ----------------------------------------------------------------
    1      C      -0.0479820000    -0.3973950000    -0.2192960000
    2      S       0.0209180000     0.3928050000     1.3612040000
    3      C       0.1636180000     2.0243050000     0.6856040000
    4      C       0.0388180000     0.5968050000    -1.2046960000
    5      C       0.1538180000     1.9120050000    -0.7127960000
    6      H       0.0183180000     0.3621050000    -2.2791960000
    7      H       0.2305180000     2.7896050000    -1.3718960000
    8      C      -0.0479820000    -1.8755950000    -0.2192960000
    9      H       0.6458180000    -1.8761950000     0.6084040000
   10      H      -0.8037820000    -2.3148950000     0.4149040000
   11      H       0.5747180000    -2.5865950000    -0.7419960000
   12      H       0.2403180000     2.9016050000     1.3367040000
 ----------------------------------------------------------------

   10    -590.3718580062      5.96e-07  Convergence criterion met
 Total energy in the final basis set =     -590.3718580062
        RIMP2         total energy =      -591.3724851988 a.u.

                    Orbital Energies (a.u.)
 --------------------------------------------------------------

 Alpha MOs
 -- Occupied --
-91.9792 -11.2868 -11.2673 -11.2427 -11.2341 -11.2251  -8.9792  -6.6601
 -6.6596  -6.6590  -1.1579  -1.0405  -0.9723  -0.9188  -0.7572  -0.7207
 -0.6717  -0.5970  -0.5673  -0.5631  -0.5342  -0.5009  -0.4675  -0.4546
 -0.3467  -0.3053

          Ground-State Mulliken Net Atomic Charges

     Atom                 Charge (a.u.)
  ----------------------------------------
      1 C                     0.024897
      2 S                    -0.004045
      3 C                    -0.237402
      4 C                    -0.232732
      5 C                    -0.187117
      6 H                     0.185121
      7 H                     0.185756
      8 C                    -0.355094
      9 H                     0.121750
     10 H                     0.133121
     11 H                     0.160255
     12 H                     0.205489
  ----------------------------------------
  Sum of atomic charges =     0.000000

                    Cartesian Multipole Moments
 -----------------------------------------------------------------
    Charge (ESU x 10^10)
                -0.0000
    Dipole Moment (Debye)
         X       0.5393      Y      -0.4493      Z      -0.5466
       Tot       0.8896
    Quadrupole Moments (Debye-Ang)
        XX     -47.7709     XY      -0.2908     YY     -36.0195
        XZ      -0.4281     YZ      -0.0225     ZZ     -42.2204

 Total job time:  11.61s(wall), 557.47s(cpu)
        *  Thank you very much for using Q-Chem.  Have a nice day.  *
