 Q-Chem 5.4, Q-Chem, Inc., Pleasanton, CA (2021)
 Q-Chem 5.4.0 for Intel X86 EM64T Linux

User input:
--------------------------------------------------------------
$molecule
0 1
C	-0.175412	-0.368118	-0.219778
S	0.095688	0.377282	1.360722
C	0.655788	1.916282	0.685122
C	0.165788	0.569782	-1.205178
C	0.617188	1.810382	-0.713278
H	0.085188	0.348282	-2.279678
H	0.918488	2.638182	-1.372378
C	-0.175412	-1.846318	-0.219778
H	-0.363512	-1.846918	0.843722
H	-1.147012	-2.285618	-0.391178
H	0.625288	-2.557318	-0.078778
H	0.956888	2.743882	1.336222
$end

$rem
JOBTYPE		SP
EXCHANGE	HF
CORRELATION	pRIMP2
BASIS		cc-pvtz
METHOD		rimp2
AUX_BASIS	rimp2-cc-pvtz
SOLVENT_METHOD	PCM
PURECART	11111
SYMMETRY	false
MEM_TOTAL	110000
SCF_CONVERGENCE = 6
THRESH=10
GUI = 2
$end

$solvent
dielectric 4.90
$end
--------------------------------------------------------------

             Standard Nuclear Orientation (Angstroms)
    I     Atom           X                Y                Z
 ----------------------------------------------------------------
    1      C      -0.1754120000    -0.3681180000    -0.2197780000
    2      S       0.0956880000     0.3772820000     1.3607220000
    3      C       0.6557880000     1.9162820000     0.6851220000
    4      C       0.1657880000     0.5697820000    -1.2051780000
    5      C       0.6171880000     1.8103820000    -0.7132780000
    6      H       0.0851880000     0.3482820000    -2.2796780000
    7      H       0.9184880000     2.6381820000    -1.3723780000
    8      C      -0.1754120000    -1.8463180000    -0.2197780000
    9      H      -0.3635120000    -1.8469180000     0.8437220000
   10      H      -1.1470120000    -2.2856180000    -0.3911780000
   11      H       0.6252880000    -2.5573180000    -0.0787780000
   12      H       0.9568880000     2.7438820000     1.3362220000
 ----------------------------------------------------------------

   10    -590.3617563113      6.47e-07  Convergence criterion met
 Total energy in the final basis set =     -590.3617563113
        RIMP2         total energy =      -591.3657787384 a.u.

                    Orbital Energies (a.u.)
 --------------------------------------------------------------

 Alpha MOs
 -- Occupied --
-91.9803 -11.2781 -11.2724 -11.2433 -11.2388 -11.2217  -8.9802  -6.6610
 -6.6605  -6.6599  -1.1589  -1.0389  -0.9739  -0.9172  -0.7598  -0.7208
 -0.6717  -0.5956  -0.5694  -0.5624  -0.5387  -0.4930  -0.4626  -0.4480
 -0.3461  -0.3125

          Ground-State Mulliken Net Atomic Charges

     Atom                 Charge (a.u.)
  ----------------------------------------
      1 C                     0.002708
      2 S                    -0.002779
      3 C                    -0.227330
      4 C                    -0.211723
      5 C                    -0.188985
      6 H                     0.184488
      7 H                     0.186389
      8 C                    -0.337280
      9 H                     0.109458
     10 H                     0.125858
     11 H                     0.152672
     12 H                     0.206523
  ----------------------------------------
  Sum of atomic charges =     0.000000

                    Cartesian Multipole Moments
 -----------------------------------------------------------------
    Charge (ESU x 10^10)
                -0.0000
    Dipole Moment (Debye)
         X       0.4230      Y      -0.0605      Z      -0.4705
       Tot       0.6356
    Quadrupole Moments (Debye-Ang)
        XX     -46.4308     XY       2.9676     YY     -37.2586
        XZ       0.3027     YZ      -0.3967     ZZ     -42.2903

 Total job time:  10.23s(wall), 540.34s(cpu)
        *  Thank you very much for using Q-Chem.  Have a nice day.  *
