 Q-Chem 5.4, Q-Chem, Inc., Pleasanton, CA (2021)
 Q-Chem 5.4.0 for Intel X86 EM64T Linux

User input:
--------------------------------------------------------------
$molecule
0 1
C	-0.331367	-0.278098	-0.219778
S	0.178333	0.329602	1.360722
C	1.231033	1.584202	0.685122
C	0.310033	0.486502	-1.205178
C	1.158533	1.497902	-0.713278
H	0.158533	0.306002	-2.279678
H	1.724733	2.172802	-1.372378
C	-0.331367	-1.756298	-0.219778
H	-0.519467	-1.756898	0.843722
H	-1.302967	-2.195598	-0.391178
H	0.469333	-2.467298	-0.078778
H	1.797033	2.258902	1.336222
$end

$rem
JOBTYPE		SP
EXCHANGE	HF
CORRELATION	pRIMP2
BASIS		cc-pvtz
METHOD		rimp2
AUX_BASIS	rimp2-cc-pvtz
SOLVENT_METHOD	PCM
PURECART	11111
SYMMETRY	false
MEM_TOTAL	110000
SCF_CONVERGENCE = 6
THRESH=10
GUI = 2
$end

$solvent
dielectric 4.90
$end
--------------------------------------------------------------

             Standard Nuclear Orientation (Angstroms)
    I     Atom           X                Y                Z
 ----------------------------------------------------------------
    1      C      -0.3313670000    -0.2780980000    -0.2197780000
    2      S       0.1783330000     0.3296020000     1.3607220000
    3      C       1.2310330000     1.5842020000     0.6851220000
    4      C       0.3100330000     0.4865020000    -1.2051780000
    5      C       1.1585330000     1.4979020000    -0.7132780000
    6      H       0.1585330000     0.3060020000    -2.2796780000
    7      H       1.7247330000     2.1728020000    -1.3723780000
    8      C      -0.3313670000    -1.7562980000    -0.2197780000
    9      H      -0.5194670000    -1.7568980000     0.8437220000
   10      H      -1.3029670000    -2.1955980000    -0.3911780000
   11      H       0.4693330000    -2.4672980000    -0.0787780000
   12      H       1.7970330000     2.2589020000     1.3362220000
 ----------------------------------------------------------------

   11    -590.3365934154      3.57e-07  Convergence criterion met
 Total energy in the final basis set =     -590.3365934154
        RIMP2         total energy =      -591.3454366497 a.u.

                    Orbital Energies (a.u.)
 --------------------------------------------------------------

 Alpha MOs
 -- Occupied --
-91.9785 -11.2811 -11.2653 -11.2463 -11.2433 -11.2169  -8.9788  -6.6596
 -6.6589  -6.6585  -1.1624  -1.0374  -0.9763  -0.9127  -0.7629  -0.7226
 -0.6714  -0.5926  -0.5707  -0.5620  -0.5425  -0.4799  -0.4616  -0.4449
 -0.3438  -0.3133

          Ground-State Mulliken Net Atomic Charges

     Atom                 Charge (a.u.)
  ----------------------------------------
      1 C                    -0.052232
      2 S                     0.002396
      3 C                    -0.199974
      4 C                    -0.167839
      5 C                    -0.201283
      6 H                     0.184608
      7 H                     0.186435
      8 C                    -0.341482
      9 H                     0.109533
     10 H                     0.117063
     11 H                     0.155460
     12 H                     0.207315
  ----------------------------------------
  Sum of atomic charges =     0.000000

                    Cartesian Multipole Moments
 -----------------------------------------------------------------
    Charge (ESU x 10^10)
                 0.0000
    Dipole Moment (Debye)
         X       1.2378      Y       0.1627      Z      -0.5193
       Tot       1.3521
    Quadrupole Moments (Debye-Ang)
        XX     -43.8886     XY       4.5923     YY     -40.3129
        XZ       0.4705     YZ      -0.4196     ZZ     -41.9500

 Total job time:  11.93s(wall), 605.37s(cpu)
        *  Thank you very much for using Q-Chem.  Have a nice day.  *
