 Q-Chem 5.4, Q-Chem, Inc., Pleasanton, CA (2021)
 Q-Chem 5.4.0 for Intel X86 EM64T Linux

User input:
--------------------------------------------------------------
$molecule
0 1
C	-0.089054	-0.391505	-0.220018
S	0.048446	0.389695	1.360482
C	0.332846	2.002495	0.684882
C	0.084046	0.591395	-1.205418
C	0.313246	1.891595	-0.713518
H	0.043146	0.359295	-2.279918
H	0.466146	2.759095	-1.372618
C	-0.089054	-1.869705	-0.220018
H	-0.089554	-1.870305	0.859982
H	-1.075654	-2.309005	-0.220018
H	0.723946	-2.580705	-0.220118
H	0.485646	2.869795	1.335982
$end

$rem
JOBTYPE		SP
EXCHANGE	HF
CORRELATION	pRIMP2
BASIS		cc-pvtz
METHOD		rimp2
AUX_BASIS	rimp2-cc-pvtz
SOLVENT_METHOD	PCM
PURECART	11111
SYMMETRY	false
MEM_TOTAL	110000
SCF_CONVERGENCE = 6
THRESH=10
GUI = 2
$end

$solvent
dielectric 4.90
$end
--------------------------------------------------------------

             Standard Nuclear Orientation (Angstroms)
    I     Atom           X                Y                Z
 ----------------------------------------------------------------
    1      C      -0.0890540000    -0.3915050000    -0.2200180000
    2      S       0.0484460000     0.3896950000     1.3604820000
    3      C       0.3328460000     2.0024950000     0.6848820000
    4      C       0.0840460000     0.5913950000    -1.2054180000
    5      C       0.3132460000     1.8915950000    -0.7135180000
    6      H       0.0431460000     0.3592950000    -2.2799180000
    7      H       0.4661460000     2.7590950000    -1.3726180000
    8      C      -0.0890540000    -1.8697050000    -0.2200180000
    9      H      -0.0895540000    -1.8703050000     0.8599820000
   10      H      -1.0756540000    -2.3090050000    -0.2200180000
   11      H       0.7239460000    -2.5807050000    -0.2201180000
   12      H       0.4856460000     2.8697950000     1.3359820000
 ----------------------------------------------------------------

   10    -590.3679140815      6.00e-07  Convergence criterion met
 Total energy in the final basis set =     -590.3679140815
        RIMP2         total energy =      -591.3704639127 a.u.

                    Orbital Energies (a.u.)
 --------------------------------------------------------------

 Alpha MOs
 -- Occupied --
-91.9807 -11.2815 -11.2702 -11.2431 -11.2369 -11.2230  -8.9806  -6.6614
 -6.6609  -6.6603  -1.1582  -1.0396  -0.9734  -0.9180  -0.7591  -0.7204
 -0.6718  -0.5965  -0.5694  -0.5626  -0.5361  -0.4987  -0.4625  -0.4485
 -0.3464  -0.3124

          Ground-State Mulliken Net Atomic Charges

     Atom                 Charge (a.u.)
  ----------------------------------------
      1 C                     0.021120
      2 S                    -0.005143
      3 C                    -0.233923
      4 C                    -0.214187
      5 C                    -0.189807
      6 H                     0.185055
      7 H                     0.186058
      8 C                    -0.343546
      9 H                     0.111011
     10 H                     0.126851
     11 H                     0.149869
     12 H                     0.206642
  ----------------------------------------
  Sum of atomic charges =     0.000000

                    Cartesian Multipole Moments
 -----------------------------------------------------------------
    Charge (ESU x 10^10)
                 0.0000
    Dipole Moment (Debye)
         X       0.2364      Y      -0.1539      Z      -0.4364
       Tot       0.5197
    Quadrupole Moments (Debye-Ang)
        XX     -47.1857     XY       1.3544     YY     -36.3885
        XZ       0.0813     YZ      -0.3947     ZZ     -42.3899

 Total job time:  14.22s(wall), 591.18s(cpu)
        *  Thank you very much for using Q-Chem.  Have a nice day.  *
