 Q-Chem 5.4, Q-Chem, Inc., Pleasanton, CA (2021)
 Q-Chem 5.4.0 for Intel X86 EM64T Linux

User input:
--------------------------------------------------------------
$molecule
0 1
C	-0.084332	-0.391505	-0.214556
S	0.053168	0.389695	1.365944
C	0.337568	2.002495	0.690344
C	0.088768	0.591395	-1.199956
C	0.317968	1.891595	-0.708056
H	0.047868	0.359295	-2.274456
H	0.470868	2.759095	-1.367156
C	-0.084332	-1.869705	-0.214556
H	-1.148032	-1.870305	-0.027556
H	-0.255632	-2.309005	-1.186156
H	0.056968	-2.580705	0.586044
H	0.490368	2.869795	1.341444
$end

$rem
JOBTYPE		SP
EXCHANGE	HF
CORRELATION	pRIMP2
BASIS		cc-pvtz
METHOD		rimp2
AUX_BASIS	rimp2-cc-pvtz
SOLVENT_METHOD	PCM
PURECART	11111
SYMMETRY	false
MEM_TOTAL	110000
SCF_CONVERGENCE = 6
THRESH=10
GUI = 2
$end

$solvent
dielectric 4.90
$end
--------------------------------------------------------------

             Standard Nuclear Orientation (Angstroms)
    I     Atom           X                Y                Z
 ----------------------------------------------------------------
    1      C      -0.0843320000    -0.3915050000    -0.2145560000
    2      S       0.0531680000     0.3896950000     1.3659440000
    3      C       0.3375680000     2.0024950000     0.6903440000
    4      C       0.0887680000     0.5913950000    -1.1999560000
    5      C       0.3179680000     1.8915950000    -0.7080560000
    6      H       0.0478680000     0.3592950000    -2.2744560000
    7      H       0.4708680000     2.7590950000    -1.3671560000
    8      C      -0.0843320000    -1.8697050000    -0.2145560000
    9      H      -1.1480320000    -1.8703050000    -0.0275560000
   10      H      -0.2556320000    -2.3090050000    -1.1861560000
   11      H       0.0569680000    -2.5807050000     0.5860440000
   12      H       0.4903680000     2.8697950000     1.3414440000
 ----------------------------------------------------------------

   10    -590.3703058127      6.20e-07  Convergence criterion met
 Total energy in the final basis set =     -590.3703058127
        RIMP2         total energy =      -591.3711464594 a.u.

                    Orbital Energies (a.u.)
 --------------------------------------------------------------

 Alpha MOs
 -- Occupied --
-91.9771 -11.2906 -11.2634 -11.2428 -11.2330 -11.2273  -8.9771  -6.6581
 -6.6576  -6.6570  -1.1568  -1.0403  -0.9712  -0.9201  -0.7550  -0.7214
 -0.6705  -0.5985  -0.5652  -0.5563  -0.5476  -0.4922  -0.4746  -0.4546
 -0.3462  -0.2982

          Ground-State Mulliken Net Atomic Charges

     Atom                 Charge (a.u.)
  ----------------------------------------
      1 C                     0.015790
      2 S                    -0.009397
      3 C                    -0.243434
      4 C                    -0.229190
      5 C                    -0.190870
      6 H                     0.183386
      7 H                     0.185160
      8 C                    -0.361602
      9 H                     0.138887
     10 H                     0.134638
     11 H                     0.172221
     12 H                     0.204412
  ----------------------------------------
  Sum of atomic charges =     0.000000

                    Cartesian Multipole Moments
 -----------------------------------------------------------------
    Charge (ESU x 10^10)
                -0.0000
    Dipole Moment (Debye)
         X      -0.5428      Y      -0.7959      Z      -0.9620
       Tot       1.3615
    Quadrupole Moments (Debye-Ang)
        XX     -47.9278     XY       2.9535     YY     -36.1250
        XZ       0.3835     YZ       0.3285     ZZ     -41.8220

 Total job time:  31.48s(wall), 590.40s(cpu)
        *  Thank you very much for using Q-Chem.  Have a nice day.  *
