 Q-Chem 5.4, Q-Chem, Inc., Pleasanton, CA (2021)
 Q-Chem 5.4.0 for Intel X86 EM64T Linux

User input:
--------------------------------------------------------------
$molecule
0 1
C	-0.263409	-0.329934	-0.210801
S	0.132991	0.357066	1.369699
C	0.951791	1.775366	0.694099
C	0.235391	0.534466	-1.196201
C	0.895491	1.677866	-0.704301
H	0.117591	0.330366	-2.270701
H	1.335891	2.440766	-1.363401
C	-0.263409	-1.808134	-0.210801
H	0.431191	-1.808734	-1.037801
H	0.492391	-2.247434	0.423399
H	-0.886309	-2.519134	-0.733301
H	1.392091	2.538166	1.345199
$end

$rem
JOBTYPE		SP
EXCHANGE	HF
CORRELATION	pRIMP2
BASIS		cc-pvtz
METHOD		rimp2
AUX_BASIS	rimp2-cc-pvtz
SOLVENT_METHOD	PCM
PURECART	11111
SYMMETRY	false
MEM_TOTAL	110000
SCF_CONVERGENCE = 6
THRESH=10
GUI = 2
$end

$solvent
dielectric 4.90
$end
--------------------------------------------------------------

             Standard Nuclear Orientation (Angstroms)
    I     Atom           X                Y                Z
 ----------------------------------------------------------------
    1      C      -0.2634090000    -0.3299340000    -0.2108010000
    2      S       0.1329910000     0.3570660000     1.3696990000
    3      C       0.9517910000     1.7753660000     0.6940990000
    4      C       0.2353910000     0.5344660000    -1.1962010000
    5      C       0.8954910000     1.6778660000    -0.7043010000
    6      H       0.1175910000     0.3303660000    -2.2707010000
    7      H       1.3358910000     2.4407660000    -1.3634010000
    8      C      -0.2634090000    -1.8081340000    -0.2108010000
    9      H       0.4311910000    -1.8087340000    -1.0378010000
   10      H       0.4923910000    -2.2474340000     0.4233990000
   11      H      -0.8863090000    -2.5191340000    -0.7333010000
   12      H       1.3920910000     2.5381660000     1.3451990000
 ----------------------------------------------------------------

   10    -590.3556774125      6.82e-07  Convergence criterion met
 Total energy in the final basis set =     -590.3556774125
        RIMP2         total energy =      -591.3611159406 a.u.

                    Orbital Energies (a.u.)
 --------------------------------------------------------------

 Alpha MOs
 -- Occupied --
-91.9776 -11.2821 -11.2695 -11.2431 -11.2384 -11.2217  -8.9775  -6.6584
 -6.6578  -6.6573  -1.1599  -1.0379  -0.9736  -0.9147  -0.7560  -0.7243
 -0.6713  -0.5967  -0.5688  -0.5549  -0.5446  -0.4896  -0.4700  -0.4477
 -0.3440  -0.3044

          Ground-State Mulliken Net Atomic Charges

     Atom                 Charge (a.u.)
  ----------------------------------------
      1 C                     0.005446
      2 S                     0.000492
      3 C                    -0.224137
      4 C                    -0.209760
      5 C                    -0.199687
      6 H                     0.179835
      7 H                     0.187024
      8 C                    -0.368394
      9 H                     0.136896
     10 H                     0.138893
     11 H                     0.149820
     12 H                     0.203571
  ----------------------------------------
  Sum of atomic charges =     0.000000

                    Cartesian Multipole Moments
 -----------------------------------------------------------------
    Charge (ESU x 10^10)
                 0.0000
    Dipole Moment (Debye)
         X       1.1779      Y      -0.4265      Z      -1.5953
       Tot       2.0284
    Quadrupole Moments (Debye-Ang)
        XX     -45.9508     XY       3.1040     YY     -38.7269
        XZ       0.6766     YZ       1.8676     ZZ     -41.5997

 Total job time:  10.37s(wall), 545.78s(cpu)
        *  Thank you very much for using Q-Chem.  Have a nice day.  *
