 Q-Chem 5.4, Q-Chem, Inc., Pleasanton, CA (2021)
 Q-Chem 5.4.0 for Intel X86 EM64T Linux

User input:
--------------------------------------------------------------
$molecule
0 1
C	-0.048650	-0.397395	-0.210119
S	0.020250	0.392805	1.370381
C	0.162950	2.024305	0.694781
C	0.038150	0.596805	-1.195519
C	0.153150	1.912005	-0.703619
H	0.017650	0.362105	-2.270019
H	0.229850	2.789605	-1.362719
C	-0.048650	-1.875595	-0.210119
H	0.491850	-1.876195	-1.145119
H	0.805750	-2.314895	0.283181
H	-0.752750	-2.586595	-0.616519
H	0.239650	2.901605	1.345881
$end

$rem
JOBTYPE		SP
EXCHANGE	HF
CORRELATION	pRIMP2
BASIS		cc-pvtz
METHOD		rimp2
AUX_BASIS	rimp2-cc-pvtz
SOLVENT_METHOD	PCM
PURECART	11111
SYMMETRY	false
MEM_TOTAL	110000
SCF_CONVERGENCE = 6
THRESH=10
GUI = 2
$end

$solvent
dielectric 4.90
$end
--------------------------------------------------------------

             Standard Nuclear Orientation (Angstroms)
    I     Atom           X                Y                Z
 ----------------------------------------------------------------
    1      C      -0.0486500000    -0.3973950000    -0.2101190000
    2      S       0.0202500000     0.3928050000     1.3703810000
    3      C       0.1629500000     2.0243050000     0.6947810000
    4      C       0.0381500000     0.5968050000    -1.1955190000
    5      C       0.1531500000     1.9120050000    -0.7036190000
    6      H       0.0176500000     0.3621050000    -2.2700190000
    7      H       0.2298500000     2.7896050000    -1.3627190000
    8      C      -0.0486500000    -1.8755950000    -0.2101190000
    9      H       0.4918500000    -1.8761950000    -1.1451190000
   10      H       0.8057500000    -2.3148950000     0.2831810000
   11      H      -0.7527500000    -2.5865950000    -0.6165190000
   12      H       0.2396500000     2.9016050000     1.3458810000
 ----------------------------------------------------------------

   10    -590.3733671636      5.80e-07  Convergence criterion met
 Total energy in the final basis set =     -590.3733671636
        RIMP2         total energy =      -591.3751623237 a.u.

                    Orbital Energies (a.u.)
 --------------------------------------------------------------

 Alpha MOs
 -- Occupied --
-91.9764 -11.2868 -11.2669 -11.2429 -11.2382 -11.2243  -8.9764  -6.6572
 -6.6567  -6.6562  -1.1570  -1.0385  -0.9725  -0.9191  -0.7544  -0.7238
 -0.6723  -0.5973  -0.5691  -0.5581  -0.5407  -0.4996  -0.4683  -0.4433
 -0.3451  -0.3084

          Ground-State Mulliken Net Atomic Charges

     Atom                 Charge (a.u.)
  ----------------------------------------
      1 C                     0.035125
      2 S                    -0.007204
      3 C                    -0.233168
      4 C                    -0.226502
      5 C                    -0.196288
      6 H                     0.183024
      7 H                     0.186074
      8 C                    -0.361974
      9 H                     0.125583
     10 H                     0.138807
     11 H                     0.152652
     12 H                     0.203872
  ----------------------------------------
  Sum of atomic charges =     0.000000

                    Cartesian Multipole Moments
 -----------------------------------------------------------------
    Charge (ESU x 10^10)
                -0.0000
    Dipole Moment (Debye)
         X       0.4738      Y      -0.4531      Z      -1.6854
       Tot       1.8084
    Quadrupole Moments (Debye-Ang)
        XX     -47.6476     XY       0.1741     YY     -36.1255
        XZ       0.3427     YZ       2.0828     ZZ     -41.9345

 Total job time:  10.00s(wall), 545.29s(cpu)
        *  Thank you very much for using Q-Chem.  Have a nice day.  *
