 Q-Chem 5.4, Q-Chem, Inc., Pleasanton, CA (2021)
 Q-Chem 5.4.0 for Intel X86 EM64T Linux

User input:
--------------------------------------------------------------
$molecule
0 1
C	0.002958	-0.399361	-0.209652
S	0.002758	0.393839	1.370848
C	0.002758	2.031539	0.695248
C	0.002758	0.598639	-1.195052
C	0.002658	1.918839	-0.703152
H	0.002858	0.362939	-2.269552
H	0.002658	2.799839	-1.362252
C	0.002958	-1.877561	-0.209652
H	-0.690842	-1.878161	-1.037352
H	0.758758	-2.316861	-0.843852
H	-0.619742	-2.588561	0.313048
H	0.002658	2.912239	1.346348
$end

$rem
JOBTYPE		SP
EXCHANGE	HF
CORRELATION	pRIMP2
BASIS		cc-pvtz
METHOD		rimp2
AUX_BASIS	rimp2-cc-pvtz
SOLVENT_METHOD	PCM
PURECART	11111
SYMMETRY	false
MEM_TOTAL	110000
SCF_CONVERGENCE = 6
THRESH=10
GUI = 2
$end

$solvent
dielectric 4.90
$end
--------------------------------------------------------------

             Standard Nuclear Orientation (Angstroms)
    I     Atom           X                Y                Z
 ----------------------------------------------------------------
    1      C       0.0029580000    -0.3993610000    -0.2096520000
    2      S       0.0027580000     0.3938390000     1.3708480000
    3      C       0.0027580000     2.0315390000     0.6952480000
    4      C       0.0027580000     0.5986390000    -1.1950520000
    5      C       0.0026580000     1.9188390000    -0.7031520000
    6      H       0.0028580000     0.3629390000    -2.2695520000
    7      H       0.0026580000     2.7998390000    -1.3622520000
    8      C       0.0029580000    -1.8775610000    -0.2096520000
    9      H      -0.6908420000    -1.8781610000    -1.0373520000
   10      H       0.7587580000    -2.3168610000    -0.8438520000
   11      H      -0.6197420000    -2.5885610000     0.3130480000
   12      H       0.0026580000     2.9122390000     1.3463480000
 ----------------------------------------------------------------

   10    -590.3724033494      5.97e-07  Convergence criterion met
 Total energy in the final basis set =     -590.3724033494
        RIMP2         total energy =      -591.3742034914 a.u.

                    Orbital Energies (a.u.)
 --------------------------------------------------------------

 Alpha MOs
 -- Occupied --
-91.9762 -11.2891 -11.2644 -11.2431 -11.2368 -11.2254  -8.9761  -6.6570
 -6.6564  -6.6559  -1.1566  -1.0390  -0.9719  -0.9195  -0.7536  -0.7233
 -0.6717  -0.5984  -0.5661  -0.5610  -0.5440  -0.4976  -0.4682  -0.4449
 -0.3452  -0.3050

          Ground-State Mulliken Net Atomic Charges

     Atom                 Charge (a.u.)
  ----------------------------------------
      1 C                     0.038372
      2 S                    -0.004968
      3 C                    -0.242095
      4 C                    -0.235079
      5 C                    -0.190770
      6 H                     0.181860
      7 H                     0.185931
      8 C                    -0.368041
      9 H                     0.129878
     10 H                     0.131590
     11 H                     0.170410
     12 H                     0.202912
  ----------------------------------------
  Sum of atomic charges =     0.000000

                    Cartesian Multipole Moments
 -----------------------------------------------------------------
    Charge (ESU x 10^10)
                -0.0000
    Dipole Moment (Debye)
         X      -0.4534      Y      -0.6305      Z      -1.6448
       Tot       1.8189
    Quadrupole Moments (Debye-Ang)
        XX     -47.8065     XY       1.1486     YY     -36.0051
        XZ      -0.2920     YZ       1.6878     ZZ     -41.9200

 Total job time:  10.03s(wall), 550.21s(cpu)
        *  Thank you very much for using Q-Chem.  Have a nice day.  *
