 Q-Chem 5.4, Q-Chem, Inc., Pleasanton, CA (2021)
 Q-Chem 5.4.0 for Intel X86 EM64T Linux

User input:
--------------------------------------------------------------
$molecule
0 1
C	-0.048776	-0.397395	-0.218722
S	0.020124	0.392805	1.361778
C	0.162824	2.024305	0.686178
C	0.038024	0.596805	-1.204122
C	0.153024	1.912005	-0.712222
H	0.017524	0.362105	-2.278622
H	0.229724	2.789605	-1.371322
C	-0.048776	-1.875595	-0.218722
H	0.778224	-1.876195	0.475878
H	-0.682976	-2.314895	0.537078
H	0.473724	-2.586595	-0.841622
H	0.239524	2.901605	1.337278
$end

$rem
JOBTYPE		SP
EXCHANGE	HF
CORRELATION	pRIMP2
BASIS		cc-pvtz
METHOD		rimp2
AUX_BASIS	rimp2-cc-pvtz
SOLVENT_METHOD	PCM
PURECART	11111
SYMMETRY	false
MEM_TOTAL	110000
SCF_CONVERGENCE = 6
THRESH=10
GUI = 2
$end

$solvent
dielectric 4.90
$end
--------------------------------------------------------------

             Standard Nuclear Orientation (Angstroms)
    I     Atom           X                Y                Z
 ----------------------------------------------------------------
    1      C      -0.0487760000    -0.3973950000    -0.2187220000
    2      S       0.0201240000     0.3928050000     1.3617780000
    3      C       0.1628240000     2.0243050000     0.6861780000
    4      C       0.0380240000     0.5968050000    -1.2041220000
    5      C       0.1530240000     1.9120050000    -0.7122220000
    6      H       0.0175240000     0.3621050000    -2.2786220000
    7      H       0.2297240000     2.7896050000    -1.3713220000
    8      C      -0.0487760000    -1.8755950000    -0.2187220000
    9      H       0.7782240000    -1.8761950000     0.4758780000
   10      H      -0.6829760000    -2.3148950000     0.5370780000
   11      H       0.4737240000    -2.5865950000    -0.8416220000
   12      H       0.2395240000     2.9016050000     1.3372780000
 ----------------------------------------------------------------

   10    -590.3728108310      6.10e-07  Convergence criterion met
 Total energy in the final basis set =     -590.3728108310
        RIMP2         total energy =      -591.3729242299 a.u.

                    Orbital Energies (a.u.)
 --------------------------------------------------------------

 Alpha MOs
 -- Occupied --
-91.9788 -11.2884 -11.2661 -11.2427 -11.2330 -11.2262  -8.9789  -6.6598
 -6.6593  -6.6587  -1.1578  -1.0408  -0.9719  -0.9190  -0.7565  -0.7209
 -0.6717  -0.5971  -0.5665  -0.5627  -0.5348  -0.5003  -0.4708  -0.4554
 -0.3469  -0.3028

          Ground-State Mulliken Net Atomic Charges

     Atom                 Charge (a.u.)
  ----------------------------------------
      1 C                     0.025090
      2 S                    -0.004525
      3 C                    -0.240305
      4 C                    -0.238816
      5 C                    -0.185577
      6 H                     0.184786
      7 H                     0.185616
      8 C                    -0.356618
      9 H                     0.127153
     10 H                     0.135135
     11 H                     0.162847
     12 H                     0.205213
  ----------------------------------------
  Sum of atomic charges =     0.000000

                    Cartesian Multipole Moments
 -----------------------------------------------------------------
    Charge (ESU x 10^10)
                -0.0000
    Dipole Moment (Debye)
         X       0.6342      Y      -0.5696      Z      -0.6192
       Tot       1.0536
    Quadrupole Moments (Debye-Ang)
        XX     -47.9296     XY      -0.4484     YY     -35.9608
        XZ      -0.4519     YZ       0.1553     ZZ     -42.1280

 Total job time:  10.91s(wall), 563.68s(cpu)
        *  Thank you very much for using Q-Chem.  Have a nice day.  *
