 Q-Chem 5.4, Q-Chem, Inc., Pleasanton, CA (2021)
 Q-Chem 5.4.0 for Intel X86 EM64T Linux

User input:
--------------------------------------------------------------
$molecule
0 1
C	-0.087069	-0.391505	-0.209652
S	0.050431	0.389695	1.370848
C	0.334831	2.002495	0.695248
C	0.086031	0.591395	-1.195052
C	0.315231	1.891595	-0.703152
H	0.045131	0.359295	-2.269552
H	0.468131	2.759095	-1.362252
C	-0.087069	-1.869705	-0.209652
H	-0.780869	-1.870305	-1.037352
H	0.668731	-2.309005	-0.843852
H	-0.709769	-2.580705	0.313048
H	0.487631	2.869795	1.346348
$end

$rem
JOBTYPE		SP
EXCHANGE	HF
CORRELATION	pRIMP2
BASIS		cc-pvtz
METHOD		rimp2
AUX_BASIS	rimp2-cc-pvtz
SOLVENT_METHOD	PCM
PURECART	11111
SYMMETRY	false
MEM_TOTAL	110000
SCF_CONVERGENCE = 6
THRESH=10
GUI = 2
$end

$solvent
dielectric 4.90
$end
--------------------------------------------------------------

             Standard Nuclear Orientation (Angstroms)
    I     Atom           X                Y                Z
 ----------------------------------------------------------------
    1      C      -0.0870690000    -0.3915050000    -0.2096520000
    2      S       0.0504310000     0.3896950000     1.3708480000
    3      C       0.3348310000     2.0024950000     0.6952480000
    4      C       0.0860310000     0.5913950000    -1.1950520000
    5      C       0.3152310000     1.8915950000    -0.7031520000
    6      H       0.0451310000     0.3592950000    -2.2695520000
    7      H       0.4681310000     2.7590950000    -1.3622520000
    8      C      -0.0870690000    -1.8697050000    -0.2096520000
    9      H      -0.7808690000    -1.8703050000    -1.0373520000
   10      H       0.6687310000    -2.3090050000    -0.8438520000
   11      H      -0.7097690000    -2.5807050000     0.3130480000
   12      H       0.4876310000     2.8697950000     1.3463480000
 ----------------------------------------------------------------

   10    -590.3705516479      6.05e-07  Convergence criterion met
 Total energy in the final basis set =     -590.3705516479
        RIMP2         total energy =      -591.3728777249 a.u.

                    Orbital Energies (a.u.)
 --------------------------------------------------------------

 Alpha MOs
 -- Occupied --
-91.9756 -11.2880 -11.2653 -11.2431 -11.2377 -11.2249  -8.9756  -6.6564
 -6.6559  -6.6554  -1.1567  -1.0388  -0.9719  -0.9195  -0.7538  -0.7233
 -0.6715  -0.5981  -0.5660  -0.5610  -0.5431  -0.4997  -0.4670  -0.4435
 -0.3452  -0.3049

          Ground-State Mulliken Net Atomic Charges

     Atom                 Charge (a.u.)
  ----------------------------------------
      1 C                     0.034930
      2 S                    -0.003990
      3 C                    -0.239743
      4 C                    -0.239275
      5 C                    -0.187558
      6 H                     0.181723
      7 H                     0.185963
      8 C                    -0.367745
      9 H                     0.127970
     10 H                     0.132636
     11 H                     0.172345
     12 H                     0.202743
  ----------------------------------------
  Sum of atomic charges =     0.000000

                    Cartesian Multipole Moments
 -----------------------------------------------------------------
    Charge (ESU x 10^10)
                -0.0000
    Dipole Moment (Debye)
         X      -0.2478      Y      -0.5956      Z      -1.6505
       Tot       1.7720
    Quadrupole Moments (Debye-Ang)
        XX     -47.4605     XY       2.6791     YY     -36.2829
        XZ      -0.1759     YZ       1.6671     ZZ     -41.9222

 Total job time:  14.17s(wall), 545.54s(cpu)
        *  Thank you very much for using Q-Chem.  Have a nice day.  *
