 Q-Chem 5.4, Q-Chem, Inc., Pleasanton, CA (2021)
 Q-Chem 5.4.0 for Intel X86 EM64T Linux

User input:
--------------------------------------------------------------
$molecule
0 1
C	0.000161	-0.399361	-0.208858
S	-0.000039	0.393839	1.371642
C	-0.000039	2.031539	0.696042
C	-0.000039	0.598639	-1.194258
C	-0.000139	1.918839	-0.702358
H	0.000061	0.362939	-2.268758
H	-0.000139	2.799839	-1.361458
C	0.000161	-1.877561	-0.208858
H	-0.186839	-1.878161	-1.272558
H	0.971761	-2.316861	-0.380158
H	-0.800439	-2.588561	-0.067558
H	-0.000139	2.912239	1.347142
$end

$rem
JOBTYPE		SP
EXCHANGE	HF
CORRELATION	pRIMP2
BASIS		cc-pvtz
METHOD		rimp2
AUX_BASIS	rimp2-cc-pvtz
SOLVENT_METHOD	PCM
PURECART	11111
SYMMETRY	false
MEM_TOTAL	110000
SCF_CONVERGENCE = 6
THRESH=10
GUI = 2
$end

$solvent
dielectric 4.90
$end
--------------------------------------------------------------

             Standard Nuclear Orientation (Angstroms)
    I     Atom           X                Y                Z
 ----------------------------------------------------------------
    1      C       0.0001610000    -0.3993610000    -0.2088580000
    2      S      -0.0000390000     0.3938390000     1.3716420000
    3      C      -0.0000390000     2.0315390000     0.6960420000
    4      C      -0.0000390000     0.5986390000    -1.1942580000
    5      C      -0.0001390000     1.9188390000    -0.7023580000
    6      H       0.0000610000     0.3629390000    -2.2687580000
    7      H      -0.0001390000     2.7998390000    -1.3614580000
    8      C       0.0001610000    -1.8775610000    -0.2088580000
    9      H      -0.1868390000    -1.8781610000    -1.2725580000
   10      H       0.9717610000    -2.3168610000    -0.3801580000
   11      H      -0.8004390000    -2.5885610000    -0.0675580000
   12      H      -0.0001390000     2.9122390000     1.3471420000
 ----------------------------------------------------------------

   10    -590.3735365163      5.75e-07  Convergence criterion met
 Total energy in the final basis set =     -590.3735365163
        RIMP2         total energy =      -591.3756501767 a.u.

                    Orbital Energies (a.u.)
 --------------------------------------------------------------

 Alpha MOs
 -- Occupied --
-91.9748 -11.2857 -11.2684 -11.2430 -11.2410 -11.2237  -8.9749  -6.6558
 -6.6552  -6.6548  -1.1569  -1.0381  -0.9728  -0.9194  -0.7543  -0.7243
 -0.6726  -0.5975  -0.5705  -0.5604  -0.5396  -0.4997  -0.4675  -0.4370
 -0.3450  -0.3123

          Ground-State Mulliken Net Atomic Charges

     Atom                 Charge (a.u.)
  ----------------------------------------
      1 C                     0.035002
      2 S                    -0.008107
      3 C                    -0.229560
      4 C                    -0.221569
      5 C                    -0.201517
      6 H                     0.183278
      7 H                     0.186720
      8 C                    -0.355224
      9 H                     0.118808
     10 H                     0.128906
     11 H                     0.159088
     12 H                     0.204176
  ----------------------------------------
  Sum of atomic charges =     0.000000

                    Cartesian Multipole Moments
 -----------------------------------------------------------------
    Charge (ESU x 10^10)
                -0.0000
    Dipole Moment (Debye)
         X      -0.1019      Y      -0.3523      Z      -1.7827
       Tot       1.8201
    Quadrupole Moments (Debye-Ang)
        XX     -47.4765     XY       0.4626     YY     -35.9822
        XZ      -0.1152     YZ       2.0688     ZZ     -42.1195

 Total job time:  10.82s(wall), 543.83s(cpu)
        *  Thank you very much for using Q-Chem.  Have a nice day.  *
