 Q-Chem 5.4, Q-Chem, Inc., Pleasanton, CA (2021)
 Q-Chem 5.4.0 for Intel X86 EM64T Linux

User input:
--------------------------------------------------------------
$molecule
0 1
C	-0.224653	-0.350804	-0.214392
S	0.110347	0.368096	1.366108
C	0.802447	1.852396	0.690508
C	0.196947	0.553796	-1.199792
C	0.754847	1.750296	-0.707892
H	0.097347	0.340196	-2.274292
H	1.127047	2.548796	-1.366992
C	-0.224653	-1.829004	-0.214392
H	0.839047	-1.829604	-0.401392
H	-0.053353	-2.268304	0.757208
H	-0.365953	-2.540004	-1.014992
H	1.174547	2.650596	1.341608
$end

$rem
JOBTYPE		SP
EXCHANGE	HF
CORRELATION	pRIMP2
BASIS		cc-pvtz
METHOD		rimp2
AUX_BASIS	rimp2-cc-pvtz
SOLVENT_METHOD	PCM
PURECART	11111
SYMMETRY	false
MEM_TOTAL	110000
SCF_CONVERGENCE = 6
THRESH=10
GUI = 2
$end

$solvent
dielectric 4.90
$end
--------------------------------------------------------------

             Standard Nuclear Orientation (Angstroms)
    I     Atom           X                Y                Z
 ----------------------------------------------------------------
    1      C      -0.2246530000    -0.3508040000    -0.2143920000
    2      S       0.1103470000     0.3680960000     1.3661080000
    3      C       0.8024470000     1.8523960000     0.6905080000
    4      C       0.1969470000     0.5537960000    -1.1997920000
    5      C       0.7548470000     1.7502960000    -0.7078920000
    6      H       0.0973470000     0.3401960000    -2.2742920000
    7      H       1.1270470000     2.5487960000    -1.3669920000
    8      C      -0.2246530000    -1.8290040000    -0.2143920000
    9      H       0.8390470000    -1.8296040000    -0.4013920000
   10      H      -0.0533530000    -2.2683040000     0.7572080000
   11      H      -0.3659530000    -2.5400040000    -1.0149920000
   12      H       1.1745470000     2.6505960000     1.3416080000
 ----------------------------------------------------------------

   10    -590.3641089324      6.33e-07  Convergence criterion met
 Total energy in the final basis set =     -590.3641089324
        RIMP2         total energy =      -591.3664887852 a.u.

                    Orbital Energies (a.u.)
 --------------------------------------------------------------

 Alpha MOs
 -- Occupied --
-91.9795 -11.2891 -11.2645 -11.2434 -11.2312 -11.2275  -8.9793  -6.6602
 -6.6597  -6.6591  -1.1594  -1.0403  -0.9722  -0.9165  -0.7557  -0.7227
 -0.6713  -0.5968  -0.5664  -0.5559  -0.5427  -0.4931  -0.4765  -0.4569
 -0.3467  -0.2970

          Ground-State Mulliken Net Atomic Charges

     Atom                 Charge (a.u.)
  ----------------------------------------
      1 C                     0.016743
      2 S                     0.002711
      3 C                    -0.245401
      4 C                    -0.235608
      5 C                    -0.186797
      6 H                     0.178328
      7 H                     0.186619
      8 C                    -0.363060
      9 H                     0.148907
     10 H                     0.133043
     11 H                     0.160290
     12 H                     0.204226
  ----------------------------------------
  Sum of atomic charges =     0.000000

                    Cartesian Multipole Moments
 -----------------------------------------------------------------
    Charge (ESU x 10^10)
                -0.0000
    Dipole Moment (Debye)
         X       1.1937      Y      -0.7870      Z      -1.1699
       Tot       1.8475
    Quadrupole Moments (Debye-Ang)
        XX     -47.0739     XY       2.1229     YY     -37.7289
        XZ       0.1785     YZ       1.2977     ZZ     -41.6093

 Total job time:  10.15s(wall), 554.25s(cpu)
        *  Thank you very much for using Q-Chem.  Have a nice day.  *
