 Q-Chem 5.4, Q-Chem, Inc., Pleasanton, CA (2021)
 Q-Chem 5.4.0 for Intel X86 EM64T Linux

User input:
--------------------------------------------------------------
$molecule
0 1
C	-0.050007	-0.397395	-0.217210
S	0.018893	0.392805	1.363290
C	0.161593	2.024305	0.687690
C	0.036793	0.596805	-1.202610
C	0.151793	1.912005	-0.710710
H	0.016293	0.362105	-2.277110
H	0.228493	2.789605	-1.369810
C	-0.050007	-1.875595	-0.217210
H	0.964693	-1.876195	0.152690
H	-0.387507	-2.314895	0.709890
H	0.227893	-2.586595	-0.981210
H	0.238293	2.901605	1.338790
$end

$rem
JOBTYPE		SP
EXCHANGE	HF
CORRELATION	pRIMP2
BASIS		cc-pvtz
METHOD		rimp2
AUX_BASIS	rimp2-cc-pvtz
SOLVENT_METHOD	PCM
PURECART	11111
SYMMETRY	false
MEM_TOTAL	110000
SCF_CONVERGENCE = 6
THRESH=10
GUI = 2
$end

$solvent
dielectric 4.90
$end
--------------------------------------------------------------

             Standard Nuclear Orientation (Angstroms)
    I     Atom           X                Y                Z
 ----------------------------------------------------------------
    1      C      -0.0500070000    -0.3973950000    -0.2172100000
    2      S       0.0188930000     0.3928050000     1.3632900000
    3      C       0.1615930000     2.0243050000     0.6876900000
    4      C       0.0367930000     0.5968050000    -1.2026100000
    5      C       0.1517930000     1.9120050000    -0.7107100000
    6      H       0.0162930000     0.3621050000    -2.2771100000
    7      H       0.2284930000     2.7896050000    -1.3698100000
    8      C      -0.0500070000    -1.8755950000    -0.2172100000
    9      H       0.9646930000    -1.8761950000     0.1526900000
   10      H      -0.3875070000    -2.3148950000     0.7098900000
   11      H       0.2278930000    -2.5865950000    -0.9812100000
   12      H       0.2382930000     2.9016050000     1.3387900000
 ----------------------------------------------------------------

   10    -590.3743104064      6.42e-07  Convergence criterion met
 Total energy in the final basis set =     -590.3743104064
        RIMP2         total energy =      -591.3737365825 a.u.

                    Orbital Energies (a.u.)
 --------------------------------------------------------------

 Alpha MOs
 -- Occupied --
-91.9789 -11.2913 -11.2635 -11.2427 -11.2307 -11.2284  -8.9788  -6.6598
 -6.6593  -6.6587  -1.1575  -1.0413  -0.9713  -0.9194  -0.7554  -0.7213
 -0.6715  -0.5973  -0.5658  -0.5602  -0.5377  -0.4984  -0.4767  -0.4564
 -0.3470  -0.2990

          Ground-State Mulliken Net Atomic Charges

     Atom                 Charge (a.u.)
  ----------------------------------------
      1 C                     0.023926
      2 S                    -0.004784
      3 C                    -0.247590
      4 C                    -0.243487
      5 C                    -0.183989
      6 H                     0.183143
      7 H                     0.185234
      8 C                    -0.360109
      9 H                     0.138622
     10 H                     0.136759
     11 H                     0.167416
     12 H                     0.204860
  ----------------------------------------
  Sum of atomic charges =     0.000000

                    Cartesian Multipole Moments
 -----------------------------------------------------------------
    Charge (ESU x 10^10)
                -0.0000
    Dipole Moment (Debye)
         X       0.7776      Y      -0.7904      Z      -0.8100
       Tot       1.3731
    Quadrupole Moments (Debye-Ang)
        XX     -48.2021     XY      -0.6549     YY     -35.8783
        XZ      -0.3679     YZ       0.5982     ZZ     -41.9266

 Total job time:  10.31s(wall), 550.28s(cpu)
        *  Thank you very much for using Q-Chem.  Have a nice day.  *
