 Q-Chem 5.4, Q-Chem, Inc., Pleasanton, CA (2021)
 Q-Chem 5.4.0 for Intel X86 EM64T Linux

User input:
--------------------------------------------------------------
$molecule
0 1
C	-0.223286	-0.350804	-0.210801
S	0.111714	0.368096	1.369699
C	0.803814	1.852396	0.694099
C	0.198314	0.553796	-1.196201
C	0.756214	1.750296	-0.704301
H	0.098714	0.340196	-2.270701
H	1.128414	2.548796	-1.363401
C	-0.223286	-1.829004	-0.210801
H	0.471314	-1.829604	-1.037801
H	0.532514	-2.268304	0.423399
H	-0.846186	-2.540004	-0.733301
H	1.175914	2.650596	1.345199
$end

$rem
JOBTYPE		SP
EXCHANGE	HF
CORRELATION	pRIMP2
BASIS		cc-pvtz
METHOD		rimp2
AUX_BASIS	rimp2-cc-pvtz
SOLVENT_METHOD	PCM
PURECART	11111
SYMMETRY	false
MEM_TOTAL	110000
SCF_CONVERGENCE = 6
THRESH=10
GUI = 2
$end

$solvent
dielectric 4.90
$end
--------------------------------------------------------------

             Standard Nuclear Orientation (Angstroms)
    I     Atom           X                Y                Z
 ----------------------------------------------------------------
    1      C      -0.2232860000    -0.3508040000    -0.2108010000
    2      S       0.1117140000     0.3680960000     1.3696990000
    3      C       0.8038140000     1.8523960000     0.6940990000
    4      C       0.1983140000     0.5537960000    -1.1962010000
    5      C       0.7562140000     1.7502960000    -0.7043010000
    6      H       0.0987140000     0.3401960000    -2.2707010000
    7      H       1.1284140000     2.5487960000    -1.3634010000
    8      C      -0.2232860000    -1.8290040000    -0.2108010000
    9      H       0.4713140000    -1.8296040000    -1.0378010000
   10      H       0.5325140000    -2.2683040000     0.4233990000
   11      H      -0.8461860000    -2.5400040000    -0.7333010000
   12      H       1.1759140000     2.6505960000     1.3451990000
 ----------------------------------------------------------------

   10    -590.3614994062      6.33e-07  Convergence criterion met
 Total energy in the final basis set =     -590.3614994062
        RIMP2         total energy =      -591.3656303525 a.u.

                    Orbital Energies (a.u.)
 --------------------------------------------------------------

 Alpha MOs
 -- Occupied --
-91.9776 -11.2843 -11.2679 -11.2430 -11.2374 -11.2229  -8.9775  -6.6584
 -6.6578  -6.6573  -1.1589  -1.0382  -0.9732  -0.9160  -0.7554  -0.7240
 -0.6715  -0.5970  -0.5685  -0.5555  -0.5440  -0.4922  -0.4699  -0.4477
 -0.3445  -0.3048

          Ground-State Mulliken Net Atomic Charges

     Atom                 Charge (a.u.)
  ----------------------------------------
      1 C                     0.015623
      2 S                    -0.001291
      3 C                    -0.228872
      4 C                    -0.218403
      5 C                    -0.196745
      6 H                     0.180272
      7 H                     0.186792
      8 C                    -0.368691
      9 H                     0.136254
     10 H                     0.138897
     11 H                     0.152634
     12 H                     0.203531
  ----------------------------------------
  Sum of atomic charges =     0.000000

                    Cartesian Multipole Moments
 -----------------------------------------------------------------
    Charge (ESU x 10^10)
                -0.0000
    Dipole Moment (Debye)
         X       1.0306      Y      -0.4749      Z      -1.5991
       Tot       1.9608
    Quadrupole Moments (Debye-Ang)
        XX     -46.5156     XY       2.6277     YY     -37.9704
        XZ       0.6081     YZ       1.9102     ZZ     -41.6754

 Total job time:  12.92s(wall), 550.37s(cpu)
        *  Thank you very much for using Q-Chem.  Have a nice day.  *
