 Q-Chem 5.4, Q-Chem, Inc., Pleasanton, CA (2021)
 Q-Chem 5.4.0 for Intel X86 EM64T Linux

User input:
--------------------------------------------------------------
$molecule
0 1
C	-0.150011	-0.382642	-0.215368
S	0.055089	0.383558	1.365132
C	0.478889	1.965458	0.689532
C	0.108089	0.581358	-1.200768
C	0.449689	1.856658	-0.708868
H	0.047189	0.353758	-2.275268
H	0.677689	2.707558	-1.367968
C	-0.021211	-1.855242	-0.215368
H	1.054789	-1.761742	-0.214868
H	0.017089	-2.292842	0.771232
H	0.040689	-2.563442	-1.028368
H	0.706789	2.816158	1.340632
$end

$rem
JOBTYPE		SP
EXCHANGE	HF
CORRELATION	pRIMP2
BASIS		cc-pvtz
METHOD		rimp2
AUX_BASIS	rimp2-cc-pvtz
SOLVENT_METHOD	PCM
PURECART	11111
SYMMETRY	false
MEM_TOTAL	110000
SCF_CONVERGENCE = 6
THRESH=10
GUI = 2
$end

$solvent
dielectric 4.90
$end
--------------------------------------------------------------

             Standard Nuclear Orientation (Angstroms)
    I     Atom           X                Y                Z
 ----------------------------------------------------------------
    1      C      -0.1500110000    -0.3826420000    -0.2153680000
    2      S       0.0550890000     0.3835580000     1.3651320000
    3      C       0.4788890000     1.9654580000     0.6895320000
    4      C       0.1080890000     0.5813580000    -1.2007680000
    5      C       0.4496890000     1.8566580000    -0.7088680000
    6      H       0.0471890000     0.3537580000    -2.2752680000
    7      H       0.6776890000     2.7075580000    -1.3679680000
    8      C      -0.0212110000    -1.8552420000    -0.2153680000
    9      H       1.0547890000    -1.7617420000    -0.2148680000
   10      H       0.0170890000    -2.2928420000     0.7712320000
   11      H       0.0406890000    -2.5634420000    -1.0283680000
   12      H       0.7067890000     2.8161580000     1.3406320000
 ----------------------------------------------------------------

   10    -590.3688479428      6.50e-07  Convergence criterion met
 Total energy in the final basis set =     -590.3688479428
        RIMP2         total energy =      -591.3697969864 a.u.

                    Orbital Energies (a.u.)
 --------------------------------------------------------------

 Alpha MOs
 -- Occupied --
-91.9791 -11.2907 -11.2636 -11.2432 -11.2305 -11.2287  -8.9790  -6.6599
 -6.6594  -6.6588  -1.1587  -1.0409  -0.9717  -0.9176  -0.7555  -0.7222
 -0.6714  -0.5970  -0.5664  -0.5572  -0.5404  -0.4960  -0.4775  -0.4569
 -0.3470  -0.2971

          Ground-State Mulliken Net Atomic Charges

     Atom                 Charge (a.u.)
  ----------------------------------------
      1 C                     0.024734
      2 S                    -0.000157
      3 C                    -0.249752
      4 C                    -0.248092
      5 C                    -0.181314
      6 H                     0.179128
      7 H                     0.186343
      8 C                    -0.360969
      9 H                     0.148240
     10 H                     0.133154
     11 H                     0.164408
     12 H                     0.204278
  ----------------------------------------
  Sum of atomic charges =     0.000000

                    Cartesian Multipole Moments
 -----------------------------------------------------------------
    Charge (ESU x 10^10)
                -0.0000
    Dipole Moment (Debye)
         X       1.1690      Y      -0.7404      Z      -1.0545
       Tot       1.7397
    Quadrupole Moments (Debye-Ang)
        XX     -47.7374     XY       0.5553     YY     -36.8459
        XZ      -0.0987     YZ       1.0796     ZZ     -41.7210

 Total job time:  36.91s(wall), 600.97s(cpu)
        *  Thank you very much for using Q-Chem.  Have a nice day.  *
