 Q-Chem 5.4, Q-Chem, Inc., Pleasanton, CA (2021)
 Q-Chem 5.4.0 for Intel X86 EM64T Linux

User input:
--------------------------------------------------------------
$molecule
0 1
C	-0.043260	-0.397395	-0.219778
S	0.025640	0.392805	1.360722
C	0.168340	2.024305	0.685122
C	0.043540	0.596805	-1.205178
C	0.158540	1.912005	-0.713278
H	0.023040	0.362105	-2.279678
H	0.235240	2.789605	-1.372378
C	-0.043260	-1.875595	-0.219778
H	-0.231360	-1.876195	0.843722
H	-1.014860	-2.314895	-0.391178
H	0.757440	-2.586595	-0.078778
H	0.245040	2.901605	1.336222
$end

$rem
JOBTYPE		SP
EXCHANGE	HF
CORRELATION	pRIMP2
BASIS		cc-pvtz
METHOD		rimp2
AUX_BASIS	rimp2-cc-pvtz
SOLVENT_METHOD	PCM
PURECART	11111
SYMMETRY	false
MEM_TOTAL	110000
SCF_CONVERGENCE = 6
THRESH=10
GUI = 2
$end

$solvent
dielectric 4.90
$end
--------------------------------------------------------------

             Standard Nuclear Orientation (Angstroms)
    I     Atom           X                Y                Z
 ----------------------------------------------------------------
    1      C      -0.0432600000    -0.3973950000    -0.2197780000
    2      S       0.0256400000     0.3928050000     1.3607220000
    3      C       0.1683400000     2.0243050000     0.6851220000
    4      C       0.0435400000     0.5968050000    -1.2051780000
    5      C       0.1585400000     1.9120050000    -0.7132780000
    6      H       0.0230400000     0.3621050000    -2.2796780000
    7      H       0.2352400000     2.7896050000    -1.3723780000
    8      C      -0.0432600000    -1.8755950000    -0.2197780000
    9      H      -0.2313600000    -1.8761950000     0.8437220000
   10      H      -1.0148600000    -2.3148950000    -0.3911780000
   11      H       0.7574400000    -2.5865950000    -0.0787780000
   12      H       0.2450400000     2.9016050000     1.3362220000
 ----------------------------------------------------------------

   10    -590.3699496632      5.94e-07  Convergence criterion met
 Total energy in the final basis set =     -590.3699496632
        RIMP2         total energy =      -591.3720915522 a.u.

                    Orbital Energies (a.u.)
 --------------------------------------------------------------

 Alpha MOs
 -- Occupied --
-91.9807 -11.2825 -11.2696 -11.2431 -11.2365 -11.2235  -8.9806  -6.6614
 -6.6609  -6.6603  -1.1580  -1.0397  -0.9733  -0.9184  -0.7589  -0.7204
 -0.6718  -0.5970  -0.5693  -0.5624  -0.5364  -0.4990  -0.4628  -0.4491
 -0.3466  -0.3121

          Ground-State Mulliken Net Atomic Charges

     Atom                 Charge (a.u.)
  ----------------------------------------
      1 C                     0.024009
      2 S                    -0.004546
      3 C                    -0.234979
      4 C                    -0.213827
      5 C                    -0.191007
      6 H                     0.185097
      7 H                     0.186034
      8 C                    -0.344369
      9 H                     0.110462
     10 H                     0.128277
     11 H                     0.148425
     12 H                     0.206424
  ----------------------------------------
  Sum of atomic charges =     0.000000

                    Cartesian Multipole Moments
 -----------------------------------------------------------------
    Charge (ESU x 10^10)
                -0.0000
    Dipole Moment (Debye)
         X      -0.0039      Y      -0.1853      Z      -0.4482
       Tot       0.4850
    Quadrupole Moments (Debye-Ang)
        XX     -47.3981     XY       0.8455     YY     -36.1439
        XZ       0.2076     YZ      -0.4118     ZZ     -42.3917

 Total job time:  10.80s(wall), 559.68s(cpu)
        *  Thank you very much for using Q-Chem.  Have a nice day.  *
