 Q-Chem 5.4, Q-Chem, Inc., Pleasanton, CA (2021)
 Q-Chem 5.4.0 for Intel X86 EM64T Linux

User input:
--------------------------------------------------------------
$molecule
0 1
C	-0.397206	-0.214208	-0.220089
S	0.210294	0.295792	1.360411
C	1.464794	1.348492	0.684811
C	0.367194	0.427392	-1.205489
C	1.378494	1.276092	-0.713589
H	0.186694	0.275892	-2.279989
H	2.053294	1.842392	-1.372689
C	-0.397206	-1.692408	-0.220089
H	-0.210206	-1.693008	0.843611
H	-1.368806	-2.131708	-0.048789
H	0.403394	-2.403408	-0.361389
H	2.139394	1.914692	1.335911
$end

$rem
JOBTYPE		SP
EXCHANGE	HF
CORRELATION	pRIMP2
BASIS		cc-pvtz
METHOD		rimp2
AUX_BASIS	rimp2-cc-pvtz
SOLVENT_METHOD	PCM
PURECART	11111
SYMMETRY	false
MEM_TOTAL	110000
SCF_CONVERGENCE = 6
THRESH=10
GUI = 2
$end

$solvent
dielectric 4.90
$end
--------------------------------------------------------------

             Standard Nuclear Orientation (Angstroms)
    I     Atom           X                Y                Z
 ----------------------------------------------------------------
    1      C      -0.3972060000    -0.2142080000    -0.2200890000
    2      S       0.2102940000     0.2957920000     1.3604110000
    3      C       1.4647940000     1.3484920000     0.6848110000
    4      C       0.3671940000     0.4273920000    -1.2054890000
    5      C       1.3784940000     1.2760920000    -0.7135890000
    6      H       0.1866940000     0.2758920000    -2.2799890000
    7      H       2.0532940000     1.8423920000    -1.3726890000
    8      C      -0.3972060000    -1.6924080000    -0.2200890000
    9      H      -0.2102060000    -1.6930080000     0.8436110000
   10      H      -1.3688060000    -2.1317080000    -0.0487890000
   11      H       0.4033940000    -2.4034080000    -0.3613890000
   12      H       2.1393940000     1.9146920000     1.3359110000
 ----------------------------------------------------------------

   11    -590.3127387408      4.06e-07  Convergence criterion met
 Total energy in the final basis set =     -590.3127387408
        RIMP2         total energy =      -591.3247050858 a.u.

                    Orbital Energies (a.u.)
 --------------------------------------------------------------

 Alpha MOs
 -- Occupied --
-91.9752 -11.2871 -11.2581 -11.2527 -11.2431 -11.2120  -8.9764  -6.6571
 -6.6562  -6.6559  -1.1666  -1.0379  -0.9787  -0.9079  -0.7660  -0.7245
 -0.6718  -0.5897  -0.5742  -0.5629  -0.5405  -0.4789  -0.4623  -0.4414
 -0.3388  -0.3116

          Ground-State Mulliken Net Atomic Charges

     Atom                 Charge (a.u.)
  ----------------------------------------
      1 C                    -0.083757
      2 S                     0.002217
      3 C                    -0.177817
      4 C                    -0.127339
      5 C                    -0.221463
      6 H                     0.185891
      7 H                     0.186525
      8 C                    -0.357435
      9 H                     0.121825
     10 H                     0.110828
     11 H                     0.152685
     12 H                     0.207841
  ----------------------------------------
  Sum of atomic charges =     0.000000

                    Cartesian Multipole Moments
 -----------------------------------------------------------------
    Charge (ESU x 10^10)
                 0.0000
    Dipole Moment (Debye)
         X       1.9719      Y       0.1537      Z      -0.5081
       Tot       2.0421
    Quadrupole Moments (Debye-Ang)
        XX     -42.6004     XY       4.1796     YY     -42.2853
        XZ       0.2885     YZ      -0.5919     ZZ     -41.6520

 Total job time:  11.52s(wall), 602.74s(cpu)
        *  Thank you very much for using Q-Chem.  Have a nice day.  *
