 Q-Chem 5.4, Q-Chem, Inc., Pleasanton, CA (2021)
 Q-Chem 5.4.0 for Intel X86 EM64T Linux

User input:
--------------------------------------------------------------
$molecule
0 1
C	-0.447905	-0.072388	-0.005656
S	0.819995	1.160312	-0.004856
C	2.145295	-0.015288	-0.004956
C	0.171395	-1.330688	-0.006156
C	1.579995	-1.299388	-0.005756
H	-0.403805	-2.268388	-0.006856
H	2.195895	-2.210988	-0.006056
C	-1.844305	0.412712	-0.005956
H	-1.845005	0.412912	1.074044
H	-1.935405	1.488812	-0.005456
H	-2.782605	-0.121988	-0.006656
H	3.190895	0.310712	-0.004456
$end

$rem
JOBTYPE		SP
EXCHANGE	HF
CORRELATION	pRIMP2
BASIS		cc-pvtz
METHOD		rimp2
AUX_BASIS	rimp2-cc-pvtz
SOLVENT_METHOD	PCM
PURECART	11111
SYMMETRY	false
MEM_TOTAL	110000
SCF_CONVERGENCE = 6
THRESH=10
GUI = 2
$end

$solvent
dielectric 4.90
$end
--------------------------------------------------------------

             Standard Nuclear Orientation (Angstroms)
    I     Atom           X                Y                Z
 ----------------------------------------------------------------
    1      C      -0.4479050000    -0.0723880000    -0.0056560000
    2      S       0.8199950000     1.1603120000    -0.0048560000
    3      C       2.1452950000    -0.0152880000    -0.0049560000
    4      C       0.1713950000    -1.3306880000    -0.0061560000
    5      C       1.5799950000    -1.2993880000    -0.0057560000
    6      H      -0.4038050000    -2.2683880000    -0.0068560000
    7      H       2.1958950000    -2.2109880000    -0.0060560000
    8      C      -1.8443050000     0.4127120000    -0.0059560000
    9      H      -1.8450050000     0.4129120000     1.0740440000
   10      H      -1.9354050000     1.4888120000    -0.0054560000
   11      H      -2.7826050000    -0.1219880000    -0.0066560000
   12      H       3.1908950000     0.3107120000    -0.0044560000
 ----------------------------------------------------------------

   10    -590.3743369204      6.50e-07  Convergence criterion met
 Total energy in the final basis set =     -590.3743369204
        RIMP2         total energy =      -591.3739219086 a.u.

                    Orbital Energies (a.u.)
 --------------------------------------------------------------

 Alpha MOs
 -- Occupied --
-91.9794 -11.2923 -11.2618 -11.2428 -11.2297 -11.2289  -8.9792  -6.6601
 -6.6596  -6.6590  -1.1569  -1.0411  -0.9710  -0.9198  -0.7546  -0.7218
 -0.6713  -0.5973  -0.5653  -0.5564  -0.5426  -0.4974  -0.4770  -0.4567
 -0.3467  -0.2974

          Ground-State Mulliken Net Atomic Charges

     Atom                 Charge (a.u.)
  ----------------------------------------
      1 C                     0.024512
      2 S                    -0.000585
      3 C                    -0.252997
      4 C                    -0.241364
      5 C                    -0.185868
      6 H                     0.180819
      7 H                     0.185142
      8 C                    -0.363606
      9 H                     0.142449
     10 H                     0.137856
     11 H                     0.169131
     12 H                     0.204511
  ----------------------------------------
  Sum of atomic charges =     0.000000

                    Cartesian Multipole Moments
 -----------------------------------------------------------------
    Charge (ESU x 10^10)
                -0.0000
    Dipole Moment (Debye)
         X      -1.1807      Y      -0.6962      Z       0.7498
       Tot       1.5623
    Quadrupole Moments (Debye-Ang)
        XX     -35.7953     XY      -0.9770     YY     -41.7833
        XZ      -1.4707     YZ       0.3034     ZZ     -48.3215

 Total job time:  12.61s(wall), 574.87s(cpu)
        *  Thank you very much for using Q-Chem.  Have a nice day.  *
