 Q-Chem 5.4, Q-Chem, Inc., Pleasanton, CA (2021)
 Q-Chem 5.4.0 for Intel X86 EM64T Linux

User input:
--------------------------------------------------------------
$molecule
0 1
C	-0.088891	-0.391505	-0.208958
S	0.048609	0.389695	1.371542
C	0.333009	2.002495	0.695942
C	0.084209	0.591395	-1.194358
C	0.313409	1.891595	-0.702458
H	0.043309	0.359295	-2.268858
H	0.466309	2.759095	-1.361558
C	-0.088891	-1.869705	-0.208958
H	-0.457791	-1.870305	-1.223958
H	0.838209	-2.309005	-0.546358
H	-0.852791	-2.580705	0.069242
H	0.485809	2.869795	1.347042
$end

$rem
JOBTYPE		SP
EXCHANGE	HF
CORRELATION	pRIMP2
BASIS		cc-pvtz
METHOD		rimp2
AUX_BASIS	rimp2-cc-pvtz
SOLVENT_METHOD	PCM
PURECART	11111
SYMMETRY	false
MEM_TOTAL	110000
SCF_CONVERGENCE = 6
THRESH=10
GUI = 2
$end

$solvent
dielectric 4.90
$end
--------------------------------------------------------------

             Standard Nuclear Orientation (Angstroms)
    I     Atom           X                Y                Z
 ----------------------------------------------------------------
    1      C      -0.0888910000    -0.3915050000    -0.2089580000
    2      S       0.0486090000     0.3896950000     1.3715420000
    3      C       0.3330090000     2.0024950000     0.6959420000
    4      C       0.0842090000     0.5913950000    -1.1943580000
    5      C       0.3134090000     1.8915950000    -0.7024580000
    6      H       0.0433090000     0.3592950000    -2.2688580000
    7      H       0.4663090000     2.7590950000    -1.3615580000
    8      C      -0.0888910000    -1.8697050000    -0.2089580000
    9      H      -0.4577910000    -1.8703050000    -1.2239580000
   10      H       0.8382090000    -2.3090050000    -0.5463580000
   11      H      -0.8527910000    -2.5807050000     0.0692420000
   12      H       0.4858090000     2.8697950000     1.3470420000
 ----------------------------------------------------------------

   10    -590.3717982023      5.91e-07  Convergence criterion met
 Total energy in the final basis set =     -590.3717982023
        RIMP2         total energy =      -591.3742804213 a.u.

                    Orbital Energies (a.u.)
 --------------------------------------------------------------

 Alpha MOs
 -- Occupied --
-91.9747 -11.2858 -11.2680 -11.2431 -11.2406 -11.2239  -8.9748  -6.6557
 -6.6551  -6.6546  -1.1570  -1.0382  -0.9726  -0.9192  -0.7542  -0.7241
 -0.6722  -0.5977  -0.5696  -0.5606  -0.5400  -0.5004  -0.4671  -0.4379
 -0.3450  -0.3104

          Ground-State Mulliken Net Atomic Charges

     Atom                 Charge (a.u.)
  ----------------------------------------
      1 C                     0.030998
      2 S                    -0.006894
      3 C                    -0.230491
      4 C                    -0.226086
      5 C                    -0.196937
      6 H                     0.183039
      7 H                     0.186425
      8 C                    -0.359599
      9 H                     0.120144
     10 H                     0.129304
     11 H                     0.166409
     12 H                     0.203690
  ----------------------------------------
  Sum of atomic charges =     0.000000

                    Cartesian Multipole Moments
 -----------------------------------------------------------------
    Charge (ESU x 10^10)
                -0.0000
    Dipole Moment (Debye)
         X       0.0055      Y      -0.4045      Z      -1.7604
       Tot       1.8063
    Quadrupole Moments (Debye-Ang)
        XX     -47.2417     XY       2.2625     YY     -36.2746
        XZ      -0.0673     YZ       1.9580     ZZ     -42.0750

 Total job time:  10.64s(wall), 556.09s(cpu)
        *  Thank you very much for using Q-Chem.  Have a nice day.  *
