 Q-Chem 5.4, Q-Chem, Inc., Pleasanton, CA (2021)
 Q-Chem 5.4.0 for Intel X86 EM64T Linux

User input:
--------------------------------------------------------------
$molecule
0 1
C	-0.001764	-0.399361	-0.209169
S	-0.001964	0.393839	1.371331
C	-0.001964	2.031539	0.695731
C	-0.001964	0.598639	-1.194569
C	-0.002064	1.918839	-0.702669
H	-0.001864	0.362939	-2.269069
H	-0.002064	2.799839	-1.361769
C	-0.001764	-1.877561	-0.209169
H	0.186336	-1.878161	-1.272669
H	0.969836	-2.316861	-0.037769
H	-0.802464	-2.588561	-0.350169
H	-0.002064	2.912239	1.346831
$end

$rem
JOBTYPE		SP
EXCHANGE	HF
CORRELATION	pRIMP2
BASIS		cc-pvtz
METHOD		rimp2
AUX_BASIS	rimp2-cc-pvtz
SOLVENT_METHOD	PCM
PURECART	11111
SYMMETRY	false
MEM_TOTAL	110000
SCF_CONVERGENCE = 6
THRESH=10
GUI = 2
$end

$solvent
dielectric 4.90
$end
--------------------------------------------------------------

             Standard Nuclear Orientation (Angstroms)
    I     Atom           X                Y                Z
 ----------------------------------------------------------------
    1      C      -0.0017640000    -0.3993610000    -0.2091690000
    2      S      -0.0019640000     0.3938390000     1.3713310000
    3      C      -0.0019640000     2.0315390000     0.6957310000
    4      C      -0.0019640000     0.5986390000    -1.1945690000
    5      C      -0.0020640000     1.9188390000    -0.7026690000
    6      H      -0.0018640000     0.3629390000    -2.2690690000
    7      H      -0.0020640000     2.7998390000    -1.3617690000
    8      C      -0.0017640000    -1.8775610000    -0.2091690000
    9      H       0.1863360000    -1.8781610000    -1.2726690000
   10      H       0.9698360000    -2.3168610000    -0.0377690000
   11      H      -0.8024640000    -2.5885610000    -0.3501690000
   12      H      -0.0020640000     2.9122390000     1.3468310000
 ----------------------------------------------------------------

   10    -590.3739156220      5.74e-07  Convergence criterion met
 Total energy in the final basis set =     -590.3739156220
        RIMP2         total energy =      -591.3759336118 a.u.

                    Orbital Energies (a.u.)
 --------------------------------------------------------------

 Alpha MOs
 -- Occupied --
-91.9750 -11.2853 -11.2688 -11.2430 -11.2410 -11.2236  -8.9751  -6.6560
 -6.6554  -6.6549  -1.1570  -1.0380  -0.9729  -0.9194  -0.7545  -0.7243
 -0.6727  -0.5972  -0.5709  -0.5596  -0.5390  -0.5004  -0.4676  -0.4374
 -0.3450  -0.3126

          Ground-State Mulliken Net Atomic Charges

     Atom                 Charge (a.u.)
  ----------------------------------------
      1 C                     0.034440
      2 S                    -0.009062
      3 C                    -0.227842
      4 C                    -0.219722
      5 C                    -0.202194
      6 H                     0.183726
      7 H                     0.186606
      8 C                    -0.355105
      9 H                     0.118136
     10 H                     0.134908
     11 H                     0.151698
     12 H                     0.204410
  ----------------------------------------
  Sum of atomic charges =     0.000000

                    Cartesian Multipole Moments
 -----------------------------------------------------------------
    Charge (ESU x 10^10)
                -0.0000
    Dipole Moment (Debye)
         X       0.1368      Y      -0.3225      Z      -1.7734
       Tot       1.8076
    Quadrupole Moments (Debye-Ang)
        XX     -47.4812     XY      -0.0794     YY     -35.9910
        XZ       0.1170     YZ       2.1488     ZZ     -42.1011

 Total job time:  10.55s(wall), 560.46s(cpu)
        *  Thank you very much for using Q-Chem.  Have a nice day.  *
