 Q-Chem 5.4, Q-Chem, Inc., Pleasanton, CA (2021)
 Q-Chem 5.4.0 for Intel X86 EM64T Linux

User input:
--------------------------------------------------------------
$molecule
0 1
C	0.000973	-0.399361	-0.220018
S	0.000773	0.393839	1.360482
C	0.000773	2.031539	0.684882
C	0.000773	0.598639	-1.205418
C	0.000673	1.918839	-0.713518
H	0.000873	0.362939	-2.279918
H	0.000673	2.799839	-1.372618
C	0.000973	-1.877561	-0.220018
H	0.000473	-1.878161	0.859982
H	-0.985627	-2.316861	-0.220018
H	0.813973	-2.588561	-0.220118
H	0.000673	2.912239	1.335982
$end

$rem
JOBTYPE		SP
EXCHANGE	HF
CORRELATION	pRIMP2
BASIS		cc-pvtz
METHOD		rimp2
AUX_BASIS	rimp2-cc-pvtz
SOLVENT_METHOD	PCM
PURECART	11111
SYMMETRY	false
MEM_TOTAL	110000
SCF_CONVERGENCE = 6
THRESH=10
GUI = 2
$end

$solvent
dielectric 4.90
$end
--------------------------------------------------------------

             Standard Nuclear Orientation (Angstroms)
    I     Atom           X                Y                Z
 ----------------------------------------------------------------
    1      C       0.0009730000    -0.3993610000    -0.2200180000
    2      S       0.0007730000     0.3938390000     1.3604820000
    3      C       0.0007730000     2.0315390000     0.6848820000
    4      C       0.0007730000     0.5986390000    -1.2054180000
    5      C       0.0006730000     1.9188390000    -0.7135180000
    6      H       0.0008730000     0.3629390000    -2.2799180000
    7      H       0.0006730000     2.7998390000    -1.3726180000
    8      C       0.0009730000    -1.8775610000    -0.2200180000
    9      H       0.0004730000    -1.8781610000     0.8599820000
   10      H      -0.9856270000    -2.3168610000    -0.2200180000
   11      H       0.8139730000    -2.5885610000    -0.2201180000
   12      H       0.0006730000     2.9122390000     1.3359820000
 ----------------------------------------------------------------

   10    -590.3705539995      5.89e-07  Convergence criterion met
 Total energy in the final basis set =     -590.3705539995
        RIMP2         total energy =      -591.3725212589 a.u.

                    Orbital Energies (a.u.)
 --------------------------------------------------------------

 Alpha MOs
 -- Occupied --
-91.9809 -11.2829 -11.2693 -11.2431 -11.2361 -11.2237  -8.9808  -6.6616
 -6.6611  -6.6605  -1.1580  -1.0399  -0.9732  -0.9183  -0.7589  -0.7203
 -0.6718  -0.5971  -0.5693  -0.5626  -0.5352  -0.5007  -0.4626  -0.4489
 -0.3466  -0.3123

          Ground-State Mulliken Net Atomic Charges

     Atom                 Charge (a.u.)
  ----------------------------------------
      1 C                     0.028110
      2 S                    -0.005519
      3 C                    -0.236124
      4 C                    -0.213430
      5 C                    -0.190636
      6 H                     0.185226
      7 H                     0.185919
      8 C                    -0.348448
      9 H                     0.111007
     10 H                     0.126432
     11 H                     0.150820
     12 H                     0.206644
  ----------------------------------------
  Sum of atomic charges =     0.000000

                    Cartesian Multipole Moments
 -----------------------------------------------------------------
    Charge (ESU x 10^10)
                -0.0000
    Dipole Moment (Debye)
         X      -0.0197      Y      -0.1977      Z      -0.4300
       Tot       0.4737
    Quadrupole Moments (Debye-Ang)
        XX     -47.4458     XY      -0.1888     YY     -36.0682
        XZ       0.0209     YZ      -0.3937     ZZ     -42.4220

 Total job time:  10.01s(wall), 542.69s(cpu)
        *  Thank you very much for using Q-Chem.  Have a nice day.  *
