 Q-Chem 5.4, Q-Chem, Inc., Pleasanton, CA (2021)
 Q-Chem 5.4.0 for Intel X86 EM64T Linux

User input:
--------------------------------------------------------------
$molecule
0 1
C	0.001922	-0.399361	-0.219778
S	0.001722	0.393839	1.360722
C	0.001722	2.031539	0.685122
C	0.001722	0.598639	-1.205178
C	0.001622	1.918839	-0.713278
H	0.001822	0.362939	-2.279678
H	0.001622	2.799839	-1.372378
C	0.001922	-1.877561	-0.219778
H	-0.186178	-1.878161	0.843722
H	-0.969678	-2.316861	-0.391178
H	0.802622	-2.588561	-0.078778
H	0.001622	2.912239	1.336222
$end

$rem
JOBTYPE		SP
EXCHANGE	HF
CORRELATION	pRIMP2
BASIS		cc-pvtz
METHOD		rimp2
AUX_BASIS	rimp2-cc-pvtz
SOLVENT_METHOD	PCM
PURECART	11111
SYMMETRY	false
MEM_TOTAL	110000
SCF_CONVERGENCE = 6
THRESH=10
GUI = 2
$end

$solvent
dielectric 4.90
$end
--------------------------------------------------------------

             Standard Nuclear Orientation (Angstroms)
    I     Atom           X                Y                Z
 ----------------------------------------------------------------
    1      C       0.0019220000    -0.3993610000    -0.2197780000
    2      S       0.0017220000     0.3938390000     1.3607220000
    3      C       0.0017220000     2.0315390000     0.6851220000
    4      C       0.0017220000     0.5986390000    -1.2051780000
    5      C       0.0016220000     1.9188390000    -0.7132780000
    6      H       0.0018220000     0.3629390000    -2.2796780000
    7      H       0.0016220000     2.7998390000    -1.3723780000
    8      C       0.0019220000    -1.8775610000    -0.2197780000
    9      H      -0.1861780000    -1.8781610000     0.8437220000
   10      H      -0.9696780000    -2.3168610000    -0.3911780000
   11      H       0.8026220000    -2.5885610000    -0.0787780000
   12      H       0.0016220000     2.9122390000     1.3362220000
 ----------------------------------------------------------------

   10    -590.3706524718      5.91e-07  Convergence criterion met
 Total energy in the final basis set =     -590.3706524718
        RIMP2         total energy =      -591.3725996057 a.u.

                    Orbital Energies (a.u.)
 --------------------------------------------------------------

 Alpha MOs
 -- Occupied --
-91.9806 -11.2831 -11.2692 -11.2431 -11.2363 -11.2237  -8.9805  -6.6614
 -6.6608  -6.6603  -1.1580  -1.0399  -0.9732  -0.9184  -0.7588  -0.7203
 -0.6717  -0.5972  -0.5693  -0.5623  -0.5358  -0.5002  -0.4628  -0.4492
 -0.3466  -0.3120

          Ground-State Mulliken Net Atomic Charges

     Atom                 Charge (a.u.)
  ----------------------------------------
      1 C                     0.027074
      2 S                    -0.004763
      3 C                    -0.235676
      4 C                    -0.213950
      5 C                    -0.191017
      6 H                     0.185100
      7 H                     0.185939
      8 C                    -0.347698
      9 H                     0.111033
     10 H                     0.127928
     11 H                     0.149647
     12 H                     0.206384
  ----------------------------------------
  Sum of atomic charges =     0.000000

                    Cartesian Multipole Moments
 -----------------------------------------------------------------
    Charge (ESU x 10^10)
                -0.0000
    Dipole Moment (Debye)
         X      -0.1290      Y      -0.2066      Z      -0.4447
       Tot       0.5070
    Quadrupole Moments (Debye-Ang)
        XX     -47.4744     XY       0.0619     YY     -36.0680
        XZ       0.1775     YZ      -0.4189     ZZ     -42.4010

 Total job time:  19.34s(wall), 550.54s(cpu)
        *  Thank you very much for using Q-Chem.  Have a nice day.  *
