 Q-Chem 5.4, Q-Chem, Inc., Pleasanton, CA (2021)
 Q-Chem 5.4.0 for Intel X86 EM64T Linux

User input:
--------------------------------------------------------------
$molecule
0 1
C	-0.263515	-0.329934	-0.218020
S	0.132885	0.357066	1.362480
C	0.951685	1.775366	0.686880
C	0.235285	0.534466	-1.203420
C	0.895385	1.677866	-0.711520
H	0.117485	0.330366	-2.277920
H	1.335785	2.440766	-1.370620
C	-0.263515	-1.808134	-0.218020
H	0.671485	-1.808734	0.322480
H	-0.756815	-2.247434	0.636380
H	0.142885	-2.519134	-0.922120
H	1.391985	2.538166	1.337980
$end

$rem
JOBTYPE		SP
EXCHANGE	HF
CORRELATION	pRIMP2
BASIS		cc-pvtz
METHOD		rimp2
AUX_BASIS	rimp2-cc-pvtz
SOLVENT_METHOD	PCM
PURECART	11111
SYMMETRY	false
MEM_TOTAL	110000
SCF_CONVERGENCE = 6
THRESH=10
GUI = 2
$end

$solvent
dielectric 4.90
$end
--------------------------------------------------------------

             Standard Nuclear Orientation (Angstroms)
    I     Atom           X                Y                Z
 ----------------------------------------------------------------
    1      C      -0.2635150000    -0.3299340000    -0.2180200000
    2      S       0.1328850000     0.3570660000     1.3624800000
    3      C       0.9516850000     1.7753660000     0.6868800000
    4      C       0.2352850000     0.5344660000    -1.2034200000
    5      C       0.8953850000     1.6778660000    -0.7115200000
    6      H       0.1174850000     0.3303660000    -2.2779200000
    7      H       1.3357850000     2.4407660000    -1.3706200000
    8      C      -0.2635150000    -1.8081340000    -0.2180200000
    9      H       0.6714850000    -1.8087340000     0.3224800000
   10      H      -0.7568150000    -2.2474340000     0.6363800000
   11      H       0.1428850000    -2.5191340000    -0.9221200000
   12      H       1.3919850000     2.5381660000     1.3379800000
 ----------------------------------------------------------------

   10    -590.3565191984      6.48e-07  Convergence criterion met
 Total energy in the final basis set =     -590.3565191984
        RIMP2         total energy =      -591.3599396237 a.u.

                    Orbital Energies (a.u.)
 --------------------------------------------------------------

 Alpha MOs
 -- Occupied --
-91.9762 -11.2840 -11.2703 -11.2432 -11.2364 -11.2246  -8.9767  -6.6576
 -6.6570  -6.6564  -1.1610  -1.0401  -0.9731  -0.9152  -0.7580  -0.7221
 -0.6718  -0.5950  -0.5682  -0.5628  -0.5321  -0.5016  -0.4688  -0.4544
 -0.3470  -0.2994

          Ground-State Mulliken Net Atomic Charges

     Atom                 Charge (a.u.)
  ----------------------------------------
      1 C                     0.015632
      2 S                    -0.006393
      3 C                    -0.231899
      4 C                    -0.244605
      5 C                    -0.180910
      6 H                     0.182260
      7 H                     0.187222
      8 C                    -0.359970
      9 H                     0.140623
     10 H                     0.128870
     11 H                     0.164310
     12 H                     0.204860
  ----------------------------------------
  Sum of atomic charges =     0.000000

                    Cartesian Multipole Moments
 -----------------------------------------------------------------
    Charge (ESU x 10^10)
                 0.0000
    Dipole Moment (Debye)
         X       1.3101      Y      -0.5280      Z      -0.7775
       Tot       1.6124
    Quadrupole Moments (Debye-Ang)
        XX     -46.2339     XY       2.7205     YY     -38.3994
        XZ      -0.1555     YZ       0.3319     ZZ     -41.9052

 Total job time:  12.74s(wall), 556.37s(cpu)
        *  Thank you very much for using Q-Chem.  Have a nice day.  *
