 Q-Chem 5.4, Q-Chem, Inc., Pleasanton, CA (2021)
 Q-Chem 5.4.0 for Intel X86 EM64T Linux

User input:
--------------------------------------------------------------
$molecule
0 1
C	-0.004170	-0.399361	-0.210801
S	-0.004370	0.393839	1.369699
C	-0.004370	2.031539	0.694099
C	-0.004370	0.598639	-1.196201
C	-0.004470	1.918839	-0.704301
H	-0.004270	0.362939	-2.270701
H	-0.004470	2.799839	-1.363401
C	-0.004170	-1.877561	-0.210801
H	0.690430	-1.878161	-1.037801
H	0.751630	-2.316861	0.423399
H	-0.627070	-2.588561	-0.733301
H	-0.004470	2.912239	1.345199
$end

$rem
JOBTYPE		SP
EXCHANGE	HF
CORRELATION	pRIMP2
BASIS		cc-pvtz
METHOD		rimp2
AUX_BASIS	rimp2-cc-pvtz
SOLVENT_METHOD	PCM
PURECART	11111
SYMMETRY	false
MEM_TOTAL	110000
SCF_CONVERGENCE = 6
THRESH=10
GUI = 2
$end

$solvent
dielectric 4.90
$end
--------------------------------------------------------------

             Standard Nuclear Orientation (Angstroms)
    I     Atom           X                Y                Z
 ----------------------------------------------------------------
    1      C      -0.0041700000    -0.3993610000    -0.2108010000
    2      S      -0.0043700000     0.3938390000     1.3696990000
    3      C      -0.0043700000     2.0315390000     0.6940990000
    4      C      -0.0043700000     0.5986390000    -1.1962010000
    5      C      -0.0044700000     1.9188390000    -0.7043010000
    6      H      -0.0042700000     0.3629390000    -2.2707010000
    7      H      -0.0044700000     2.7998390000    -1.3634010000
    8      C      -0.0041700000    -1.8775610000    -0.2108010000
    9      H       0.6904300000    -1.8781610000    -1.0378010000
   10      H       0.7516300000    -2.3168610000     0.4233990000
   11      H      -0.6270700000    -2.5885610000    -0.7333010000
   12      H      -0.0044700000     2.9122390000     1.3451990000
 ----------------------------------------------------------------

   10    -590.3734773364      5.88e-07  Convergence criterion met
 Total energy in the final basis set =     -590.3734773364
        RIMP2         total energy =      -591.3750309850 a.u.

                    Orbital Energies (a.u.)
 --------------------------------------------------------------

 Alpha MOs
 -- Occupied --
-91.9771 -11.2878 -11.2656 -11.2429 -11.2365 -11.2250  -8.9770  -6.6579
 -6.6573  -6.6568  -1.1567  -1.0388  -0.9722  -0.9194  -0.7542  -0.7234
 -0.6722  -0.5971  -0.5678  -0.5574  -0.5417  -0.5000  -0.4686  -0.4466
 -0.3454  -0.3057

          Ground-State Mulliken Net Atomic Charges

     Atom                 Charge (a.u.)
  ----------------------------------------
      1 C                     0.036035
      2 S                    -0.004824
      3 C                    -0.237958
      4 C                    -0.233669
      5 C                    -0.191932
      6 H                     0.182689
      7 H                     0.185586
      8 C                    -0.361219
      9 H                     0.128326
     10 H                     0.139792
     11 H                     0.153603
     12 H                     0.203570
  ----------------------------------------
  Sum of atomic charges =     0.000000

                    Cartesian Multipole Moments
 -----------------------------------------------------------------
    Charge (ESU x 10^10)
                -0.0000
    Dipole Moment (Debye)
         X       0.4697      Y      -0.5378      Z      -1.6136
       Tot       1.7646
    Quadrupole Moments (Debye-Ang)
        XX     -47.8211     XY      -0.8438     YY     -36.0398
        XZ       0.2843     YZ       1.9997     ZZ     -41.8489

 Total job time:  10.02s(wall), 557.56s(cpu)
        *  Thank you very much for using Q-Chem.  Have a nice day.  *
