 Q-Chem 5.4, Q-Chem, Inc., Pleasanton, CA (2021)
 Q-Chem 5.4.0 for Intel X86 EM64T Linux

User input:
--------------------------------------------------------------
$molecule
0 1
C	-0.454582	-0.140188	-0.214392
S	0.232218	0.256612	1.366108
C	1.650518	1.075412	0.690508
C	0.409618	0.358912	-1.199792
C	1.552918	1.019112	-0.707892
H	0.205518	0.241112	-2.274292
H	2.315818	1.459712	-1.366992
C	-0.454582	-1.618388	-0.214392
H	0.609118	-1.618988	-0.401392
H	-0.283282	-2.057688	0.757208
H	-0.595882	-2.329388	-1.014992
H	2.413118	1.515912	1.341608
$end

$rem
JOBTYPE		SP
EXCHANGE	HF
CORRELATION	pRIMP2
BASIS		cc-pvtz
METHOD		rimp2
AUX_BASIS	rimp2-cc-pvtz
SOLVENT_METHOD	PCM
PURECART	11111
SYMMETRY	false
MEM_TOTAL	110000
SCF_CONVERGENCE = 6
THRESH=10
GUI = 2
$end

$solvent
dielectric 4.90
$end
--------------------------------------------------------------

             Standard Nuclear Orientation (Angstroms)
    I     Atom           X                Y                Z
 ----------------------------------------------------------------
    1      C      -0.4545820000    -0.1401880000    -0.2143920000
    2      S       0.2322180000     0.2566120000     1.3661080000
    3      C       1.6505180000     1.0754120000     0.6905080000
    4      C       0.4096180000     0.3589120000    -1.1997920000
    5      C       1.5529180000     1.0191120000    -0.7078920000
    6      H       0.2055180000     0.2411120000    -2.2742920000
    7      H       2.3158180000     1.4597120000    -1.3669920000
    8      C      -0.4545820000    -1.6183880000    -0.2143920000
    9      H       0.6091180000    -1.6189880000    -0.4013920000
   10      H      -0.2832820000    -2.0576880000     0.7572080000
   11      H      -0.5958820000    -2.3293880000    -1.0149920000
   12      H       2.4131180000     1.5159120000     1.3416080000
 ----------------------------------------------------------------

   11    -590.2990697181      7.53e-07  Convergence criterion met
 Total energy in the final basis set =     -590.2990697181
        RIMP2         total energy =      -591.3150739987 a.u.

                    Orbital Energies (a.u.)
 --------------------------------------------------------------

 Alpha MOs
 -- Occupied --
-91.9792 -11.2898 -11.2616 -11.2496 -11.2463 -11.2179  -8.9798  -6.6605
 -6.6598  -6.6595  -1.1740  -1.0399  -0.9805  -0.9042  -0.7653  -0.7291
 -0.6745  -0.5964  -0.5684  -0.5664  -0.5344  -0.4899  -0.4627  -0.4506
 -0.3450  -0.2960

          Ground-State Mulliken Net Atomic Charges

     Atom                 Charge (a.u.)
  ----------------------------------------
      1 C                    -0.113116
      2 S                     0.023810
      3 C                    -0.173797
      4 C                    -0.095669
      5 C                    -0.242084
      6 H                     0.184250
      7 H                     0.187130
      8 C                    -0.350828
      9 H                     0.112522
     10 H                     0.122678
     11 H                     0.136041
     12 H                     0.209065
  ----------------------------------------
  Sum of atomic charges =     0.000000

                    Cartesian Multipole Moments
 -----------------------------------------------------------------
    Charge (ESU x 10^10)
                 0.0000
    Dipole Moment (Debye)
         X       2.6563      Y      -0.2608      Z      -1.0987
       Tot       2.8863
    Quadrupole Moments (Debye-Ang)
        XX     -42.3173     XY       3.7528     YY     -43.8355
        XZ       0.7526     YZ       1.0437     ZZ     -40.6385

 Total job time:  13.39s(wall), 614.26s(cpu)
        *  Thank you very much for using Q-Chem.  Have a nice day.  *
