 Q-Chem 5.4, Q-Chem, Inc., Pleasanton, CA (2021)
 Q-Chem 5.4.0 for Intel X86 EM64T Linux

User input:
--------------------------------------------------------------
$molecule
0 1
C	-0.401946	-0.214208	-0.211595
S	0.205554	0.295792	1.368905
C	1.460054	1.348492	0.693305
C	0.362454	0.427392	-1.196995
C	1.373754	1.276092	-0.705095
H	0.181954	0.275892	-2.271495
H	2.048554	1.842392	-1.364195
C	-0.401946	-1.692408	-0.211595
H	0.425754	-1.693008	-0.905395
H	0.232254	-2.131708	0.544205
H	-0.924646	-2.403408	-0.834295
H	2.134654	1.914692	1.344405
$end

$rem
JOBTYPE		SP
EXCHANGE	HF
CORRELATION	pRIMP2
BASIS		cc-pvtz
METHOD		rimp2
AUX_BASIS	rimp2-cc-pvtz
SOLVENT_METHOD	PCM
PURECART	11111
SYMMETRY	false
MEM_TOTAL	110000
SCF_CONVERGENCE = 6
THRESH=10
GUI = 2
$end

$solvent
dielectric 4.90
$end
--------------------------------------------------------------

             Standard Nuclear Orientation (Angstroms)
    I     Atom           X                Y                Z
 ----------------------------------------------------------------
    1      C      -0.4019460000    -0.2142080000    -0.2115950000
    2      S       0.2055540000     0.2957920000     1.3689050000
    3      C       1.4600540000     1.3484920000     0.6933050000
    4      C       0.3624540000     0.4273920000    -1.1969950000
    5      C       1.3737540000     1.2760920000    -0.7050950000
    6      H       0.1819540000     0.2758920000    -2.2714950000
    7      H       2.0485540000     1.8423920000    -1.3641950000
    8      C      -0.4019460000    -1.6924080000    -0.2115950000
    9      H       0.4257540000    -1.6930080000    -0.9053950000
   10      H       0.2322540000    -2.1317080000     0.5442050000
   11      H      -0.9246460000    -2.4034080000    -0.8342950000
   12      H       2.1346540000     1.9146920000     1.3444050000
 ----------------------------------------------------------------

   11    -590.3187796794      5.74e-07  Convergence criterion met
 Total energy in the final basis set =     -590.3187796794
        RIMP2         total energy =      -591.3317678783 a.u.

                    Orbital Energies (a.u.)
 --------------------------------------------------------------

 Alpha MOs
 -- Occupied --
-91.9788 -11.2799 -11.2688 -11.2451 -11.2438 -11.2160  -8.9789  -6.6597
 -6.6590  -6.6587  -1.1668  -1.0378  -0.9773  -0.9076  -0.7605  -0.7270
 -0.6715  -0.5962  -0.5696  -0.5546  -0.5458  -0.4783  -0.4686  -0.4516
 -0.3419  -0.2996

          Ground-State Mulliken Net Atomic Charges

     Atom                 Charge (a.u.)
  ----------------------------------------
      1 C                    -0.068286
      2 S                     0.014855
      3 C                    -0.193518
      4 C                    -0.135468
      5 C                    -0.230402
      6 H                     0.181547
      7 H                     0.187157
      8 C                    -0.364188
      9 H                     0.133689
     10 H                     0.132498
     11 H                     0.136136
     12 H                     0.205980
  ----------------------------------------
  Sum of atomic charges =     0.000000

                    Cartesian Multipole Moments
 -----------------------------------------------------------------
    Charge (ESU x 10^10)
                 0.0000
    Dipole Moment (Debye)
         X       2.0512      Y      -0.2532      Z      -1.4495
       Tot       2.5244
    Quadrupole Moments (Debye-Ang)
        XX     -43.4297     XY       3.8051     YY     -42.3241
        XZ       0.9188     YZ       1.5171     ZZ     -40.9989

 Total job time:  11.70s(wall), 614.70s(cpu)
        *  Thank you very much for using Q-Chem.  Have a nice day.  *
