 Q-Chem 5.4, Q-Chem, Inc., Pleasanton, CA (2021)
 Q-Chem 5.4.0 for Intel X86 EM64T Linux

User input:
--------------------------------------------------------------
$molecule
0 1
C	-0.450022	-0.140188	-0.219989
S	0.236778	0.256612	1.360511
C	1.655078	1.075412	0.684911
C	0.414178	0.358912	-1.205389
C	1.557478	1.019112	-0.713489
H	0.210078	0.241112	-2.279889
H	2.320378	1.459712	-1.372589
C	-0.450022	-1.618388	-0.219989
H	-0.081122	-1.618988	0.795011
H	-1.377122	-2.057688	0.117411
H	0.313878	-2.329388	-0.498189
H	2.417678	1.515912	1.336011
$end

$rem
JOBTYPE		SP
EXCHANGE	HF
CORRELATION	pRIMP2
BASIS		cc-pvtz
METHOD		rimp2
AUX_BASIS	rimp2-cc-pvtz
SOLVENT_METHOD	PCM
PURECART	11111
SYMMETRY	false
MEM_TOTAL	110000
SCF_CONVERGENCE = 6
THRESH=10
GUI = 2
$end

$solvent
dielectric 4.90
$end
--------------------------------------------------------------

             Standard Nuclear Orientation (Angstroms)
    I     Atom           X                Y                Z
 ----------------------------------------------------------------
    1      C      -0.4500220000    -0.1401880000    -0.2199890000
    2      S       0.2367780000     0.2566120000     1.3605110000
    3      C       1.6550780000     1.0754120000     0.6849110000
    4      C       0.4141780000     0.3589120000    -1.2053890000
    5      C       1.5574780000     1.0191120000    -0.7134890000
    6      H       0.2100780000     0.2411120000    -2.2798890000
    7      H       2.3203780000     1.4597120000    -1.3725890000
    8      C      -0.4500220000    -1.6183880000    -0.2199890000
    9      H      -0.0811220000    -1.6189880000     0.7950110000
   10      H      -1.3771220000    -2.0576880000     0.1174110000
   11      H       0.3138780000    -2.3293880000    -0.4981890000
   12      H       2.4176780000     1.5159120000     1.3360110000
 ----------------------------------------------------------------

   11    -590.2846172074      3.92e-07  Convergence criterion met
 Total energy in the final basis set =     -590.2846172074
        RIMP2         total energy =      -591.2995667546 a.u.

                    Orbital Energies (a.u.)
 --------------------------------------------------------------

 Alpha MOs
 -- Occupied --
-91.9725 -11.2952 -11.2612 -11.2491 -11.2436 -11.2074  -8.9744  -6.6551
 -6.6541  -6.6540  -1.1727  -1.0392  -0.9823  -0.9030  -0.7700  -0.7277
 -0.6728  -0.5879  -0.5785  -0.5647  -0.5391  -0.4783  -0.4638  -0.4369
 -0.3355  -0.3069

          Ground-State Mulliken Net Atomic Charges

     Atom                 Charge (a.u.)
  ----------------------------------------
      1 C                    -0.124936
      2 S                     0.002525
      3 C                    -0.148866
      4 C                    -0.073341
      5 C                    -0.250810
      6 H                     0.189550
      7 H                     0.186727
      8 C                    -0.372553
      9 H                     0.131365
     10 H                     0.105047
     11 H                     0.145934
     12 H                     0.209357
  ----------------------------------------
  Sum of atomic charges =     0.000000

                    Cartesian Multipole Moments
 -----------------------------------------------------------------
    Charge (ESU x 10^10)
                 0.0000
    Dipole Moment (Debye)
         X       2.7058      Y       0.0770      Z      -0.5582
       Tot       2.7639
    Quadrupole Moments (Debye-Ang)
        XX     -41.3568     XY       3.6081     YY     -44.1720
        XZ       0.3045     YZ      -0.7845     ZZ     -41.2584

 Total job time:  11.52s(wall), 603.28s(cpu)
        *  Thank you very much for using Q-Chem.  Have a nice day.  *
