 Q-Chem 5.4, Q-Chem, Inc., Pleasanton, CA (2021)
 Q-Chem 5.4.0 for Intel X86 EM64T Linux

User input:
--------------------------------------------------------------
$molecule
0 1
C	-0.400796	-0.214208	-0.218722
S	0.206704	0.295792	1.361778
C	1.461204	1.348492	0.686178
C	0.363604	0.427392	-1.204122
C	1.374904	1.276092	-0.712222
H	0.183104	0.275892	-2.278622
H	2.049704	1.842392	-1.371322
C	-0.400796	-1.692408	-0.218722
H	0.426204	-1.693008	0.475878
H	-1.034996	-2.131708	0.537078
H	0.121704	-2.403408	-0.841622
H	2.135804	1.914692	1.337278
$end

$rem
JOBTYPE		SP
EXCHANGE	HF
CORRELATION	pRIMP2
BASIS		cc-pvtz
METHOD		rimp2
AUX_BASIS	rimp2-cc-pvtz
SOLVENT_METHOD	PCM
PURECART	11111
SYMMETRY	false
MEM_TOTAL	110000
SCF_CONVERGENCE = 6
THRESH=10
GUI = 2
$end

$solvent
dielectric 4.90
$end
--------------------------------------------------------------

             Standard Nuclear Orientation (Angstroms)
    I     Atom           X                Y                Z
 ----------------------------------------------------------------
    1      C      -0.4007960000    -0.2142080000    -0.2187220000
    2      S       0.2067040000     0.2957920000     1.3617780000
    3      C       1.4612040000     1.3484920000     0.6861780000
    4      C       0.3636040000     0.4273920000    -1.2041220000
    5      C       1.3749040000     1.2760920000    -0.7122220000
    6      H       0.1831040000     0.2758920000    -2.2786220000
    7      H       2.0497040000     1.8423920000    -1.3713220000
    8      C      -0.4007960000    -1.6924080000    -0.2187220000
    9      H       0.4262040000    -1.6930080000     0.4758780000
   10      H      -1.0349960000    -2.1317080000     0.5370780000
   11      H       0.1217040000    -2.4034080000    -0.8416220000
   12      H       2.1358040000     1.9146920000     1.3372780000
 ----------------------------------------------------------------

   10    -590.3182357530      8.59e-07  Convergence criterion met
 Total energy in the final basis set =     -590.3182357530
        RIMP2         total energy =      -591.3288862453 a.u.

                    Orbital Energies (a.u.)
 --------------------------------------------------------------

 Alpha MOs
 -- Occupied --
-91.9726 -11.2841 -11.2678 -11.2489 -11.2444 -11.2165  -8.9741  -6.6548
 -6.6541  -6.6538  -1.1680  -1.0394  -0.9776  -0.9082  -0.7638  -0.7251
 -0.6726  -0.5915  -0.5736  -0.5653  -0.5307  -0.4973  -0.4635  -0.4453
 -0.3454  -0.2994

          Ground-State Mulliken Net Atomic Charges

     Atom                 Charge (a.u.)
  ----------------------------------------
      1 C                    -0.051825
      2 S                    -0.007067
      3 C                    -0.185189
      4 C                    -0.157104
      5 C                    -0.219446
      6 H                     0.185291
      7 H                     0.187506
      8 C                    -0.366224
      9 H                     0.134465
     10 H                     0.116018
     11 H                     0.156656
     12 H                     0.206920
  ----------------------------------------
  Sum of atomic charges =     0.000000

                    Cartesian Multipole Moments
 -----------------------------------------------------------------
    Charge (ESU x 10^10)
                 0.0000
    Dipole Moment (Debye)
         X       2.1670      Y      -0.1824      Z      -0.7930
       Tot       2.3147
    Quadrupole Moments (Debye-Ang)
        XX     -43.2496     XY       3.7177     YY     -42.0662
        XZ       0.1068     YZ      -0.0309     ZZ     -41.5665

 Total job time:  24.78s(wall), 558.16s(cpu)
        *  Thank you very much for using Q-Chem.  Have a nice day.  *
