 Q-Chem 5.4, Q-Chem, Inc., Pleasanton, CA (2021)
 Q-Chem 5.4.0 for Intel X86 EM64T Linux

User input:
--------------------------------------------------------------
$molecule
0 1
C	-0.261003	-0.329934	-0.209169
S	0.135397	0.357066	1.371331
C	0.954197	1.775366	0.695731
C	0.237797	0.534466	-1.194569
C	0.897897	1.677866	-0.702669
H	0.119997	0.330366	-2.269069
H	1.338297	2.440766	-1.361769
C	-0.261003	-1.808134	-0.209169
H	-0.072903	-1.808734	-1.272669
H	0.710597	-2.247434	-0.037769
H	-1.061703	-2.519134	-0.350169
H	1.394497	2.538166	1.346831
$end

$rem
JOBTYPE		SP
EXCHANGE	HF
CORRELATION	pRIMP2
BASIS		cc-pvtz
METHOD		rimp2
AUX_BASIS	rimp2-cc-pvtz
SOLVENT_METHOD	PCM
PURECART	11111
SYMMETRY	false
MEM_TOTAL	110000
SCF_CONVERGENCE = 6
THRESH=10
GUI = 2
$end

$solvent
dielectric 4.90
$end
--------------------------------------------------------------

             Standard Nuclear Orientation (Angstroms)
    I     Atom           X                Y                Z
 ----------------------------------------------------------------
    1      C      -0.2610030000    -0.3299340000    -0.2091690000
    2      S       0.1353970000     0.3570660000     1.3713310000
    3      C       0.9541970000     1.7753660000     0.6957310000
    4      C       0.2377970000     0.5344660000    -1.1945690000
    5      C       0.8978970000     1.6778660000    -0.7026690000
    6      H       0.1199970000     0.3303660000    -2.2690690000
    7      H       1.3382970000     2.4407660000    -1.3617690000
    8      C      -0.2610030000    -1.8081340000    -0.2091690000
    9      H      -0.0729030000    -1.8087340000    -1.2726690000
   10      H       0.7105970000    -2.2474340000    -0.0377690000
   11      H      -1.0617030000    -2.5191340000    -0.3501690000
   12      H       1.3944970000     2.5381660000     1.3468310000
 ----------------------------------------------------------------

   10    -590.3578272861      6.93e-07  Convergence criterion met
 Total energy in the final basis set =     -590.3578272861
        RIMP2         total energy =      -591.3633981910 a.u.

                    Orbital Energies (a.u.)
 --------------------------------------------------------------

 Alpha MOs
 -- Occupied --
-91.9746 -11.2787 -11.2734 -11.2443 -11.2428 -11.2210  -8.9749  -6.6557
 -6.6551  -6.6546  -1.1597  -1.0372  -0.9741  -0.9155  -0.7561  -0.7252
 -0.6718  -0.5965  -0.5722  -0.5578  -0.5401  -0.4939  -0.4678  -0.4359
 -0.3438  -0.3124

          Ground-State Mulliken Net Atomic Charges

     Atom                 Charge (a.u.)
  ----------------------------------------
      1 C                     0.006526
      2 S                    -0.004119
      3 C                    -0.216586
      4 C                    -0.209365
      5 C                    -0.199404
      6 H                     0.181127
      7 H                     0.187966
      8 C                    -0.357280
      9 H                     0.118464
     10 H                     0.138542
     11 H                     0.149848
     12 H                     0.204280
  ----------------------------------------
  Sum of atomic charges =     0.000000

                    Cartesian Multipole Moments
 -----------------------------------------------------------------
    Charge (ESU x 10^10)
                -0.0000
    Dipole Moment (Debye)
         X       0.9475      Y      -0.2079      Z      -1.7651
       Tot       2.0141
    Quadrupole Moments (Debye-Ang)
        XX     -45.4112     XY       3.8981     YY     -38.5746
        XZ       0.5936     YZ       1.9887     ZZ     -41.9099

 Total job time:  10.08s(wall), 542.46s(cpu)
        *  Thank you very much for using Q-Chem.  Have a nice day.  *
