 Q-Chem 5.4, Q-Chem, Inc., Pleasanton, CA (2021)
 Q-Chem 5.4.0 for Intel X86 EM64T Linux

User input:
--------------------------------------------------------------
$molecule
0 1
C	-0.255488	-0.329934	-0.210225
S	0.140912	0.357066	1.370275
C	0.959712	1.775366	0.694675
C	0.243312	0.534466	-1.195625
C	0.903412	1.677866	-0.703725
H	0.125512	0.330366	-2.270125
H	1.343812	2.440766	-1.362825
C	-0.255488	-1.808134	-0.210225
H	-1.082488	-1.808734	-0.904825
H	0.378712	-2.247434	-0.966025
H	-0.777988	-2.519134	0.412675
H	1.400012	2.538166	1.345775
$end

$rem
JOBTYPE		SP
EXCHANGE	HF
CORRELATION	pRIMP2
BASIS		cc-pvtz
METHOD		rimp2
AUX_BASIS	rimp2-cc-pvtz
SOLVENT_METHOD	PCM
PURECART	11111
SYMMETRY	false
MEM_TOTAL	110000
SCF_CONVERGENCE = 6
THRESH=10
GUI = 2
$end

$solvent
dielectric 4.90
$end
--------------------------------------------------------------

             Standard Nuclear Orientation (Angstroms)
    I     Atom           X                Y                Z
 ----------------------------------------------------------------
    1      C      -0.2554880000    -0.3299340000    -0.2102250000
    2      S       0.1409120000     0.3570660000     1.3702750000
    3      C       0.9597120000     1.7753660000     0.6946750000
    4      C       0.2433120000     0.5344660000    -1.1956250000
    5      C       0.9034120000     1.6778660000    -0.7037250000
    6      H       0.1255120000     0.3303660000    -2.2701250000
    7      H       1.3438120000     2.4407660000    -1.3628250000
    8      C      -0.2554880000    -1.8081340000    -0.2102250000
    9      H      -1.0824880000    -1.8087340000    -0.9048250000
   10      H       0.3787120000    -2.2474340000    -0.9660250000
   11      H      -0.7779880000    -2.5191340000     0.4126750000
   12      H       1.4000120000     2.5381660000     1.3457750000
 ----------------------------------------------------------------

   10    -590.3531680756      7.33e-07  Convergence criterion met
 Total energy in the final basis set =     -590.3531680756
        RIMP2         total energy =      -591.3594502371 a.u.

                    Orbital Energies (a.u.)
 --------------------------------------------------------------

 Alpha MOs
 -- Occupied --
-91.9745 -11.2810 -11.2696 -11.2436 -11.2408 -11.2216  -8.9747  -6.6555
 -6.6549  -6.6544  -1.1583  -1.0375  -0.9726  -0.9174  -0.7552  -0.7235
 -0.6705  -0.5960  -0.5647  -0.5603  -0.5434  -0.5010  -0.4640  -0.4408
 -0.3449  -0.3014

          Ground-State Mulliken Net Atomic Charges

     Atom                 Charge (a.u.)
  ----------------------------------------
      1 C                     0.007864
      2 S                     0.000454
      3 C                    -0.224285
      4 C                    -0.227526
      5 C                    -0.188227
      6 H                     0.180421
      7 H                     0.187002
      8 C                    -0.373610
      9 H                     0.127568
     10 H                     0.141266
     11 H                     0.166695
     12 H                     0.202378
  ----------------------------------------
  Sum of atomic charges =     0.000000

                    Cartesian Multipole Moments
 -----------------------------------------------------------------
    Charge (ESU x 10^10)
                 0.0000
    Dipole Moment (Debye)
         X       0.1827      Y      -0.4601      Z      -1.5780
       Tot       1.6539
    Quadrupole Moments (Debye-Ang)
        XX     -45.5389     XY       5.1714     YY     -38.4910
        XZ       0.0581     YZ       1.3451     ZZ     -41.6946

 Total job time:  10.06s(wall), 545.35s(cpu)
        *  Thank you very much for using Q-Chem.  Have a nice day.  *
