 Q-Chem 5.4, Q-Chem, Inc., Pleasanton, CA (2021)
 Q-Chem 5.4.0 for Intel X86 EM64T Linux

User input:
--------------------------------------------------------------
$molecule
0 1
C	-0.139357	-0.381707	-0.212476
S	0.065743	0.384493	1.368024
C	0.489543	1.966393	0.692424
C	0.118743	0.582293	-1.197876
C	0.460343	1.857593	-0.705976
H	0.057843	0.354693	-2.272376
H	0.688343	2.708493	-1.365076
C	-0.139357	-1.859907	-0.212476
H	0.796243	-1.860507	-0.751976
H	0.353943	-2.299207	0.642024
H	-0.545957	-2.570907	-0.916476
H	0.717443	2.817093	1.343524
$end

$rem
JOBTYPE		SP
EXCHANGE	HF
CORRELATION	pRIMP2
BASIS		cc-pvtz
METHOD		rimp2
AUX_BASIS	rimp2-cc-pvtz
SOLVENT_METHOD	PCM
PURECART	11111
SYMMETRY	false
MEM_TOTAL	110000
SCF_CONVERGENCE = 6
THRESH=10
GUI = 2
$end

$solvent
dielectric 4.90
$end
--------------------------------------------------------------

             Standard Nuclear Orientation (Angstroms)
    I     Atom           X                Y                Z
 ----------------------------------------------------------------
    1      C      -0.1393570000    -0.3817070000    -0.2124760000
    2      S       0.0657430000     0.3844930000     1.3680240000
    3      C       0.4895430000     1.9663930000     0.6924240000
    4      C       0.1187430000     0.5822930000    -1.1978760000
    5      C       0.4603430000     1.8575930000    -0.7059760000
    6      H       0.0578430000     0.3546930000    -2.2723760000
    7      H       0.6883430000     2.7084930000    -1.3650760000
    8      C      -0.1393570000    -1.8599070000    -0.2124760000
    9      H       0.7962430000    -1.8605070000    -0.7519760000
   10      H       0.3539430000    -2.2992070000     0.6420240000
   11      H      -0.5459570000    -2.5709070000    -0.9164760000
   12      H       0.7174430000     2.8170930000     1.3435240000
 ----------------------------------------------------------------

   10    -590.3702153067      6.15e-07  Convergence criterion met
 Total energy in the final basis set =     -590.3702153067
        RIMP2         total energy =      -591.3717133626 a.u.

                    Orbital Energies (a.u.)
 --------------------------------------------------------------

 Alpha MOs
 -- Occupied --
-91.9792 -11.2899 -11.2633 -11.2431 -11.2322 -11.2266  -8.9789  -6.6598
 -6.6593  -6.6587  -1.1577  -1.0398  -0.9719  -0.9181  -0.7545  -0.7229
 -0.6715  -0.5974  -0.5664  -0.5545  -0.5453  -0.4950  -0.4731  -0.4541
 -0.3458  -0.3001

          Ground-State Mulliken Net Atomic Charges

     Atom                 Charge (a.u.)
  ----------------------------------------
      1 C                     0.027523
      2 S                     0.000714
      3 C                    -0.243176
      4 C                    -0.233548
      5 C                    -0.191670
      6 H                     0.179539
      7 H                     0.185889
      8 C                    -0.367964
      9 H                     0.142320
     10 H                     0.136695
     11 H                     0.160188
     12 H                     0.203489
  ----------------------------------------
  Sum of atomic charges =     0.000000

                    Cartesian Multipole Moments
 -----------------------------------------------------------------
    Charge (ESU x 10^10)
                -0.0000
    Dipole Moment (Debye)
         X       0.9191      Y      -0.7459      Z      -1.4044
       Tot       1.8367
    Quadrupole Moments (Debye-Ang)
        XX     -47.7097     XY       1.0345     YY     -36.7266
        XZ       0.3276     YZ       1.7077     ZZ     -41.6565

 Total job time:  10.24s(wall), 552.43s(cpu)
        *  Thank you very much for using Q-Chem.  Have a nice day.  *
