 Q-Chem 5.4, Q-Chem, Inc., Pleasanton, CA (2021)
 Q-Chem 5.4.0 for Intel X86 EM64T Linux

User input:
--------------------------------------------------------------
$molecule
0 1
C	-0.447123	-0.140188	-0.219778
S	0.239677	0.256612	1.360722
C	1.657977	1.075412	0.685122
C	0.417077	0.358912	-1.205178
C	1.560377	1.019112	-0.713278
H	0.212977	0.241112	-2.279678
H	2.323277	1.459712	-1.372378
C	-0.447123	-1.618388	-0.219778
H	-0.635223	-1.618988	0.843722
H	-1.418723	-2.057688	-0.391178
H	0.353577	-2.329388	-0.078778
H	2.420577	1.515912	1.336222
$end

$rem
JOBTYPE		SP
EXCHANGE	HF
CORRELATION	pRIMP2
BASIS		cc-pvtz
METHOD		rimp2
AUX_BASIS	rimp2-cc-pvtz
SOLVENT_METHOD	PCM
PURECART	11111
SYMMETRY	false
MEM_TOTAL	110000
SCF_CONVERGENCE = 6
THRESH=10
GUI = 2
$end

$solvent
dielectric 4.90
$end
--------------------------------------------------------------

             Standard Nuclear Orientation (Angstroms)
    I     Atom           X                Y                Z
 ----------------------------------------------------------------
    1      C      -0.4471230000    -0.1401880000    -0.2197780000
    2      S       0.2396770000     0.2566120000     1.3607220000
    3      C       1.6579770000     1.0754120000     0.6851220000
    4      C       0.4170770000     0.3589120000    -1.2051780000
    5      C       1.5603770000     1.0191120000    -0.7132780000
    6      H       0.2129770000     0.2411120000    -2.2796780000
    7      H       2.3232770000     1.4597120000    -1.3723780000
    8      C      -0.4471230000    -1.6183880000    -0.2197780000
    9      H      -0.6352230000    -1.6189880000     0.8437220000
   10      H      -1.4187230000    -2.0576880000    -0.3911780000
   11      H       0.3535770000    -2.3293880000    -0.0787780000
   12      H       2.4205770000     1.5159120000     1.3362220000
 ----------------------------------------------------------------

   11    -590.2944902320      5.29e-07  Convergence criterion met
 Total energy in the final basis set =     -590.2944902320
        RIMP2         total energy =      -591.3081517399 a.u.

                    Orbital Energies (a.u.)
 --------------------------------------------------------------

 Alpha MOs
 -- Occupied --
-91.9758 -11.2960 -11.2603 -11.2446 -11.2435 -11.2116  -8.9769  -6.6577
 -6.6567  -6.6565  -1.1705  -1.0379  -0.9815  -0.9052  -0.7691  -0.7274
 -0.6723  -0.5908  -0.5749  -0.5617  -0.5460  -0.4687  -0.4555  -0.4410
 -0.3369  -0.3157

          Ground-State Mulliken Net Atomic Charges

     Atom                 Charge (a.u.)
  ----------------------------------------
      1 C                    -0.137858
      2 S                     0.008721
      3 C                    -0.149229
      4 C                    -0.070526
      5 C                    -0.243326
      6 H                     0.188754
      7 H                     0.185383
      8 C                    -0.350098
      9 H                     0.111791
     10 H                     0.107508
     11 H                     0.139255
     12 H                     0.209626
  ----------------------------------------
  Sum of atomic charges =     0.000000

                    Cartesian Multipole Moments
 -----------------------------------------------------------------
    Charge (ESU x 10^10)
                 0.0000
    Dipole Moment (Debye)
         X       2.4176      Y       0.1844      Z      -0.5624
       Tot       2.4890
    Quadrupole Moments (Debye-Ang)
        XX     -41.0237     XY       4.3713     YY     -43.9320
        XZ       0.6943     YZ      -0.6077     ZZ     -41.3124

 Total job time:  11.24s(wall), 613.78s(cpu)
        *  Thank you very much for using Q-Chem.  Have a nice day.  *
