 Q-Chem 5.4, Q-Chem, Inc., Pleasanton, CA (2021)
 Q-Chem 5.4.0 for Intel X86 EM64T Linux

User input:
--------------------------------------------------------------
$molecule
0 1
C	-0.263982	-0.329934	-0.211595
S	0.132418	0.357066	1.368905
C	0.951218	1.775366	0.693305
C	0.234818	0.534466	-1.196995
C	0.894918	1.677866	-0.705095
H	0.117018	0.330366	-2.271495
H	1.335318	2.440766	-1.364195
C	-0.263982	-1.808134	-0.211595
H	0.563718	-1.808734	-0.905395
H	0.370218	-2.247434	0.544205
H	-0.786682	-2.519134	-0.834295
H	1.391518	2.538166	1.344405
$end

$rem
JOBTYPE		SP
EXCHANGE	HF
CORRELATION	pRIMP2
BASIS		cc-pvtz
METHOD		rimp2
AUX_BASIS	rimp2-cc-pvtz
SOLVENT_METHOD	PCM
PURECART	11111
SYMMETRY	false
MEM_TOTAL	110000
SCF_CONVERGENCE = 6
THRESH=10
GUI = 2
$end

$solvent
dielectric 4.90
$end
--------------------------------------------------------------

             Standard Nuclear Orientation (Angstroms)
    I     Atom           X                Y                Z
 ----------------------------------------------------------------
    1      C      -0.2639820000    -0.3299340000    -0.2115950000
    2      S       0.1324180000     0.3570660000     1.3689050000
    3      C       0.9512180000     1.7753660000     0.6933050000
    4      C       0.2348180000     0.5344660000    -1.1969950000
    5      C       0.8949180000     1.6778660000    -0.7050950000
    6      H       0.1170180000     0.3303660000    -2.2714950000
    7      H       1.3353180000     2.4407660000    -1.3641950000
    8      C      -0.2639820000    -1.8081340000    -0.2115950000
    9      H       0.5637180000    -1.8087340000    -0.9053950000
   10      H       0.3702180000    -2.2474340000     0.5442050000
   11      H      -0.7866820000    -2.5191340000    -0.8342950000
   12      H       1.3915180000     2.5381660000     1.3444050000
 ----------------------------------------------------------------

   10    -590.3557584164      6.65e-07  Convergence criterion met
 Total energy in the final basis set =     -590.3557584164
        RIMP2         total energy =      -591.3609385042 a.u.

                    Orbital Energies (a.u.)
 --------------------------------------------------------------

 Alpha MOs
 -- Occupied --
-91.9786 -11.2837 -11.2680 -11.2433 -11.2362 -11.2227  -8.9785  -6.6593
 -6.6588  -6.6583  -1.1600  -1.0384  -0.9734  -0.9147  -0.7560  -0.7239
 -0.6712  -0.5968  -0.5676  -0.5540  -0.5459  -0.4889  -0.4713  -0.4517
 -0.3446  -0.3015

          Ground-State Mulliken Net Atomic Charges

     Atom                 Charge (a.u.)
  ----------------------------------------
      1 C                     0.003464
      2 S                     0.002878
      3 C                    -0.227911
      4 C                    -0.209425
      5 C                    -0.200200
      6 H                     0.179219
      7 H                     0.186810
      8 C                    -0.369608
      9 H                     0.141903
     10 H                     0.137649
     11 H                     0.151594
     12 H                     0.203628
  ----------------------------------------
  Sum of atomic charges =     0.000000

                    Cartesian Multipole Moments
 -----------------------------------------------------------------
    Charge (ESU x 10^10)
                 0.0000
    Dipole Moment (Debye)
         X       1.2269      Y      -0.5247      Z      -1.4989
       Tot       2.0068
    Quadrupole Moments (Debye-Ang)
        XX     -46.1470     XY       2.9109     YY     -38.7126
        XZ       0.6051     YZ       1.7650     ZZ     -41.5215

 Total job time:  10.01s(wall), 541.10s(cpu)
        *  Thank you very much for using Q-Chem.  Have a nice day.  *
