 Q-Chem 5.4, Q-Chem, Inc., Pleasanton, CA (2021)
 Q-Chem 5.4.0 for Intel X86 EM64T Linux

User input:
--------------------------------------------------------------
$molecule
0 1
C	-0.091791	-0.391505	-0.209169
S	0.045709	0.389695	1.371331
C	0.330109	2.002495	0.695731
C	0.081309	0.591395	-1.194569
C	0.310509	1.891595	-0.702669
H	0.040409	0.359295	-2.269069
H	0.463409	2.759095	-1.361769
C	-0.091791	-1.869705	-0.209169
H	0.096309	-1.870305	-1.272669
H	0.879809	-2.309005	-0.037769
H	-0.892491	-2.580705	-0.350169
H	0.482909	2.869795	1.346831
$end

$rem
JOBTYPE		SP
EXCHANGE	HF
CORRELATION	pRIMP2
BASIS		cc-pvtz
METHOD		rimp2
AUX_BASIS	rimp2-cc-pvtz
SOLVENT_METHOD	PCM
PURECART	11111
SYMMETRY	false
MEM_TOTAL	110000
SCF_CONVERGENCE = 6
THRESH=10
GUI = 2
$end

$solvent
dielectric 4.90
$end
--------------------------------------------------------------

             Standard Nuclear Orientation (Angstroms)
    I     Atom           X                Y                Z
 ----------------------------------------------------------------
    1      C      -0.0917910000    -0.3915050000    -0.2091690000
    2      S       0.0457090000     0.3896950000     1.3713310000
    3      C       0.3301090000     2.0024950000     0.6957310000
    4      C       0.0813090000     0.5913950000    -1.1945690000
    5      C       0.3105090000     1.8915950000    -0.7026690000
    6      H       0.0404090000     0.3592950000    -2.2690690000
    7      H       0.4634090000     2.7590950000    -1.3617690000
    8      C      -0.0917910000    -1.8697050000    -0.2091690000
    9      H       0.0963090000    -1.8703050000    -1.2726690000
   10      H       0.8798090000    -2.3090050000    -0.0377690000
   11      H      -0.8924910000    -2.5807050000    -0.3501690000
   12      H       0.4829090000     2.8697950000     1.3468310000
 ----------------------------------------------------------------

   10    -590.3725234885      5.80e-07  Convergence criterion met
 Total energy in the final basis set =     -590.3725234885
        RIMP2         total energy =      -591.3748202267 a.u.

                    Orbital Energies (a.u.)
 --------------------------------------------------------------

 Alpha MOs
 -- Occupied --
-91.9750 -11.2849 -11.2690 -11.2429 -11.2410 -11.2235  -8.9751  -6.6560
 -6.6554  -6.6549  -1.1573  -1.0380  -0.9729  -0.9188  -0.7546  -0.7244
 -0.6725  -0.5974  -0.5710  -0.5593  -0.5391  -0.4998  -0.4677  -0.4375
 -0.3448  -0.3124

          Ground-State Mulliken Net Atomic Charges

     Atom                 Charge (a.u.)
  ----------------------------------------
      1 C                     0.033923
      2 S                    -0.008773
      3 C                    -0.227468
      4 C                    -0.222819
      5 C                    -0.200031
      6 H                     0.183040
      7 H                     0.187010
      8 C                    -0.357976
      9 H                     0.119197
     10 H                     0.134636
     11 H                     0.154972
     12 H                     0.204290
  ----------------------------------------
  Sum of atomic charges =     0.000000

                    Cartesian Multipole Moments
 -----------------------------------------------------------------
    Charge (ESU x 10^10)
                -0.0000
    Dipole Moment (Debye)
         X       0.3735      Y      -0.3288      Z      -1.7726
       Tot       1.8411
    Quadrupole Moments (Debye-Ang)
        XX     -47.2463     XY       1.4709     YY     -36.3109
        XZ       0.2759     YZ       2.1312     ZZ     -42.0840

 Total job time:  10.67s(wall), 562.00s(cpu)
        *  Thank you very much for using Q-Chem.  Have a nice day.  *
