 Q-Chem 5.4, Q-Chem, Inc., Pleasanton, CA (2021)
 Q-Chem 5.4.0 for Intel X86 EM64T Linux

User input:
--------------------------------------------------------------
$molecule
0 1
C	-0.044047	-0.397395	-0.208958
S	0.024853	0.392805	1.371542
C	0.167553	2.024305	0.695942
C	0.042753	0.596805	-1.194358
C	0.157753	1.912005	-0.702458
H	0.022253	0.362105	-2.268858
H	0.234453	2.789605	-1.361558
C	-0.044047	-1.875595	-0.208958
H	-0.412947	-1.876195	-1.223958
H	0.883053	-2.314895	-0.546358
H	-0.807947	-2.586595	0.069242
H	0.244253	2.901605	1.347042
$end

$rem
JOBTYPE		SP
EXCHANGE	HF
CORRELATION	pRIMP2
BASIS		cc-pvtz
METHOD		rimp2
AUX_BASIS	rimp2-cc-pvtz
SOLVENT_METHOD	PCM
PURECART	11111
SYMMETRY	false
MEM_TOTAL	110000
SCF_CONVERGENCE = 6
THRESH=10
GUI = 2
$end

$solvent
dielectric 4.90
$end
--------------------------------------------------------------

             Standard Nuclear Orientation (Angstroms)
    I     Atom           X                Y                Z
 ----------------------------------------------------------------
    1      C      -0.0440470000    -0.3973950000    -0.2089580000
    2      S       0.0248530000     0.3928050000     1.3715420000
    3      C       0.1675530000     2.0243050000     0.6959420000
    4      C       0.0427530000     0.5968050000    -1.1943580000
    5      C       0.1577530000     1.9120050000    -0.7024580000
    6      H       0.0222530000     0.3621050000    -2.2688580000
    7      H       0.2344530000     2.7896050000    -1.3615580000
    8      C      -0.0440470000    -1.8755950000    -0.2089580000
    9      H      -0.4129470000    -1.8761950000    -1.2239580000
   10      H       0.8830530000    -2.3148950000    -0.5463580000
   11      H      -0.8079470000    -2.5865950000     0.0692420000
   12      H       0.2442530000     2.9016050000     1.3470420000
 ----------------------------------------------------------------

   10    -590.3729462137      5.83e-07  Convergence criterion met
 Total energy in the final basis set =     -590.3729462137
        RIMP2         total energy =      -591.3751240600 a.u.

                    Orbital Energies (a.u.)
 --------------------------------------------------------------

 Alpha MOs
 -- Occupied --
-91.9749 -11.2864 -11.2675 -11.2430 -11.2402 -11.2241  -8.9750  -6.6559
 -6.6553  -6.6548  -1.1569  -1.0383  -0.9725  -0.9194  -0.7541  -0.7240
 -0.6723  -0.5978  -0.5695  -0.5607  -0.5403  -0.4999  -0.4673  -0.4385
 -0.3450  -0.3104

          Ground-State Mulliken Net Atomic Charges

     Atom                 Charge (a.u.)
  ----------------------------------------
      1 C                     0.033859
      2 S                    -0.007084
      3 C                    -0.232192
      4 C                    -0.225367
      5 C                    -0.197840
      6 H                     0.183123
      7 H                     0.186389
      8 C                    -0.359179
      9 H                     0.121015
     10 H                     0.128284
     11 H                     0.165244
     12 H                     0.203747
  ----------------------------------------
  Sum of atomic charges =     0.000000

                    Cartesian Multipole Moments
 -----------------------------------------------------------------
    Charge (ESU x 10^10)
                -0.0000
    Dipole Moment (Debye)
         X      -0.1108      Y      -0.4193      Z      -1.7595
       Tot       1.8122
    Quadrupole Moments (Debye-Ang)
        XX     -47.4603     XY       1.5016     YY     -36.0570
        XZ      -0.1396     YZ       1.9714     ZZ     -42.0778

 Total job time:  10.15s(wall), 556.93s(cpu)
        *  Thank you very much for using Q-Chem.  Have a nice day.  *
