 Q-Chem 5.4, Q-Chem, Inc., Pleasanton, CA (2021)
 Q-Chem 5.4.0 for Intel X86 EM64T Linux

User input:
--------------------------------------------------------------
$molecule
0 1
C	-0.043106	-0.397395	-0.209225
S	0.025794	0.392805	1.371275
C	0.168494	2.024305	0.695675
C	0.043694	0.596805	-1.194625
C	0.158694	1.912005	-0.702725
H	0.023194	0.362105	-2.269125
H	0.235394	2.789605	-1.361825
C	-0.043106	-1.875595	-0.209225
H	-0.582606	-1.876195	-1.144825
H	0.811394	-2.314895	-0.702525
H	-0.747106	-2.586595	0.197375
H	0.245194	2.901605	1.346775
$end

$rem
JOBTYPE		SP
EXCHANGE	HF
CORRELATION	pRIMP2
BASIS		cc-pvtz
METHOD		rimp2
AUX_BASIS	rimp2-cc-pvtz
SOLVENT_METHOD	PCM
PURECART	11111
SYMMETRY	false
MEM_TOTAL	110000
SCF_CONVERGENCE = 6
THRESH=10
GUI = 2
$end

$solvent
dielectric 4.90
$end
--------------------------------------------------------------

             Standard Nuclear Orientation (Angstroms)
    I     Atom           X                Y                Z
 ----------------------------------------------------------------
    1      C      -0.0431060000    -0.3973950000    -0.2092250000
    2      S       0.0257940000     0.3928050000     1.3712750000
    3      C       0.1684940000     2.0243050000     0.6956750000
    4      C       0.0436940000     0.5968050000    -1.1946250000
    5      C       0.1586940000     1.9120050000    -0.7027250000
    6      H       0.0231940000     0.3621050000    -2.2691250000
    7      H       0.2353940000     2.7896050000    -1.3618250000
    8      C      -0.0431060000    -1.8755950000    -0.2092250000
    9      H      -0.5826060000    -1.8761950000    -1.1448250000
   10      H       0.8113940000    -2.3148950000    -0.7025250000
   11      H      -0.7471060000    -2.5865950000     0.1973750000
   12      H       0.2451940000     2.9016050000     1.3467750000
 ----------------------------------------------------------------

   10    -590.3724339991      5.90e-07  Convergence criterion met
 Total energy in the final basis set =     -590.3724339991
        RIMP2         total energy =      -591.3745471370 a.u.

                    Orbital Energies (a.u.)
 --------------------------------------------------------------

 Alpha MOs
 -- Occupied --
-91.9754 -11.2875 -11.2662 -11.2431 -11.2388 -11.2246  -8.9754  -6.6563
 -6.6557  -6.6552  -1.1567  -1.0386  -0.9722  -0.9195  -0.7539  -0.7237
 -0.6720  -0.5981  -0.5679  -0.5609  -0.5417  -0.4995  -0.4674  -0.4411
 -0.3451  -0.3079

          Ground-State Mulliken Net Atomic Charges

     Atom                 Charge (a.u.)
  ----------------------------------------
      1 C                     0.034949
      2 S                    -0.005835
      3 C                    -0.236592
      4 C                    -0.230620
      5 C                    -0.193528
      6 H                     0.182668
      7 H                     0.186066
      8 C                    -0.363421
      9 H                     0.124716
     10 H                     0.129396
     11 H                     0.168930
     12 H                     0.203270
  ----------------------------------------
  Sum of atomic charges =     0.000000

                    Cartesian Multipole Moments
 -----------------------------------------------------------------
    Charge (ESU x 10^10)
                -0.0000
    Dipole Moment (Debye)
         X      -0.2346      Y      -0.5119      Z      -1.7144
       Tot       1.8045
    Quadrupole Moments (Debye-Ang)
        XX     -47.5644     XY       1.7294     YY     -36.0658
        XZ      -0.2092     YZ       1.8428     ZZ     -42.0070

 Total job time:  10.08s(wall), 550.07s(cpu)
        *  Thank you very much for using Q-Chem.  Have a nice day.  *
