 Q-Chem 5.4, Q-Chem, Inc., Pleasanton, CA (2021)
 Q-Chem 5.4.0 for Intel X86 EM64T Linux

User input:
--------------------------------------------------------------
$molecule
0 1
C	-0.095563	-0.391505	-0.214392
S	0.041937	0.389695	1.366108
C	0.326337	2.002495	0.690508
C	0.077537	0.591395	-1.199792
C	0.306737	1.891595	-0.707892
H	0.036637	0.359295	-2.274292
H	0.459637	2.759095	-1.366992
C	-0.095563	-1.869705	-0.214392
H	0.968137	-1.870305	-0.401392
H	0.075737	-2.309005	0.757208
H	-0.236863	-2.580705	-1.014992
H	0.479137	2.869795	1.341608
$end

$rem
JOBTYPE		SP
EXCHANGE	HF
CORRELATION	pRIMP2
BASIS		cc-pvtz
METHOD		rimp2
AUX_BASIS	rimp2-cc-pvtz
SOLVENT_METHOD	PCM
PURECART	11111
SYMMETRY	false
MEM_TOTAL	110000
SCF_CONVERGENCE = 6
THRESH=10
GUI = 2
$end

$solvent
dielectric 4.90
$end
--------------------------------------------------------------

             Standard Nuclear Orientation (Angstroms)
    I     Atom           X                Y                Z
 ----------------------------------------------------------------
    1      C      -0.0955630000    -0.3915050000    -0.2143920000
    2      S       0.0419370000     0.3896950000     1.3661080000
    3      C       0.3263370000     2.0024950000     0.6905080000
    4      C       0.0775370000     0.5913950000    -1.1997920000
    5      C       0.3067370000     1.8915950000    -0.7078920000
    6      H       0.0366370000     0.3592950000    -2.2742920000
    7      H       0.4596370000     2.7590950000    -1.3669920000
    8      C      -0.0955630000    -1.8697050000    -0.2143920000
    9      H       0.9681370000    -1.8703050000    -0.4013920000
   10      H       0.0757370000    -2.3090050000     0.7572080000
   11      H      -0.2368630000    -2.5807050000    -1.0149920000
   12      H       0.4791370000     2.8697950000     1.3416080000
 ----------------------------------------------------------------

   10    -590.3734833419      6.50e-07  Convergence criterion met
 Total energy in the final basis set =     -590.3734833419
        RIMP2         total energy =      -591.3735204420 a.u.

                    Orbital Energies (a.u.)
 --------------------------------------------------------------

 Alpha MOs
 -- Occupied --
-91.9796 -11.2922 -11.2617 -11.2430 -11.2298 -11.2289  -8.9793  -6.6602
 -6.6598  -6.6592  -1.1574  -1.0409  -0.9713  -0.9190  -0.7546  -0.7222
 -0.6714  -0.5974  -0.5658  -0.5552  -0.5438  -0.4961  -0.4772  -0.4566
 -0.3466  -0.2976

          Ground-State Mulliken Net Atomic Charges

     Atom                 Charge (a.u.)
  ----------------------------------------
      1 C                     0.027745
      2 S                     0.001366
      3 C                    -0.251586
      4 C                    -0.243638
      5 C                    -0.186203
      6 H                     0.179141
      7 H                     0.185650
      8 C                    -0.364609
      9 H                     0.145680
     10 H                     0.136376
     11 H                     0.166122
     12 H                     0.203956
  ----------------------------------------
  Sum of atomic charges =     0.000000

                    Cartesian Multipole Moments
 -----------------------------------------------------------------
    Charge (ESU x 10^10)
                 0.0000
    Dipole Moment (Debye)
         X       0.9081      Y      -0.8884      Z      -1.1680
       Tot       1.7257
    Quadrupole Moments (Debye-Ang)
        XX     -48.1612     XY       0.1089     YY     -36.1985
        XZ       0.0275     YZ       1.3238     ZZ     -41.6972

 Total job time:  10.93s(wall), 562.22s(cpu)
        *  Thank you very much for using Q-Chem.  Have a nice day.  *
