 Q-Chem 5.4, Q-Chem, Inc., Pleasanton, CA (2021)
 Q-Chem 5.4.0 for Intel X86 EM64T Linux

User input:
--------------------------------------------------------------
$molecule
0 1
C	-0.128860	-0.381707	-0.216471
S	0.076240	0.384493	1.364029
C	0.500040	1.966393	0.688429
C	0.129240	0.582293	-1.201871
C	0.470840	1.857593	-0.709971
H	0.068340	0.354693	-2.276371
H	0.698840	2.708493	-1.369071
C	-0.128860	-1.859907	-0.216471
H	-1.064460	-1.860507	0.323029
H	-0.622160	-2.299207	-1.070971
H	0.277740	-2.570907	0.487529
H	0.727940	2.817093	1.339529
$end

$rem
JOBTYPE		SP
EXCHANGE	HF
CORRELATION	pRIMP2
BASIS		cc-pvtz
METHOD		rimp2
AUX_BASIS	rimp2-cc-pvtz
SOLVENT_METHOD	PCM
PURECART	11111
SYMMETRY	false
MEM_TOTAL	110000
SCF_CONVERGENCE = 6
THRESH=10
GUI = 2
$end

$solvent
dielectric 4.90
$end
--------------------------------------------------------------

             Standard Nuclear Orientation (Angstroms)
    I     Atom           X                Y                Z
 ----------------------------------------------------------------
    1      C      -0.1288600000    -0.3817070000    -0.2164710000
    2      S       0.0762400000     0.3844930000     1.3640290000
    3      C       0.5000400000     1.9663930000     0.6884290000
    4      C       0.1292400000     0.5822930000    -1.2018710000
    5      C       0.4708400000     1.8575930000    -0.7099710000
    6      H       0.0683400000     0.3546930000    -2.2763710000
    7      H       0.6988400000     2.7084930000    -1.3690710000
    8      C      -0.1288600000    -1.8599070000    -0.2164710000
    9      H      -1.0644600000    -1.8605070000     0.3230290000
   10      H      -0.6221600000    -2.2992070000    -1.0709710000
   11      H       0.2777400000    -2.5709070000     0.4875290000
   12      H       0.7279400000     2.8170930000     1.3395290000
 ----------------------------------------------------------------

   10    -590.3671900555      6.02e-07  Convergence criterion met
 Total energy in the final basis set =     -590.3671900555
        RIMP2         total energy =      -591.3691170610 a.u.

                    Orbital Energies (a.u.)
 --------------------------------------------------------------

 Alpha MOs
 -- Occupied --
-91.9778 -11.2862 -11.2671 -11.2430 -11.2353 -11.2250  -8.9778  -6.6587
 -6.6582  -6.6576  -1.1574  -1.0395  -0.9720  -0.9195  -0.7565  -0.7211
 -0.6707  -0.5977  -0.5658  -0.5592  -0.5444  -0.4894  -0.4721  -0.4543
 -0.3463  -0.3017

          Ground-State Mulliken Net Atomic Charges

     Atom                 Charge (a.u.)
  ----------------------------------------
      1 C                    -0.004578
      2 S                    -0.010912
      3 C                    -0.228521
      4 C                    -0.208230
      5 C                    -0.196849
      6 H                     0.184540
      7 H                     0.185030
      8 C                    -0.352084
      9 H                     0.129933
     10 H                     0.130808
     11 H                     0.165939
     12 H                     0.204925
  ----------------------------------------
  Sum of atomic charges =     0.000000

                    Cartesian Multipole Moments
 -----------------------------------------------------------------
    Charge (ESU x 10^10)
                -0.0000
    Dipole Moment (Debye)
         X      -0.2831      Y      -0.5191      Z      -0.7531
       Tot       0.9574
    Quadrupole Moments (Debye-Ang)
        XX     -47.3817     XY       3.4055     YY     -36.5560
        XZ       0.5985     YZ      -0.0384     ZZ     -41.9441

 Total job time:  10.22s(wall), 563.18s(cpu)
        *  Thank you very much for using Q-Chem.  Have a nice day.  *
