 Q-Chem 5.4, Q-Chem, Inc., Pleasanton, CA (2021)
 Q-Chem 5.4.0 for Intel X86 EM64T Linux

User input:
--------------------------------------------------------------
$molecule
0 1
C	-0.444718	-0.140188	-0.218146
S	0.242082	0.256612	1.362354
C	1.660382	1.075412	0.686754
C	0.419482	0.358912	-1.203546
C	1.562782	1.019112	-0.711646
H	0.215382	0.241112	-2.278046
H	2.325682	1.459712	-1.370746
C	-0.444718	-1.618388	-0.218146
H	-1.139318	-1.618988	0.608854
H	-1.200518	-2.057688	-0.852346
H	0.178182	-2.329388	0.304354
H	2.422982	1.515912	1.337854
$end

$rem
JOBTYPE		SP
EXCHANGE	HF
CORRELATION	pRIMP2
BASIS		cc-pvtz
METHOD		rimp2
AUX_BASIS	rimp2-cc-pvtz
SOLVENT_METHOD	PCM
PURECART	11111
SYMMETRY	false
MEM_TOTAL	110000
SCF_CONVERGENCE = 6
THRESH=10
GUI = 2
$end

$solvent
dielectric 4.90
$end
--------------------------------------------------------------

             Standard Nuclear Orientation (Angstroms)
    I     Atom           X                Y                Z
 ----------------------------------------------------------------
    1      C      -0.4447180000    -0.1401880000    -0.2181460000
    2      S       0.2420820000     0.2566120000     1.3623540000
    3      C       1.6603820000     1.0754120000     0.6867540000
    4      C       0.4194820000     0.3589120000    -1.2035460000
    5      C       1.5627820000     1.0191120000    -0.7116460000
    6      H       0.2153820000     0.2411120000    -2.2780460000
    7      H       2.3256820000     1.4597120000    -1.3707460000
    8      C      -0.4447180000    -1.6183880000    -0.2181460000
    9      H      -1.1393180000    -1.6189880000     0.6088540000
   10      H      -1.2005180000    -2.0576880000    -0.8523460000
   11      H       0.1781820000    -2.3293880000     0.3043540000
   12      H       2.4229820000     1.5159120000     1.3378540000
 ----------------------------------------------------------------

   11    -590.2998116920      6.34e-07  Convergence criterion met
 Total energy in the final basis set =     -590.2998116920
        RIMP2         total energy =      -591.3126444636 a.u.

                    Orbital Energies (a.u.)
 --------------------------------------------------------------

 Alpha MOs
 -- Occupied --
-91.9774 -11.2964 -11.2591 -11.2449 -11.2438 -11.2126  -8.9781  -6.6588
 -6.6580  -6.6578  -1.1692  -1.0363  -0.9808  -0.9076  -0.7672  -0.7278
 -0.6714  -0.5930  -0.5700  -0.5596  -0.5504  -0.4747  -0.4490  -0.4415
 -0.3440  -0.3091

          Ground-State Mulliken Net Atomic Charges

     Atom                 Charge (a.u.)
  ----------------------------------------
      1 C                    -0.145723
      2 S                     0.011556
      3 C                    -0.144526
      4 C                    -0.062357
      5 C                    -0.243356
      6 H                     0.189154
      7 H                     0.185113
      8 C                    -0.367802
      9 H                     0.110331
     10 H                     0.112458
     11 H                     0.145303
     12 H                     0.209849
  ----------------------------------------
  Sum of atomic charges =     0.000000

                    Cartesian Multipole Moments
 -----------------------------------------------------------------
    Charge (ESU x 10^10)
                 0.0000
    Dipole Moment (Debye)
         X       2.2080      Y       0.2287      Z      -0.7393
       Tot       2.3397
    Quadrupole Moments (Debye-Ang)
        XX     -40.9742     XY       5.0389     YY     -43.8300
        XZ       1.1005     YZ      -0.2880     ZZ     -41.1138

 Total job time:  11.28s(wall), 590.90s(cpu)
        *  Thank you very much for using Q-Chem.  Have a nice day.  *
