 Q-Chem 5.4, Q-Chem, Inc., Pleasanton, CA (2021)
 Q-Chem 5.4.0 for Intel X86 EM64T Linux

User input:
--------------------------------------------------------------
$molecule
0 1
C	-0.402027	-0.214208	-0.217210
S	0.205473	0.295792	1.363290
C	1.459973	1.348492	0.687690
C	0.362373	0.427392	-1.202610
C	1.373673	1.276092	-0.710710
H	0.181873	0.275892	-2.277110
H	2.048473	1.842392	-1.369810
C	-0.402027	-1.692408	-0.217210
H	0.612673	-1.693008	0.152690
H	-0.739527	-2.131708	0.709890
H	-0.124127	-2.403408	-0.981210
H	2.134573	1.914692	1.338790
$end

$rem
JOBTYPE		SP
EXCHANGE	HF
CORRELATION	pRIMP2
BASIS		cc-pvtz
METHOD		rimp2
AUX_BASIS	rimp2-cc-pvtz
SOLVENT_METHOD	PCM
PURECART	11111
SYMMETRY	false
MEM_TOTAL	110000
SCF_CONVERGENCE = 6
THRESH=10
GUI = 2
$end

$solvent
dielectric 4.90
$end
--------------------------------------------------------------

             Standard Nuclear Orientation (Angstroms)
    I     Atom           X                Y                Z
 ----------------------------------------------------------------
    1      C      -0.4020270000    -0.2142080000    -0.2172100000
    2      S       0.2054730000     0.2957920000     1.3632900000
    3      C       1.4599730000     1.3484920000     0.6876900000
    4      C       0.3623730000     0.4273920000    -1.2026100000
    5      C       1.3736730000     1.2760920000    -0.7107100000
    6      H       0.1818730000     0.2758920000    -2.2771100000
    7      H       2.0484730000     1.8423920000    -1.3698100000
    8      C      -0.4020270000    -1.6924080000    -0.2172100000
    9      H       0.6126730000    -1.6930080000     0.1526900000
   10      H      -0.7395270000    -2.1317080000     0.7098900000
   11      H      -0.1241270000    -2.4034080000    -0.9812100000
   12      H       2.1345730000     1.9146920000     1.3387900000
 ----------------------------------------------------------------

   10    -590.3249303305      7.52e-07  Convergence criterion met
 Total energy in the final basis set =     -590.3249303305
        RIMP2         total energy =      -591.3350916827 a.u.

                    Orbital Energies (a.u.)
 --------------------------------------------------------------

 Alpha MOs
 -- Occupied --
-91.9746 -11.2819 -11.2721 -11.2456 -11.2444 -11.2215  -8.9756  -6.6564
 -6.6558  -6.6554  -1.1682  -1.0399  -0.9769  -0.9090  -0.7625  -0.7255
 -0.6730  -0.5938  -0.5709  -0.5651  -0.5293  -0.5007  -0.4648  -0.4495
 -0.3473  -0.2974

          Ground-State Mulliken Net Atomic Charges

     Atom                 Charge (a.u.)
  ----------------------------------------
      1 C                    -0.044225
      2 S                    -0.002666
      3 C                    -0.197700
      4 C                    -0.171110
      5 C                    -0.209308
      6 H                     0.182970
      7 H                     0.187795
      8 C                    -0.355804
      9 H                     0.131099
     10 H                     0.118511
     11 H                     0.153487
     12 H                     0.206950
  ----------------------------------------
  Sum of atomic charges =     0.000000

                    Cartesian Multipole Moments
 -----------------------------------------------------------------
    Charge (ESU x 10^10)
                 0.0000
    Dipole Moment (Debye)
         X       2.1206      Y      -0.3441      Z      -0.9595
       Tot       2.3529
    Quadrupole Moments (Debye-Ang)
        XX     -43.5822     XY       3.8016     YY     -41.8378
        XZ       0.2118     YZ       0.5240     ZZ     -41.4274

 Total job time:  37.72s(wall), 595.74s(cpu)
        *  Thank you very much for using Q-Chem.  Have a nice day.  *
