 Q-Chem 5.4, Q-Chem, Inc., Pleasanton, CA (2021)
 Q-Chem 5.4.0 for Intel X86 EM64T Linux

User input:
--------------------------------------------------------------
$molecule
0 1
C	-0.050408	-0.397395	-0.216317
S	0.018492	0.392805	1.364183
C	0.161192	2.024305	0.688583
C	0.036392	0.596805	-1.201717
C	0.151392	1.912005	-0.709817
H	0.015892	0.362105	-2.276217
H	0.228092	2.789605	-1.368917
C	-0.050408	-1.875595	-0.216317
H	1.013092	-1.876195	-0.028217
H	-0.221808	-2.314895	0.755283
H	0.090592	-2.586595	-1.017017
H	0.237892	2.901605	1.339683
$end

$rem
JOBTYPE		SP
EXCHANGE	HF
CORRELATION	pRIMP2
BASIS		cc-pvtz
METHOD		rimp2
AUX_BASIS	rimp2-cc-pvtz
SOLVENT_METHOD	PCM
PURECART	11111
SYMMETRY	false
MEM_TOTAL	110000
SCF_CONVERGENCE = 6
THRESH=10
GUI = 2
$end

$solvent
dielectric 4.90
$end
--------------------------------------------------------------

             Standard Nuclear Orientation (Angstroms)
    I     Atom           X                Y                Z
 ----------------------------------------------------------------
    1      C      -0.0504080000    -0.3973950000    -0.2163170000
    2      S       0.0184920000     0.3928050000     1.3641830000
    3      C       0.1611920000     2.0243050000     0.6885830000
    4      C       0.0363920000     0.5968050000    -1.2017170000
    5      C       0.1513920000     1.9120050000    -0.7098170000
    6      H       0.0158920000     0.3621050000    -2.2762170000
    7      H       0.2280920000     2.7896050000    -1.3689170000
    8      C      -0.0504080000    -1.8755950000    -0.2163170000
    9      H       1.0130920000    -1.8761950000    -0.0282170000
   10      H      -0.2218080000    -2.3148950000     0.7552830000
   11      H       0.0905920000    -2.5865950000    -1.0170170000
   12      H       0.2378920000     2.9016050000     1.3396830000
 ----------------------------------------------------------------

   10    -590.3746328906      6.51e-07  Convergence criterion met
 Total energy in the final basis set =     -590.3746328906
        RIMP2         total energy =      -591.3739910459 a.u.

                    Orbital Energies (a.u.)
 --------------------------------------------------------------

 Alpha MOs
 -- Occupied --
-91.9792 -11.2922 -11.2625 -11.2428 -11.2299 -11.2291  -8.9790  -6.6600
 -6.6595  -6.6589  -1.1573  -1.0414  -0.9711  -0.9195  -0.7550  -0.7216
 -0.6714  -0.5974  -0.5657  -0.5584  -0.5398  -0.4975  -0.4780  -0.4567
 -0.3470  -0.2979

          Ground-State Mulliken Net Atomic Charges

     Atom                 Charge (a.u.)
  ----------------------------------------
      1 C                     0.024026
      2 S                    -0.003085
      3 C                    -0.250828
      4 C                    -0.243556
      5 C                    -0.184331
      6 H                     0.181787
      7 H                     0.185185
      8 C                    -0.362176
      9 H                     0.142537
     10 H                     0.137130
     11 H                     0.168648
     12 H                     0.204665
  ----------------------------------------
  Sum of atomic charges =     0.000000

                    Cartesian Multipole Moments
 -----------------------------------------------------------------
    Charge (ESU x 10^10)
                 0.0000
    Dipole Moment (Debye)
         X       0.8180      Y      -0.8637      Z      -0.9229
       Tot       1.5056
    Quadrupole Moments (Debye-Ang)
        XX     -48.2843     XY      -0.6990     YY     -35.8778
        XZ      -0.2718     YZ       0.8438     ZZ     -41.8320

 Total job time:  11.03s(wall), 573.98s(cpu)
        *  Thank you very much for using Q-Chem.  Have a nice day.  *
