 Q-Chem 5.4, Q-Chem, Inc., Pleasanton, CA (2021)
 Q-Chem 5.4.0 for Intel X86 EM64T Linux

User input:
--------------------------------------------------------------
$molecule
0 1
C	-0.395280	-0.214208	-0.219778
S	0.212220	0.295792	1.360722
C	1.466720	1.348492	0.685122
C	0.369120	0.427392	-1.205178
C	1.380420	1.276092	-0.713278
H	0.188620	0.275892	-2.279678
H	2.055220	1.842392	-1.372378
C	-0.395280	-1.692408	-0.219778
H	-0.583380	-1.693008	0.843722
H	-1.366880	-2.131708	-0.391178
H	0.405420	-2.403408	-0.078778
H	2.141320	1.914692	1.336222
$end

$rem
JOBTYPE		SP
EXCHANGE	HF
CORRELATION	pRIMP2
BASIS		cc-pvtz
METHOD		rimp2
AUX_BASIS	rimp2-cc-pvtz
SOLVENT_METHOD	PCM
PURECART	11111
SYMMETRY	false
MEM_TOTAL	110000
SCF_CONVERGENCE = 6
THRESH=10
GUI = 2
$end

$solvent
dielectric 4.90
$end
--------------------------------------------------------------

             Standard Nuclear Orientation (Angstroms)
    I     Atom           X                Y                Z
 ----------------------------------------------------------------
    1      C      -0.3952800000    -0.2142080000    -0.2197780000
    2      S       0.2122200000     0.2957920000     1.3607220000
    3      C       1.4667200000     1.3484920000     0.6851220000
    4      C       0.3691200000     0.4273920000    -1.2051780000
    5      C       1.3804200000     1.2760920000    -0.7132780000
    6      H       0.1886200000     0.2758920000    -2.2796780000
    7      H       2.0552200000     1.8423920000    -1.3723780000
    8      C      -0.3952800000    -1.6924080000    -0.2197780000
    9      H      -0.5833800000    -1.6930080000     0.8437220000
   10      H      -1.3668800000    -2.1317080000    -0.3911780000
   11      H       0.4054200000    -2.4034080000    -0.0787780000
   12      H       2.1413200000     1.9146920000     1.3362220000
 ----------------------------------------------------------------

   11    -590.3177453382      4.76e-07  Convergence criterion met
 Total energy in the final basis set =     -590.3177453382
        RIMP2         total energy =      -591.3292520860 a.u.

                    Orbital Energies (a.u.)
 --------------------------------------------------------------

 Alpha MOs
 -- Occupied --
-91.9772 -11.2879 -11.2559 -11.2523 -11.2435 -11.2141  -8.9779  -6.6586
 -6.6578  -6.6575  -1.1657  -1.0372  -0.9785  -0.9093  -0.7655  -0.7245
 -0.6716  -0.5912  -0.5725  -0.5617  -0.5444  -0.4728  -0.4600  -0.4431
 -0.3412  -0.3142

          Ground-State Mulliken Net Atomic Charges

     Atom                 Charge (a.u.)
  ----------------------------------------
      1 C                    -0.092491
      2 S                     0.005681
      3 C                    -0.176988
      4 C                    -0.123924
      5 C                    -0.219012
      6 H                     0.185937
      7 H                     0.186070
      8 C                    -0.345287
      9 H                     0.110169
     10 H                     0.112240
     11 H                     0.149345
     12 H                     0.208261
  ----------------------------------------
  Sum of atomic charges =     0.000000

                    Cartesian Multipole Moments
 -----------------------------------------------------------------
    Charge (ESU x 10^10)
                -0.0000
    Dipole Moment (Debye)
         X       1.7875      Y       0.2262      Z      -0.5432
       Tot       1.8819
    Quadrupole Moments (Debye-Ang)
        XX     -42.4131     XY       4.7145     YY     -42.1454
        XZ       0.5778     YZ      -0.4809     ZZ     -41.6723

 Total job time:  20.65s(wall), 618.35s(cpu)
        *  Thank you very much for using Q-Chem.  Have a nice day.  *
