 Q-Chem 5.4, Q-Chem, Inc., Pleasanton, CA (2021)
 Q-Chem 5.4.0 for Intel X86 EM64T Linux

User input:
--------------------------------------------------------------
$molecule
0 1
C	0.005383	-0.399361	-0.212630
S	0.005183	0.393839	1.367870
C	0.005183	2.031539	0.692270
C	0.005183	0.598639	-1.198030
C	0.005083	1.918839	-0.706130
H	0.005283	0.362939	-2.272530
H	0.005083	2.799839	-1.365230
C	0.005383	-1.877561	-0.212630
H	-1.058117	-1.878161	-0.400730
H	0.176783	-2.316861	-1.184230
H	-0.135617	-2.588561	0.588070
H	0.005083	2.912239	1.343370
$end

$rem
JOBTYPE		SP
EXCHANGE	HF
CORRELATION	pRIMP2
BASIS		cc-pvtz
METHOD		rimp2
AUX_BASIS	rimp2-cc-pvtz
SOLVENT_METHOD	PCM
PURECART	11111
SYMMETRY	false
MEM_TOTAL	110000
SCF_CONVERGENCE = 6
THRESH=10
GUI = 2
$end

$solvent
dielectric 4.90
$end
--------------------------------------------------------------

             Standard Nuclear Orientation (Angstroms)
    I     Atom           X                Y                Z
 ----------------------------------------------------------------
    1      C       0.0053830000    -0.3993610000    -0.2126300000
    2      S       0.0051830000     0.3938390000     1.3678700000
    3      C       0.0051830000     2.0315390000     0.6922700000
    4      C       0.0051830000     0.5986390000    -1.1980300000
    5      C       0.0050830000     1.9188390000    -0.7061300000
    6      H       0.0052830000     0.3629390000    -2.2725300000
    7      H       0.0050830000     2.7998390000    -1.3652300000
    8      C       0.0053830000    -1.8775610000    -0.2126300000
    9      H      -1.0581170000    -1.8781610000    -0.4007300000
   10      H       0.1767830000    -2.3168610000    -1.1842300000
   11      H      -0.1356170000    -2.5885610000     0.5880700000
   12      H       0.0050830000     2.9122390000     1.3433700000
 ----------------------------------------------------------------

   10    -590.3734518946      6.48e-07  Convergence criterion met
 Total energy in the final basis set =     -590.3734518946
        RIMP2         total energy =      -591.3736644209 a.u.

                    Orbital Energies (a.u.)
 --------------------------------------------------------------

 Alpha MOs
 -- Occupied --
-91.9773 -11.2932 -11.2610 -11.2430 -11.2318 -11.2288  -8.9772  -6.6581
 -6.6576  -6.6570  -1.1567  -1.0408  -0.9709  -0.9200  -0.7539  -0.7220
 -0.6707  -0.5992  -0.5649  -0.5553  -0.5499  -0.4936  -0.4748  -0.4540
 -0.3462  -0.2977

          Ground-State Mulliken Net Atomic Charges

     Atom                 Charge (a.u.)
  ----------------------------------------
      1 C                     0.037164
      2 S                    -0.004063
      3 C                    -0.253712
      4 C                    -0.248462
      5 C                    -0.185212
      6 H                     0.180057
      7 H                     0.185866
      8 C                    -0.370925
      9 H                     0.142832
     10 H                     0.136961
     11 H                     0.176266
     12 H                     0.203227
  ----------------------------------------
  Sum of atomic charges =     0.000000

                    Cartesian Multipole Moments
 -----------------------------------------------------------------
    Charge (ESU x 10^10)
                -0.0000
    Dipole Moment (Debye)
         X      -0.7403      Y      -0.9416      Z      -1.2084
       Tot       1.7014
    Quadrupole Moments (Debye-Ang)
        XX     -48.2985     XY       1.5147     YY     -35.8403
        XZ       0.0418     YZ       0.8109     ZZ     -41.7811

 Total job time:  10.05s(wall), 549.95s(cpu)
        *  Thank you very much for using Q-Chem.  Have a nice day.  *
