 Q-Chem 5.4, Q-Chem, Inc., Pleasanton, CA (2021)
 Q-Chem 5.4.0 for Intel X86 EM64T Linux

User input:
--------------------------------------------------------------
$molecule
0 1
C	-0.327595	-0.278098	-0.214556
S	0.182105	0.329602	1.365944
C	1.234805	1.584202	0.690344
C	0.313805	0.486502	-1.199956
C	1.162305	1.497902	-0.708056
H	0.162305	0.306002	-2.274456
H	1.728505	2.172802	-1.367156
C	-0.327595	-1.756298	-0.214556
H	-1.391295	-1.756898	-0.027556
H	-0.498895	-2.195598	-1.186156
H	-0.186295	-2.467298	0.586044
H	1.800805	2.258902	1.341444
$end

$rem
JOBTYPE		SP
EXCHANGE	HF
CORRELATION	pRIMP2
BASIS		cc-pvtz
METHOD		rimp2
AUX_BASIS	rimp2-cc-pvtz
SOLVENT_METHOD	PCM
PURECART	11111
SYMMETRY	false
MEM_TOTAL	110000
SCF_CONVERGENCE = 6
THRESH=10
GUI = 2
$end

$solvent
dielectric 4.90
$end
--------------------------------------------------------------

             Standard Nuclear Orientation (Angstroms)
    I     Atom           X                Y                Z
 ----------------------------------------------------------------
    1      C      -0.3275950000    -0.2780980000    -0.2145560000
    2      S       0.1821050000     0.3296020000     1.3659440000
    3      C       1.2348050000     1.5842020000     0.6903440000
    4      C       0.3138050000     0.4865020000    -1.1999560000
    5      C       1.1623050000     1.4979020000    -0.7080560000
    6      H       0.1623050000     0.3060020000    -2.2744560000
    7      H       1.7285050000     2.1728020000    -1.3671560000
    8      C      -0.3275950000    -1.7562980000    -0.2145560000
    9      H      -1.3912950000    -1.7568980000    -0.0275560000
   10      H      -0.4988950000    -2.1955980000    -1.1861560000
   11      H      -0.1862950000    -2.4672980000     0.5860440000
   12      H       1.8008050000     2.2589020000     1.3414440000
 ----------------------------------------------------------------

   10    -590.3342974168      9.70e-07  Convergence criterion met
 Total energy in the final basis set =     -590.3342974168
        RIMP2         total energy =      -591.3435524225 a.u.

                    Orbital Energies (a.u.)
 --------------------------------------------------------------

 Alpha MOs
 -- Occupied --
-91.9761 -11.2752 -11.2725 -11.2437 -11.2420 -11.2176  -8.9764  -6.6572
 -6.6566  -6.6562  -1.1601  -1.0364  -0.9738  -0.9157  -0.7584  -0.7230
 -0.6693  -0.5940  -0.5606  -0.5564  -0.5526  -0.4918  -0.4590  -0.4496
 -0.3453  -0.2963

          Ground-State Mulliken Net Atomic Charges

     Atom                 Charge (a.u.)
  ----------------------------------------
      1 C                    -0.042731
      2 S                    -0.001437
      3 C                    -0.207740
      4 C                    -0.174831
      5 C                    -0.201444
      6 H                     0.185221
      7 H                     0.185434
      8 C                    -0.371179
      9 H                     0.128907
     10 H                     0.127976
     11 H                     0.166125
     12 H                     0.205699
  ----------------------------------------
  Sum of atomic charges =     0.000000

                    Cartesian Multipole Moments
 -----------------------------------------------------------------
    Charge (ESU x 10^10)
                 0.0000
    Dipole Moment (Debye)
         X       0.4659      Y      -0.2755      Z      -1.0140
       Tot       1.1494
    Quadrupole Moments (Debye-Ang)
        XX     -44.3556     XY       5.7645     YY     -40.1917
        XZ       0.6972     YZ       0.2660     ZZ     -41.3613

 Total job time:  11.59s(wall), 561.78s(cpu)
        *  Thank you very much for using Q-Chem.  Have a nice day.  *
