 Q-Chem 5.4, Q-Chem, Inc., Pleasanton, CA (2021)
 Q-Chem 5.4.0 for Intel X86 EM64T Linux

User input:
--------------------------------------------------------------
$molecule
0 1
C	-0.391579	-0.214208	-0.213580
S	0.215921	0.295792	1.366920
C	1.470421	1.348492	0.691320
C	0.372821	0.427392	-1.198980
C	1.384121	1.276092	-0.707080
H	0.192321	0.275892	-2.273480
H	2.058921	1.842392	-1.366180
C	-0.391579	-1.692408	-0.213580
H	-1.471579	-1.693008	-0.214080
H	-0.391579	-2.131708	-1.200180
H	-0.391479	-2.403408	0.599420
H	2.145021	1.914692	1.342420
$end

$rem
JOBTYPE		SP
EXCHANGE	HF
CORRELATION	pRIMP2
BASIS		cc-pvtz
METHOD		rimp2
AUX_BASIS	rimp2-cc-pvtz
SOLVENT_METHOD	PCM
PURECART	11111
SYMMETRY	false
MEM_TOTAL	110000
SCF_CONVERGENCE = 6
THRESH=10
GUI = 2
$end

$solvent
dielectric 4.90
$end
--------------------------------------------------------------

             Standard Nuclear Orientation (Angstroms)
    I     Atom           X                Y                Z
 ----------------------------------------------------------------
    1      C      -0.3915790000    -0.2142080000    -0.2135800000
    2      S       0.2159210000     0.2957920000     1.3669200000
    3      C       1.4704210000     1.3484920000     0.6913200000
    4      C       0.3728210000     0.4273920000    -1.1989800000
    5      C       1.3841210000     1.2760920000    -0.7070800000
    6      H       0.1923210000     0.2758920000    -2.2734800000
    7      H       2.0589210000     1.8423920000    -1.3661800000
    8      C      -0.3915790000    -1.6924080000    -0.2135800000
    9      H      -1.4715790000    -1.6930080000    -0.2140800000
   10      H      -0.3915790000    -2.1317080000    -1.2001800000
   11      H      -0.3914790000    -2.4034080000     0.5994200000
   12      H       2.1450210000     1.9146920000     1.3424200000
 ----------------------------------------------------------------

   11    -590.3135071842      5.83e-07  Convergence criterion met
 Total energy in the final basis set =     -590.3135071842
        RIMP2         total energy =      -591.3266893971 a.u.

                    Orbital Energies (a.u.)
 --------------------------------------------------------------

 Alpha MOs
 -- Occupied --
-91.9748 -11.2817 -11.2621 -11.2484 -11.2439 -11.2134  -8.9754  -6.6562
 -6.6554  -6.6551  -1.1627  -1.0353  -0.9755  -0.9126  -0.7602  -0.7250
 -0.6691  -0.5923  -0.5603  -0.5573  -0.5512  -0.4951  -0.4584  -0.4385
 -0.3443  -0.2938

          Ground-State Mulliken Net Atomic Charges

     Atom                 Charge (a.u.)
  ----------------------------------------
      1 C                    -0.069681
      2 S                     0.004240
      3 C                    -0.188199
      4 C                    -0.142411
      5 C                    -0.215488
      6 H                     0.186085
      7 H                     0.185593
      8 C                    -0.379942
      9 H                     0.125538
     10 H                     0.127223
     11 H                     0.161016
     12 H                     0.206026
  ----------------------------------------
  Sum of atomic charges =     0.000000

                    Cartesian Multipole Moments
 -----------------------------------------------------------------
    Charge (ESU x 10^10)
                 0.0000
    Dipole Moment (Debye)
         X       0.9931      Y      -0.1676      Z      -1.1474
       Tot       1.5268
    Quadrupole Moments (Debye-Ang)
        XX     -42.8272     XY       5.8424     YY     -42.0715
        XZ       0.6936     YZ       0.3455     ZZ     -41.0226

 Total job time:  11.31s(wall), 600.00s(cpu)
        *  Thank you very much for using Q-Chem.  Have a nice day.  *
