 Q-Chem 5.4, Q-Chem, Inc., Pleasanton, CA (2021)
 Q-Chem 5.4.0 for Intel X86 EM64T Linux

User input:
--------------------------------------------------------------
$molecule
0 1
C	-0.217194	-0.350804	-0.219778
S	0.117806	0.368096	1.360722
C	0.809906	1.852396	0.685122
C	0.204406	0.553796	-1.205178
C	0.762306	1.750296	-0.713278
H	0.104806	0.340196	-2.279678
H	1.134506	2.548796	-1.372378
C	-0.217194	-1.829004	-0.219778
H	-0.405294	-1.829604	0.843722
H	-1.188794	-2.268304	-0.391178
H	0.583506	-2.540004	-0.078778
H	1.182006	2.650596	1.336222
$end

$rem
JOBTYPE		SP
EXCHANGE	HF
CORRELATION	pRIMP2
BASIS		cc-pvtz
METHOD		rimp2
AUX_BASIS	rimp2-cc-pvtz
SOLVENT_METHOD	PCM
PURECART	11111
SYMMETRY	false
MEM_TOTAL	110000
SCF_CONVERGENCE = 6
THRESH=10
GUI = 2
$end

$solvent
dielectric 4.90
$end
--------------------------------------------------------------

             Standard Nuclear Orientation (Angstroms)
    I     Atom           X                Y                Z
 ----------------------------------------------------------------
    1      C      -0.2171940000    -0.3508040000    -0.2197780000
    2      S       0.1178060000     0.3680960000     1.3607220000
    3      C       0.8099060000     1.8523960000     0.6851220000
    4      C       0.2044060000     0.5537960000    -1.2051780000
    5      C       0.7623060000     1.7502960000    -0.7132780000
    6      H       0.1048060000     0.3401960000    -2.2796780000
    7      H       1.1345060000     2.5487960000    -1.3723780000
    8      C      -0.2171940000    -1.8290040000    -0.2197780000
    9      H      -0.4052940000    -1.8296040000     0.8437220000
   10      H      -1.1887940000    -2.2683040000    -0.3911780000
   11      H       0.5835060000    -2.5400040000    -0.0787780000
   12      H       1.1820060000     2.6505960000     1.3362220000
 ----------------------------------------------------------------

   10    -590.3570052022      6.87e-07  Convergence criterion met
 Total energy in the final basis set =     -590.3570052022
        RIMP2         total energy =      -591.3620410787 a.u.

                    Orbital Energies (a.u.)
 --------------------------------------------------------------

 Alpha MOs
 -- Occupied --
-91.9799 -11.2757 -11.2741 -11.2434 -11.2401 -11.2207  -8.9800  -6.6608
 -6.6602  -6.6597  -1.1595  -1.0385  -0.9744  -0.9164  -0.7603  -0.7210
 -0.6716  -0.5949  -0.5695  -0.5623  -0.5396  -0.4902  -0.4624  -0.4474
 -0.3458  -0.3126

          Ground-State Mulliken Net Atomic Charges

     Atom                 Charge (a.u.)
  ----------------------------------------
      1 C                    -0.007863
      2 S                    -0.001743
      3 C                    -0.222745
      4 C                    -0.206373
      5 C                    -0.189540
      6 H                     0.184341
      7 H                     0.186485
      8 C                    -0.337298
      9 H                     0.109340
     10 H                     0.123863
     11 H                     0.154888
     12 H                     0.206643
  ----------------------------------------
  Sum of atomic charges =     0.000000

                    Cartesian Multipole Moments
 -----------------------------------------------------------------
    Charge (ESU x 10^10)
                -0.0000
    Dipole Moment (Debye)
         X       0.5945      Y      -0.0047      Z      -0.4816
       Tot       0.7651
    Quadrupole Moments (Debye-Ang)
        XX     -45.8966     XY       3.5312     YY     -37.8897
        XZ       0.3393     YZ      -0.3959     ZZ     -42.2289

 Total job time:  9.97s(wall), 541.54s(cpu)
        *  Thank you very much for using Q-Chem.  Have a nice day.  *
