 Q-Chem 5.4, Q-Chem, Inc., Pleasanton, CA (2021)
 Q-Chem 5.4.0 for Intel X86 EM64T Linux

User input:
--------------------------------------------------------------
$molecule
0 1
C	-0.045186	-0.397395	-0.220089
S	0.023714	0.392805	1.360411
C	0.166414	2.024305	0.684811
C	0.041614	0.596805	-1.205489
C	0.156614	1.912005	-0.713589
H	0.021114	0.362105	-2.279989
H	0.233314	2.789605	-1.372689
C	-0.045186	-1.875595	-0.220089
H	0.141814	-1.876195	0.843611
H	-1.016786	-2.314895	-0.048789
H	0.755414	-2.586595	-0.361389
H	0.243114	2.901605	1.335911
$end

$rem
JOBTYPE		SP
EXCHANGE	HF
CORRELATION	pRIMP2
BASIS		cc-pvtz
METHOD		rimp2
AUX_BASIS	rimp2-cc-pvtz
SOLVENT_METHOD	PCM
PURECART	11111
SYMMETRY	false
MEM_TOTAL	110000
SCF_CONVERGENCE = 6
THRESH=10
GUI = 2
$end

$solvent
dielectric 4.90
$end
--------------------------------------------------------------

             Standard Nuclear Orientation (Angstroms)
    I     Atom           X                Y                Z
 ----------------------------------------------------------------
    1      C      -0.0451860000    -0.3973950000    -0.2200890000
    2      S       0.0237140000     0.3928050000     1.3604110000
    3      C       0.1664140000     2.0243050000     0.6848110000
    4      C       0.0416140000     0.5968050000    -1.2054890000
    5      C       0.1566140000     1.9120050000    -0.7135890000
    6      H       0.0211140000     0.3621050000    -2.2799890000
    7      H       0.2333140000     2.7896050000    -1.3726890000
    8      C      -0.0451860000    -1.8755950000    -0.2200890000
    9      H       0.1418140000    -1.8761950000     0.8436110000
   10      H      -1.0167860000    -2.3148950000    -0.0487890000
   11      H       0.7554140000    -2.5865950000    -0.3613890000
   12      H       0.2431140000     2.9016050000     1.3359110000
 ----------------------------------------------------------------

   10    -590.3698437667      5.88e-07  Convergence criterion met
 Total energy in the final basis set =     -590.3698437667
        RIMP2         total energy =      -591.3718141910 a.u.

                    Orbital Energies (a.u.)
 --------------------------------------------------------------

 Alpha MOs
 -- Occupied --
-91.9807 -11.2829 -11.2694 -11.2430 -11.2361 -11.2235  -8.9806  -6.6614
 -6.6609  -6.6603  -1.1581  -1.0399  -0.9732  -0.9183  -0.7588  -0.7203
 -0.6719  -0.5968  -0.5691  -0.5628  -0.5349  -0.5006  -0.4627  -0.4497
 -0.3465  -0.3117

          Ground-State Mulliken Net Atomic Charges

     Atom                 Charge (a.u.)
  ----------------------------------------
      1 C                     0.025524
      2 S                    -0.005492
      3 C                    -0.235238
      4 C                    -0.214889
      5 C                    -0.190208
      6 H                     0.185361
      7 H                     0.185884
      8 C                    -0.348402
      9 H                     0.112359
     10 H                     0.126495
     11 H                     0.152022
     12 H                     0.206582
  ----------------------------------------
  Sum of atomic charges =     0.000000

                    Cartesian Multipole Moments
 -----------------------------------------------------------------
    Charge (ESU x 10^10)
                -0.0000
    Dipole Moment (Debye)
         X       0.2157      Y      -0.2053      Z      -0.4337
       Tot       0.5261
    Quadrupole Moments (Debye-Ang)
        XX     -47.4142     XY       0.3486     YY     -36.1419
        XZ      -0.1064     YZ      -0.3470     ZZ     -42.4007

 Total job time:  10.11s(wall), 542.81s(cpu)
        *  Thank you very much for using Q-Chem.  Have a nice day.  *
