 Q-Chem 5.4, Q-Chem, Inc., Pleasanton, CA (2021)
 Q-Chem 5.4.0 for Intel X86 EM64T Linux

User input:
--------------------------------------------------------------
$molecule
0 1
C	-0.335053	-0.278098	-0.209169
S	0.174647	0.329602	1.371331
C	1.227347	1.584202	0.695731
C	0.306347	0.486502	-1.194569
C	1.154847	1.497902	-0.702669
H	0.154847	0.306002	-2.269069
H	1.721047	2.172802	-1.361769
C	-0.335053	-1.756298	-0.209169
H	-0.146953	-1.756898	-1.272669
H	0.636547	-2.195598	-0.037769
H	-1.135753	-2.467298	-0.350169
H	1.793347	2.258902	1.346831
$end

$rem
JOBTYPE		SP
EXCHANGE	HF
CORRELATION	pRIMP2
BASIS		cc-pvtz
METHOD		rimp2
AUX_BASIS	rimp2-cc-pvtz
SOLVENT_METHOD	PCM
PURECART	11111
SYMMETRY	false
MEM_TOTAL	110000
SCF_CONVERGENCE = 6
THRESH=10
GUI = 2
$end

$solvent
dielectric 4.90
$end
--------------------------------------------------------------

             Standard Nuclear Orientation (Angstroms)
    I     Atom           X                Y                Z
 ----------------------------------------------------------------
    1      C      -0.3350530000    -0.2780980000    -0.2091690000
    2      S       0.1746470000     0.3296020000     1.3713310000
    3      C       1.2273470000     1.5842020000     0.6957310000
    4      C       0.3063470000     0.4865020000    -1.1945690000
    5      C       1.1548470000     1.4979020000    -0.7026690000
    6      H       0.1548470000     0.3060020000    -2.2690690000
    7      H       1.7210470000     2.1728020000    -1.3617690000
    8      C      -0.3350530000    -1.7562980000    -0.2091690000
    9      H      -0.1469530000    -1.7568980000    -1.2726690000
   10      H       0.6365470000    -2.1955980000    -0.0377690000
   11      H      -1.1357530000    -2.4672980000    -0.3501690000
   12      H       1.7933470000     2.2589020000     1.3468310000
 ----------------------------------------------------------------

   10    -590.3441835922      7.86e-07  Convergence criterion met
 Total energy in the final basis set =     -590.3441835922
        RIMP2         total energy =      -591.3525790024 a.u.

                    Orbital Energies (a.u.)
 --------------------------------------------------------------

 Alpha MOs
 -- Occupied --
-91.9744 -11.2779 -11.2725 -11.2473 -11.2435 -11.2188  -8.9748  -6.6556
 -6.6549  -6.6545  -1.1622  -1.0369  -0.9754  -0.9127  -0.7577  -0.7264
 -0.6716  -0.5960  -0.5736  -0.5565  -0.5408  -0.4887  -0.4681  -0.4343
 -0.3426  -0.3126

          Ground-State Mulliken Net Atomic Charges

     Atom                 Charge (a.u.)
  ----------------------------------------
      1 C                    -0.022178
      2 S                     0.000093
      3 C                    -0.202997
      4 C                    -0.181922
      5 C                    -0.207933
      6 H                     0.180703
      7 H                     0.188076
      8 C                    -0.354356
      9 H                     0.115860
     10 H                     0.136885
     11 H                     0.142924
     12 H                     0.204845
  ----------------------------------------
  Sum of atomic charges =     0.000000

                    Cartesian Multipole Moments
 -----------------------------------------------------------------
    Charge (ESU x 10^10)
                 0.0000
    Dipole Moment (Debye)
         X       1.3457      Y      -0.1115      Z      -1.7561
       Tot       2.2153
    Quadrupole Moments (Debye-Ang)
        XX     -44.0383     XY       4.5342     YY     -40.2667
        XZ       0.7579     YZ       1.8587     ZZ     -41.7381

 Total job time:  10.41s(wall), 561.76s(cpu)
        *  Thank you very much for using Q-Chem.  Have a nice day.  *
