 Q-Chem 5.4, Q-Chem, Inc., Pleasanton, CA (2021)
 Q-Chem 5.4.0 for Intel X86 EM64T Linux

User input:
--------------------------------------------------------------
$molecule
0 1
C	-0.178311	-0.368118	-0.219989
S	0.092789	0.377282	1.360511
C	0.652889	1.916282	0.684911
C	0.162889	0.569782	-1.205389
C	0.614289	1.810382	-0.713489
H	0.082289	0.348282	-2.279889
H	0.915589	2.638182	-1.372589
C	-0.178311	-1.846318	-0.219989
H	0.190589	-1.846918	0.795011
H	-1.105411	-2.285618	0.117411
H	0.585589	-2.557318	-0.498189
H	0.953989	2.743882	1.336011
$end

$rem
JOBTYPE		SP
EXCHANGE	HF
CORRELATION	pRIMP2
BASIS		cc-pvtz
METHOD		rimp2
AUX_BASIS	rimp2-cc-pvtz
SOLVENT_METHOD	PCM
PURECART	11111
SYMMETRY	false
MEM_TOTAL	110000
SCF_CONVERGENCE = 6
THRESH=10
GUI = 2
$end

$solvent
dielectric 4.90
$end
--------------------------------------------------------------

             Standard Nuclear Orientation (Angstroms)
    I     Atom           X                Y                Z
 ----------------------------------------------------------------
    1      C      -0.1783110000    -0.3681180000    -0.2199890000
    2      S       0.0927890000     0.3772820000     1.3605110000
    3      C       0.6528890000     1.9162820000     0.6849110000
    4      C       0.1628890000     0.5697820000    -1.2053890000
    5      C       0.6142890000     1.8103820000    -0.7134890000
    6      H       0.0822890000     0.3482820000    -2.2798890000
    7      H       0.9155890000     2.6381820000    -1.3725890000
    8      C      -0.1783110000    -1.8463180000    -0.2199890000
    9      H       0.1905890000    -1.8469180000     0.7950110000
   10      H      -1.1054110000    -2.2856180000     0.1174110000
   11      H       0.5855890000    -2.5573180000    -0.4981890000
   12      H       0.9539890000     2.7438820000     1.3360110000
 ----------------------------------------------------------------

   10    -590.3611444676      6.11e-07  Convergence criterion met
 Total energy in the final basis set =     -590.3611444676
        RIMP2         total energy =      -591.3645599073 a.u.

                    Orbital Energies (a.u.)
 --------------------------------------------------------------

 Alpha MOs
 -- Occupied --
-91.9789 -11.2803 -11.2714 -11.2429 -11.2382 -11.2215  -8.9791  -6.6600
 -6.6594  -6.6588  -1.1592  -1.0394  -0.9736  -0.9166  -0.7594  -0.7208
 -0.6718  -0.5951  -0.5695  -0.5631  -0.5349  -0.4983  -0.4627  -0.4499
 -0.3456  -0.3097

          Ground-State Mulliken Net Atomic Charges

     Atom                 Charge (a.u.)
  ----------------------------------------
      1 C                     0.012120
      2 S                    -0.004937
      3 C                    -0.227689
      4 C                    -0.220890
      5 C                    -0.187580
      6 H                     0.184707
      7 H                     0.186084
      8 C                    -0.351806
      9 H                     0.118524
     10 H                     0.126618
     11 H                     0.158748
     12 H                     0.206102
  ----------------------------------------
  Sum of atomic charges =     0.000000

                    Cartesian Multipole Moments
 -----------------------------------------------------------------
    Charge (ESU x 10^10)
                -0.0000
    Dipole Moment (Debye)
         X       0.7334      Y      -0.1728      Z      -0.4669
       Tot       0.8864
    Quadrupole Moments (Debye-Ang)
        XX     -46.6206     XY       2.2330     YY     -37.2864
        XZ      -0.1338     YZ      -0.3172     ZZ     -42.2586

 Total job time:  10.65s(wall), 552.44s(cpu)
        *  Thank you very much for using Q-Chem.  Have a nice day.  *
