 Q-Chem 5.4, Q-Chem, Inc., Pleasanton, CA (2021)
 Q-Chem 5.4.0 for Intel X86 EM64T Linux

User input:
--------------------------------------------------------------
$molecule
0 1
C	-0.216158	-0.350804	-0.209652
S	0.118842	0.368096	1.370848
C	0.810942	1.852396	0.695248
C	0.205442	0.553796	-1.195052
C	0.763342	1.750296	-0.703152
H	0.105842	0.340196	-2.269552
H	1.135542	2.548796	-1.362252
C	-0.216158	-1.829004	-0.209652
H	-0.909958	-1.829604	-1.037352
H	0.539642	-2.268304	-0.843852
H	-0.838858	-2.540004	0.313048
H	1.183042	2.650596	1.346348
$end

$rem
JOBTYPE		SP
EXCHANGE	HF
CORRELATION	pRIMP2
BASIS		cc-pvtz
METHOD		rimp2
AUX_BASIS	rimp2-cc-pvtz
SOLVENT_METHOD	PCM
PURECART	11111
SYMMETRY	false
MEM_TOTAL	110000
SCF_CONVERGENCE = 6
THRESH=10
GUI = 2
$end

$solvent
dielectric 4.90
$end
--------------------------------------------------------------

             Standard Nuclear Orientation (Angstroms)
    I     Atom           X                Y                Z
 ----------------------------------------------------------------
    1      C      -0.2161580000    -0.3508040000    -0.2096520000
    2      S       0.1188420000     0.3680960000     1.3708480000
    3      C       0.8109420000     1.8523960000     0.6952480000
    4      C       0.2054420000     0.5537960000    -1.1950520000
    5      C       0.7633420000     1.7502960000    -0.7031520000
    6      H       0.1058420000     0.3401960000    -2.2695520000
    7      H       1.1355420000     2.5487960000    -1.3622520000
    8      C      -0.2161580000    -1.8290040000    -0.2096520000
    9      H      -0.9099580000    -1.8296040000    -1.0373520000
   10      H       0.5396420000    -2.2683040000    -0.8438520000
   11      H      -0.8388580000    -2.5400040000     0.3130480000
   12      H       1.1830420000     2.6505960000     1.3463480000
 ----------------------------------------------------------------

   10    -590.3602115694      6.75e-07  Convergence criterion met
 Total energy in the final basis set =     -590.3602115694
        RIMP2         total energy =      -591.3651320189 a.u.

                    Orbital Energies (a.u.)
 --------------------------------------------------------------

 Alpha MOs
 -- Occupied --
-91.9745 -11.2829 -11.2689 -11.2435 -11.2407 -11.2226  -8.9747  -6.6555
 -6.6549  -6.6545  -1.1579  -1.0378  -0.9726  -0.9180  -0.7547  -0.7237
 -0.6711  -0.5967  -0.5666  -0.5605  -0.5419  -0.5009  -0.4652  -0.4397
 -0.3450  -0.3047

          Ground-State Mulliken Net Atomic Charges

     Atom                 Charge (a.u.)
  ----------------------------------------
      1 C                     0.015270
      2 S                    -0.001952
      3 C                    -0.226128
      4 C                    -0.230903
      5 C                    -0.189171
      6 H                     0.181249
      7 H                     0.186482
      8 C                    -0.369238
      9 H                     0.125039
     10 H                     0.138720
     11 H                     0.167943
     12 H                     0.202691
  ----------------------------------------
  Sum of atomic charges =     0.000000

                    Cartesian Multipole Moments
 -----------------------------------------------------------------
    Charge (ESU x 10^10)
                -0.0000
    Dipole Moment (Debye)
         X       0.1427      Y      -0.4470      Z      -1.6574
       Tot       1.7226
    Quadrupole Moments (Debye-Ang)
        XX     -46.0680     XY       4.5838     YY     -37.7583
        XZ       0.0044     YZ       1.5776     ZZ     -41.8411

 Total job time:  10.48s(wall), 548.32s(cpu)
        *  Thank you very much for using Q-Chem.  Have a nice day.  *
