 Q-Chem 5.4, Q-Chem, Inc., Pleasanton, CA (2021)
 Q-Chem 5.4.0 for Intel X86 EM64T Linux

User input:
--------------------------------------------------------------
$molecule
0 1
C	-0.095196	-0.391505	-0.212476
S	0.042304	0.389695	1.368024
C	0.326704	2.002495	0.692424
C	0.077904	0.591395	-1.197876
C	0.307104	1.891595	-0.705976
H	0.037004	0.359295	-2.272376
H	0.460004	2.759095	-1.365076
C	-0.095196	-1.869705	-0.212476
H	0.840404	-1.870305	-0.751976
H	0.398104	-2.309005	0.642024
H	-0.501796	-2.580705	-0.916476
H	0.479504	2.869795	1.343524
$end

$rem
JOBTYPE		SP
EXCHANGE	HF
CORRELATION	pRIMP2
BASIS		cc-pvtz
METHOD		rimp2
AUX_BASIS	rimp2-cc-pvtz
SOLVENT_METHOD	PCM
PURECART	11111
SYMMETRY	false
MEM_TOTAL	110000
SCF_CONVERGENCE = 6
THRESH=10
GUI = 2
$end

$solvent
dielectric 4.90
$end
--------------------------------------------------------------

             Standard Nuclear Orientation (Angstroms)
    I     Atom           X                Y                Z
 ----------------------------------------------------------------
    1      C      -0.0951960000    -0.3915050000    -0.2124760000
    2      S       0.0423040000     0.3896950000     1.3680240000
    3      C       0.3267040000     2.0024950000     0.6924240000
    4      C       0.0779040000     0.5913950000    -1.1978760000
    5      C       0.3071040000     1.8915950000    -0.7059760000
    6      H       0.0370040000     0.3592950000    -2.2723760000
    7      H       0.4600040000     2.7590950000    -1.3650760000
    8      C      -0.0951960000    -1.8697050000    -0.2124760000
    9      H       0.8404040000    -1.8703050000    -0.7519760000
   10      H       0.3981040000    -2.3090050000     0.6420240000
   11      H      -0.5017960000    -2.5807050000    -0.9164760000
   12      H       0.4795040000     2.8697950000     1.3435240000
 ----------------------------------------------------------------

   10    -590.3724418725      6.17e-07  Convergence criterion met
 Total energy in the final basis set =     -590.3724418725
        RIMP2         total energy =      -591.3734302673 a.u.

                    Orbital Energies (a.u.)
 --------------------------------------------------------------

 Alpha MOs
 -- Occupied --
-91.9791 -11.2905 -11.2628 -11.2430 -11.2320 -11.2270  -8.9788  -6.6597
 -6.6592  -6.6586  -1.1572  -1.0399  -0.9717  -0.9188  -0.7543  -0.7228
 -0.6715  -0.5974  -0.5662  -0.5548  -0.5450  -0.4966  -0.4726  -0.4539
 -0.3459  -0.3003

          Ground-State Mulliken Net Atomic Charges

     Atom                 Charge (a.u.)
  ----------------------------------------
      1 C                     0.032151
      2 S                     0.000253
      3 C                    -0.245373
      4 C                    -0.237621
      5 C                    -0.190222
      6 H                     0.179853
      7 H                     0.185702
      8 C                    -0.366521
      9 H                     0.140323
     10 H                     0.137043
     11 H                     0.160944
     12 H                     0.203468
  ----------------------------------------
  Sum of atomic charges =     0.000000

                    Cartesian Multipole Moments
 -----------------------------------------------------------------
    Charge (ESU x 10^10)
                 0.0000
    Dipole Moment (Debye)
         X       0.8254      Y      -0.7624      Z      -1.4077
       Tot       1.8011
    Quadrupole Moments (Debye-Ang)
        XX     -47.9680     XY       0.3149     YY     -36.3330
        XZ       0.2751     YZ       1.7192     ZZ     -41.6845

 Total job time:  10.76s(wall), 573.08s(cpu)
        *  Thank you very much for using Q-Chem.  Have a nice day.  *
