 Q-Chem 5.4, Q-Chem, Inc., Pleasanton, CA (2021)
 Q-Chem 5.4.0 for Intel X86 EM64T Linux

User input:
--------------------------------------------------------------
$molecule
0 1
C	-0.213422	-0.350804	-0.214556
S	0.121578	0.368096	1.365944
C	0.813678	1.852396	0.690344
C	0.208178	0.553796	-1.199956
C	0.766078	1.750296	-0.708056
H	0.108578	0.340196	-2.274456
H	1.138278	2.548796	-1.367156
C	-0.213422	-1.829004	-0.214556
H	-1.277122	-1.829604	-0.027556
H	-0.384722	-2.268304	-1.186156
H	-0.072122	-2.540004	0.586044
H	1.185778	2.650596	1.341444
$end

$rem
JOBTYPE		SP
EXCHANGE	HF
CORRELATION	pRIMP2
BASIS		cc-pvtz
METHOD		rimp2
AUX_BASIS	rimp2-cc-pvtz
SOLVENT_METHOD	PCM
PURECART	11111
SYMMETRY	false
MEM_TOTAL	110000
SCF_CONVERGENCE = 6
THRESH=10
GUI = 2
$end

$solvent
dielectric 4.90
$end
--------------------------------------------------------------

             Standard Nuclear Orientation (Angstroms)
    I     Atom           X                Y                Z
 ----------------------------------------------------------------
    1      C      -0.2134220000    -0.3508040000    -0.2145560000
    2      S       0.1215780000     0.3680960000     1.3659440000
    3      C       0.8136780000     1.8523960000     0.6903440000
    4      C       0.2081780000     0.5537960000    -1.1999560000
    5      C       0.7660780000     1.7502960000    -0.7080560000
    6      H       0.1085780000     0.3401960000    -2.2744560000
    7      H       1.1382780000     2.5487960000    -1.3671560000
    8      C      -0.2134220000    -1.8290040000    -0.2145560000
    9      H      -1.2771220000    -1.8296040000    -0.0275560000
   10      H      -0.3847220000    -2.2683040000    -1.1861560000
   11      H      -0.0721220000    -2.5400040000     0.5860440000
   12      H       1.1857780000     2.6505960000     1.3414440000
 ----------------------------------------------------------------

   10    -590.3569133390      6.48e-07  Convergence criterion met
 Total energy in the final basis set =     -590.3569133390
        RIMP2         total energy =      -591.3611177910 a.u.

                    Orbital Energies (a.u.)
 --------------------------------------------------------------

 Alpha MOs
 -- Occupied --
-91.9768 -11.2842 -11.2675 -11.2430 -11.2362 -11.2233  -8.9769  -6.6578
 -6.6572  -6.6567  -1.1577  -1.0386  -0.9720  -0.9187  -0.7561  -0.7217
 -0.6699  -0.5966  -0.5632  -0.5560  -0.5501  -0.4923  -0.4669  -0.4540
 -0.3459  -0.2975

          Ground-State Mulliken Net Atomic Charges

     Atom                 Charge (a.u.)
  ----------------------------------------
      1 C                    -0.006434
      2 S                    -0.006179
      3 C                    -0.230896
      4 C                    -0.211583
      5 C                    -0.192478
      6 H                     0.183987
      7 H                     0.185465
      8 C                    -0.362912
      9 H                     0.133795
     10 H                     0.131994
     11 H                     0.170281
     12 H                     0.204959
  ----------------------------------------
  Sum of atomic charges =     0.000000

                    Cartesian Multipole Moments
 -----------------------------------------------------------------
    Charge (ESU x 10^10)
                -0.0000
    Dipole Moment (Debye)
         X      -0.1558      Y      -0.5709      Z      -0.9809
       Tot       1.1456
    Quadrupole Moments (Debye-Ang)
        XX     -46.4932     XY       4.8192     YY     -37.7008
        XZ       0.5254     YZ       0.3117     ZZ     -41.6590

 Total job time:  11.31s(wall), 543.91s(cpu)
        *  Thank you very much for using Q-Chem.  Have a nice day.  *
