 Q-Chem 5.4, Q-Chem, Inc., Pleasanton, CA (2021)
 Q-Chem 5.4.0 for Intel X86 EM64T Linux

User input:
--------------------------------------------------------------
$molecule
0 1
C	-0.423268	-0.216977	-0.215368
S	0.184232	0.293023	1.365132
C	1.438732	1.345723	0.689532
C	0.341132	0.424623	-1.200768
C	1.352432	1.273323	-0.708868
H	0.160632	0.273123	-2.275268
H	2.027232	1.839623	-1.367968
C	-0.166568	-1.672777	-0.215368
H	0.897132	-1.485777	-0.214868
H	-0.090368	-2.105377	0.771232
H	-0.043268	-2.372877	-1.028368
H	2.113332	1.911923	1.340632
$end

$rem
JOBTYPE		SP
EXCHANGE	HF
CORRELATION	pRIMP2
BASIS		cc-pvtz
METHOD		rimp2
AUX_BASIS	rimp2-cc-pvtz
SOLVENT_METHOD	PCM
PURECART	11111
SYMMETRY	false
MEM_TOTAL	110000
SCF_CONVERGENCE = 6
THRESH=10
GUI = 2
$end

$solvent
dielectric 4.90
$end
--------------------------------------------------------------

             Standard Nuclear Orientation (Angstroms)
    I     Atom           X                Y                Z
 ----------------------------------------------------------------
    1      C      -0.4232680000    -0.2169770000    -0.2153680000
    2      S       0.1842320000     0.2930230000     1.3651320000
    3      C       1.4387320000     1.3457230000     0.6895320000
    4      C       0.3411320000     0.4246230000    -1.2007680000
    5      C       1.3524320000     1.2733230000    -0.7088680000
    6      H       0.1606320000     0.2731230000    -2.2752680000
    7      H       2.0272320000     1.8396230000    -1.3679680000
    8      C      -0.1665680000    -1.6727770000    -0.2153680000
    9      H       0.8971320000    -1.4857770000    -0.2148680000
   10      H      -0.0903680000    -2.1053770000     0.7712320000
   11      H      -0.0432680000    -2.3728770000    -1.0283680000
   12      H       2.1133320000     1.9119230000     1.3406320000
 ----------------------------------------------------------------

   11    -590.3019093329      6.69e-07  Convergence criterion met
 Total energy in the final basis set =     -590.3019093329
        RIMP2         total energy =      -591.3170520253 a.u.

                    Orbital Energies (a.u.)
 --------------------------------------------------------------

 Alpha MOs
 -- Occupied --
-91.9778 -11.2904 -11.2625 -11.2499 -11.2467 -11.2196  -8.9785  -6.6593
 -6.6585  -6.6583  -1.1742  -1.0403  -0.9803  -0.9046  -0.7657  -0.7289
 -0.6748  -0.5958  -0.5701  -0.5670  -0.5309  -0.4947  -0.4639  -0.4473
 -0.3463  -0.2969

          Ground-State Mulliken Net Atomic Charges

     Atom                 Charge (a.u.)
  ----------------------------------------
      1 C                    -0.104951
      2 S                     0.017839
      3 C                    -0.173240
      4 C                    -0.104006
      5 C                    -0.237523
      6 H                     0.184148
      7 H                     0.187217
      8 C                    -0.348261
      9 H                     0.109762
     10 H                     0.119909
     11 H                     0.140120
     12 H                     0.208985
  ----------------------------------------
  Sum of atomic charges =     0.000000

                    Cartesian Multipole Moments
 -----------------------------------------------------------------
    Charge (ESU x 10^10)
                 0.0000
    Dipole Moment (Debye)
         X       2.6603      Y       0.1878      Z      -1.0552
       Tot       2.8681
    Quadrupole Moments (Debye-Ang)
        XX     -43.6339     XY       3.8272     YY     -42.3621
        XZ       0.4531     YZ       0.9833     ZZ     -40.7785

 Total job time:  13.61s(wall), 634.66s(cpu)
        *  Thank you very much for using Q-Chem.  Have a nice day.  *
