 Q-Chem 5.4, Q-Chem, Inc., Pleasanton, CA (2021)
 Q-Chem 5.4.0 for Intel X86 EM64T Linux

User input:
--------------------------------------------------------------
$molecule
0 1
C	-0.391508	-0.214208	-0.214556
S	0.215992	0.295792	1.365944
C	1.470492	1.348492	0.690344
C	0.372892	0.427392	-1.199956
C	1.384192	1.276092	-0.708056
H	0.192392	0.275892	-2.274456
H	2.058992	1.842392	-1.367156
C	-0.391508	-1.692408	-0.214556
H	-1.455208	-1.693008	-0.027556
H	-0.562808	-2.131708	-1.186156
H	-0.250208	-2.403408	0.586044
H	2.145092	1.914692	1.341444
$end

$rem
JOBTYPE		SP
EXCHANGE	HF
CORRELATION	pRIMP2
BASIS		cc-pvtz
METHOD		rimp2
AUX_BASIS	rimp2-cc-pvtz
SOLVENT_METHOD	PCM
PURECART	11111
SYMMETRY	false
MEM_TOTAL	110000
SCF_CONVERGENCE = 6
THRESH=10
GUI = 2
$end

$solvent
dielectric 4.90
$end
--------------------------------------------------------------

             Standard Nuclear Orientation (Angstroms)
    I     Atom           X                Y                Z
 ----------------------------------------------------------------
    1      C      -0.3915080000    -0.2142080000    -0.2145560000
    2      S       0.2159920000     0.2957920000     1.3659440000
    3      C       1.4704920000     1.3484920000     0.6903440000
    4      C       0.3728920000     0.4273920000    -1.1999560000
    5      C       1.3841920000     1.2760920000    -0.7080560000
    6      H       0.1923920000     0.2758920000    -2.2744560000
    7      H       2.0589920000     1.8423920000    -1.3671560000
    8      C      -0.3915080000    -1.6924080000    -0.2145560000
    9      H      -1.4552080000    -1.6930080000    -0.0275560000
   10      H      -0.5628080000    -2.1317080000    -1.1861560000
   11      H      -0.2502080000    -2.4034080000     0.5860440000
   12      H       2.1450920000     1.9146920000     1.3414440000
 ----------------------------------------------------------------

   11    -590.3143299509      6.01e-07  Convergence criterion met
 Total energy in the final basis set =     -590.3143299509
        RIMP2         total energy =      -591.3271041427 a.u.

                    Orbital Energies (a.u.)
 --------------------------------------------------------------

 Alpha MOs
 -- Occupied --
-91.9756 -11.2828 -11.2610 -11.2486 -11.2439 -11.2134  -8.9761  -6.6569
 -6.6562  -6.6558  -1.1630  -1.0352  -0.9759  -0.9125  -0.7609  -0.7248
 -0.6692  -0.5925  -0.5601  -0.5571  -0.5530  -0.4914  -0.4574  -0.4411
 -0.3447  -0.2953

          Ground-State Mulliken Net Atomic Charges

     Atom                 Charge (a.u.)
  ----------------------------------------
      1 C                    -0.080712
      2 S                     0.002823
      3 C                    -0.183399
      4 C                    -0.132172
      5 C                    -0.217248
      6 H                     0.186915
      7 H                     0.185105
      8 C                    -0.378927
      9 H                     0.126217
     10 H                     0.123827
     11 H                     0.160757
     12 H                     0.206814
  ----------------------------------------
  Sum of atomic charges =     0.000000

                    Cartesian Multipole Moments
 -----------------------------------------------------------------
    Charge (ESU x 10^10)
                 0.0000
    Dipole Moment (Debye)
         X       1.0644      Y      -0.0948      Z      -1.0361
       Tot       1.4885
    Quadrupole Moments (Debye-Ang)
        XX     -42.7951     XY       5.7961     YY     -42.0713
        XZ       0.8341     YZ       0.2003     ZZ     -41.0587

 Total job time:  11.57s(wall), 610.23s(cpu)
        *  Thank you very much for using Q-Chem.  Have a nice day.  *
