 Q-Chem 5.4, Q-Chem, Inc., Pleasanton, CA (2021)
 Q-Chem 5.4.0 for Intel X86 EM64T Linux

User input:
--------------------------------------------------------------
$molecule
0 1
C	0.005328	-0.399361	-0.216471
S	0.005128	0.393839	1.364029
C	0.005128	2.031539	0.688429
C	0.005128	0.598639	-1.201871
C	0.005028	1.918839	-0.709971
H	0.005228	0.362939	-2.276371
H	0.005028	2.799839	-1.369071
C	0.005328	-1.877561	-0.216471
H	-0.930272	-1.878161	0.323029
H	-0.487972	-2.316861	-1.070971
H	0.411928	-2.588561	0.487529
H	0.005028	2.912239	1.339529
$end

$rem
JOBTYPE		SP
EXCHANGE	HF
CORRELATION	pRIMP2
BASIS		cc-pvtz
METHOD		rimp2
AUX_BASIS	rimp2-cc-pvtz
SOLVENT_METHOD	PCM
PURECART	11111
SYMMETRY	false
MEM_TOTAL	110000
SCF_CONVERGENCE = 6
THRESH=10
GUI = 2
$end

$solvent
dielectric 4.90
$end
--------------------------------------------------------------

             Standard Nuclear Orientation (Angstroms)
    I     Atom           X                Y                Z
 ----------------------------------------------------------------
    1      C       0.0053280000    -0.3993610000    -0.2164710000
    2      S       0.0051280000     0.3938390000     1.3640290000
    3      C       0.0051280000     2.0315390000     0.6884290000
    4      C       0.0051280000     0.5986390000    -1.2018710000
    5      C       0.0050280000     1.9188390000    -0.7099710000
    6      H       0.0052280000     0.3629390000    -2.2763710000
    7      H       0.0050280000     2.7998390000    -1.3690710000
    8      C       0.0053280000    -1.8775610000    -0.2164710000
    9      H      -0.9302720000    -1.8781610000     0.3230290000
   10      H      -0.4879720000    -2.3168610000    -1.0709710000
   11      H       0.4119280000    -2.5885610000     0.4875290000
   12      H       0.0050280000     2.9122390000     1.3395290000
 ----------------------------------------------------------------

   10    -590.3735617380      6.09e-07  Convergence criterion met
 Total energy in the final basis set =     -590.3735617380
        RIMP2         total energy =      -591.3737331482 a.u.

                    Orbital Energies (a.u.)
 --------------------------------------------------------------

 Alpha MOs
 -- Occupied --
-91.9773 -11.2900 -11.2649 -11.2428 -11.2339 -11.2271  -8.9774  -6.6583
 -6.6578  -6.6572  -1.1573  -1.0405  -0.9716  -0.9197  -0.7560  -0.7210
 -0.6709  -0.5987  -0.5674  -0.5591  -0.5418  -0.4939  -0.4740  -0.4541
 -0.3465  -0.3016

          Ground-State Mulliken Net Atomic Charges

     Atom                 Charge (a.u.)
  ----------------------------------------
      1 C                     0.017995
      2 S                    -0.010651
      3 C                    -0.239566
      4 C                    -0.228683
      5 C                    -0.190206
      6 H                     0.184794
      7 H                     0.185250
      8 C                    -0.355413
      9 H                     0.132854
     10 H                     0.132947
     11 H                     0.166193
     12 H                     0.204485
  ----------------------------------------
  Sum of atomic charges =     0.000000

                    Cartesian Multipole Moments
 -----------------------------------------------------------------
    Charge (ESU x 10^10)
                -0.0000
    Dipole Moment (Debye)
         X      -0.6202      Y      -0.6702      Z      -0.7444
       Tot       1.1781
    Quadrupole Moments (Debye-Ang)
        XX     -48.1135     XY       1.1574     YY     -35.8433
        XZ       0.4681     YZ      -0.0651     ZZ     -42.0341

 Total job time:  10.15s(wall), 550.13s(cpu)
        *  Thank you very much for using Q-Chem.  Have a nice day.  *
