 Q-Chem 5.4, Q-Chem, Inc., Pleasanton, CA (2021)
 Q-Chem 5.4.0 for Intel X86 EM64T Linux

User input:
--------------------------------------------------------------
$molecule
0 1
C	-0.264675	-0.329934	-0.213418
S	0.131725	0.357066	1.367082
C	0.950525	1.775366	0.691482
C	0.234125	0.534466	-1.198818
C	0.894225	1.677866	-0.706918
H	0.116325	0.330366	-2.273318
H	1.334625	2.440766	-1.366018
C	-0.264675	-1.808134	-0.213418
H	0.750325	-1.808734	-0.582318
H	0.072725	-2.247434	0.713682
H	-0.542875	-2.519134	-0.977318
H	1.390825	2.538166	1.342582
$end

$rem
JOBTYPE		SP
EXCHANGE	HF
CORRELATION	pRIMP2
BASIS		cc-pvtz
METHOD		rimp2
AUX_BASIS	rimp2-cc-pvtz
SOLVENT_METHOD	PCM
PURECART	11111
SYMMETRY	false
MEM_TOTAL	110000
SCF_CONVERGENCE = 6
THRESH=10
GUI = 2
$end

$solvent
dielectric 4.90
$end
--------------------------------------------------------------

             Standard Nuclear Orientation (Angstroms)
    I     Atom           X                Y                Z
 ----------------------------------------------------------------
    1      C      -0.2646750000    -0.3299340000    -0.2134180000
    2      S       0.1317250000     0.3570660000     1.3670820000
    3      C       0.9505250000     1.7753660000     0.6914820000
    4      C       0.2341250000     0.5344660000    -1.1988180000
    5      C       0.8942250000     1.6778660000    -0.7069180000
    6      H       0.1163250000     0.3303660000    -2.2733180000
    7      H       1.3346250000     2.4407660000    -1.3660180000
    8      C      -0.2646750000    -1.8081340000    -0.2134180000
    9      H       0.7503250000    -1.8087340000    -0.5823180000
   10      H       0.0727250000    -2.2474340000     0.7136820000
   11      H      -0.5428750000    -2.5191340000    -0.9773180000
   12      H       1.3908250000     2.5381660000     1.3425820000
 ----------------------------------------------------------------

   10    -590.3575402973      6.36e-07  Convergence criterion met
 Total energy in the final basis set =     -590.3575402973
        RIMP2         total energy =      -591.3617895040 a.u.

                    Orbital Energies (a.u.)
 --------------------------------------------------------------

 Alpha MOs
 -- Occupied --
-91.9796 -11.2864 -11.2663 -11.2436 -11.2329 -11.2254  -8.9794  -6.6602
 -6.6597  -6.6592  -1.1603  -1.0395  -0.9729  -0.9151  -0.7562  -0.7232
 -0.6712  -0.5967  -0.5665  -0.5547  -0.5447  -0.4898  -0.4746  -0.4564
 -0.3460  -0.2975

          Ground-State Mulliken Net Atomic Charges

     Atom                 Charge (a.u.)
  ----------------------------------------
      1 C                     0.004418
      2 S                     0.005181
      3 C                    -0.237171
      4 C                    -0.217952
      5 C                    -0.194954
      6 H                     0.178157
      7 H                     0.186829
      8 C                    -0.366070
      9 H                     0.147958
     10 H                     0.134017
     11 H                     0.155473
     12 H                     0.204116
  ----------------------------------------
  Sum of atomic charges =     0.000000

                    Cartesian Multipole Moments
 -----------------------------------------------------------------
    Charge (ESU x 10^10)
                 0.0000
    Dipole Moment (Debye)
         X       1.2942      Y      -0.6856      Z      -1.2801
       Tot       1.9452
    Quadrupole Moments (Debye-Ang)
        XX     -46.4477     XY       2.6848     YY     -38.5642
        XZ       0.3689     YZ       1.4718     ZZ     -41.4970

 Total job time:  10.51s(wall), 549.59s(cpu)
        *  Thank you very much for using Q-Chem.  Have a nice day.  *
