 Q-Chem 5.4, Q-Chem, Inc., Pleasanton, CA (2021)
 Q-Chem 5.4.0 for Intel X86 EM64T Linux

User input:
--------------------------------------------------------------
$molecule
0 1
C	-0.173708	-0.368118	-0.218828
S	0.097392	0.377282	1.361672
C	0.657492	1.916282	0.686072
C	0.167492	0.569782	-1.204228
C	0.618892	1.810382	-0.712328
H	0.086892	0.348282	-2.278728
H	0.920192	2.638182	-1.371428
C	-0.173708	-1.846318	-0.218828
H	-0.714208	-1.846918	0.716172
H	-1.028108	-2.285618	-0.712128
H	0.530392	-2.557318	0.187572
H	0.958592	2.743882	1.337172
$end

$rem
JOBTYPE		SP
EXCHANGE	HF
CORRELATION	pRIMP2
BASIS		cc-pvtz
METHOD		rimp2
AUX_BASIS	rimp2-cc-pvtz
SOLVENT_METHOD	PCM
PURECART	11111
SYMMETRY	false
MEM_TOTAL	110000
SCF_CONVERGENCE = 6
THRESH=10
GUI = 2
$end

$solvent
dielectric 4.90
$end
--------------------------------------------------------------

             Standard Nuclear Orientation (Angstroms)
    I     Atom           X                Y                Z
 ----------------------------------------------------------------
    1      C      -0.1737080000    -0.3681180000    -0.2188280000
    2      S       0.0973920000     0.3772820000     1.3616720000
    3      C       0.6574920000     1.9162820000     0.6860720000
    4      C       0.1674920000     0.5697820000    -1.2042280000
    5      C       0.6188920000     1.8103820000    -0.7123280000
    6      H       0.0868920000     0.3482820000    -2.2787280000
    7      H       0.9201920000     2.6381820000    -1.3714280000
    8      C      -0.1737080000    -1.8463180000    -0.2188280000
    9      H      -0.7142080000    -1.8469180000     0.7161720000
   10      H      -1.0281080000    -2.2856180000    -0.7121280000
   11      H       0.5303920000    -2.5573180000     0.1875720000
   12      H       0.9585920000     2.7438820000     1.3371720000
 ----------------------------------------------------------------

   10    -590.3629180630      6.49e-07  Convergence criterion met
 Total energy in the final basis set =     -590.3629180630
        RIMP2         total energy =      -591.3666008361 a.u.

                    Orbital Energies (a.u.)
 --------------------------------------------------------------

 Alpha MOs
 -- Occupied --
-91.9796 -11.2795 -11.2719 -11.2434 -11.2384 -11.2223  -8.9796  -6.6604
 -6.6599  -6.6594  -1.1585  -1.0387  -0.9736  -0.9180  -0.7589  -0.7209
 -0.6713  -0.5962  -0.5681  -0.5618  -0.5411  -0.4896  -0.4645  -0.4512
 -0.3464  -0.3095

          Ground-State Mulliken Net Atomic Charges

     Atom                 Charge (a.u.)
  ----------------------------------------
      1 C                    -0.006902
      2 S                    -0.002365
      3 C                    -0.224071
      4 C                    -0.205755
      5 C                    -0.193483
      6 H                     0.184240
      7 H                     0.186364
      8 C                    -0.340416
      9 H                     0.112473
     10 H                     0.128671
     11 H                     0.155447
     12 H                     0.205798
  ----------------------------------------
  Sum of atomic charges =     0.000000

                    Cartesian Multipole Moments
 -----------------------------------------------------------------
    Charge (ESU x 10^10)
                -0.0000
    Dipole Moment (Debye)
         X       0.2001      Y      -0.1319      Z      -0.5502
       Tot       0.6001
    Quadrupole Moments (Debye-Ang)
        XX     -46.5456     XY       3.4560     YY     -37.1848
        XZ       0.5633     YZ      -0.3245     ZZ     -42.1774

 Total job time:  10.03s(wall), 549.24s(cpu)
        *  Thank you very much for using Q-Chem.  Have a nice day.  *
