 Q-Chem 5.4, Q-Chem, Inc., Pleasanton, CA (2021)
 Q-Chem 5.4.0 for Intel X86 EM64T Linux

User input:
--------------------------------------------------------------
$molecule
0 1
C	0.005624	-0.399361	-0.213580
S	0.005424	0.393839	1.366920
C	0.005424	2.031539	0.691320
C	0.005424	0.598639	-1.198980
C	0.005324	1.918839	-0.707080
H	0.005524	0.362939	-2.273480
H	0.005324	2.799839	-1.366180
C	0.005624	-1.877561	-0.213580
H	-1.074376	-1.878161	-0.214080
H	0.005624	-2.316861	-1.200180
H	0.005724	-2.588561	0.599420
H	0.005324	2.912239	1.342420
$end

$rem
JOBTYPE		SP
EXCHANGE	HF
CORRELATION	pRIMP2
BASIS		cc-pvtz
METHOD		rimp2
AUX_BASIS	rimp2-cc-pvtz
SOLVENT_METHOD	PCM
PURECART	11111
SYMMETRY	false
MEM_TOTAL	110000
SCF_CONVERGENCE = 6
THRESH=10
GUI = 2
$end

$solvent
dielectric 4.90
$end
--------------------------------------------------------------

             Standard Nuclear Orientation (Angstroms)
    I     Atom           X                Y                Z
 ----------------------------------------------------------------
    1      C       0.0056240000    -0.3993610000    -0.2135800000
    2      S       0.0054240000     0.3938390000     1.3669200000
    3      C       0.0054240000     2.0315390000     0.6913200000
    4      C       0.0054240000     0.5986390000    -1.1989800000
    5      C       0.0053240000     1.9188390000    -0.7070800000
    6      H       0.0055240000     0.3629390000    -2.2734800000
    7      H       0.0053240000     2.7998390000    -1.3661800000
    8      C       0.0056240000    -1.8775610000    -0.2135800000
    9      H      -1.0743760000    -1.8781610000    -0.2140800000
   10      H       0.0056240000    -2.3168610000    -1.2001800000
   11      H       0.0057240000    -2.5885610000     0.5994200000
   12      H       0.0053240000     2.9122390000     1.3424200000
 ----------------------------------------------------------------

   10    -590.3738420420      6.46e-07  Convergence criterion met
 Total energy in the final basis set =     -590.3738420420
        RIMP2         total energy =      -591.3737807674 a.u.

                    Orbital Energies (a.u.)
 --------------------------------------------------------------

 Alpha MOs
 -- Occupied --
-91.9772 -11.2931 -11.2615 -11.2429 -11.2318 -11.2290  -8.9772  -6.6581
 -6.6576  -6.6570  -1.1568  -1.0409  -0.9709  -0.9201  -0.7543  -0.7217
 -0.6707  -0.5992  -0.5656  -0.5554  -0.5486  -0.4926  -0.4767  -0.4545
 -0.3464  -0.2977

          Ground-State Mulliken Net Atomic Charges

     Atom                 Charge (a.u.)
  ----------------------------------------
      1 C                     0.031266
      2 S                    -0.006664
      3 C                    -0.251756
      4 C                    -0.244792
      5 C                    -0.186216
      6 H                     0.181248
      7 H                     0.185591
      8 C                    -0.368214
      9 H                     0.143715
     10 H                     0.136533
     11 H                     0.175637
     12 H                     0.203652
  ----------------------------------------
  Sum of atomic charges =     0.000000

                    Cartesian Multipole Moments
 -----------------------------------------------------------------
    Charge (ESU x 10^10)
                -0.0000
    Dipole Moment (Debye)
         X      -0.7496      Y      -0.9297      Z      -1.0820
       Tot       1.6115
    Quadrupole Moments (Debye-Ang)
        XX     -48.3277     XY       1.4884     YY     -35.8006
        XZ       0.1727     YZ       0.5663     ZZ     -41.8174

 Total job time:  9.96s(wall), 535.54s(cpu)
        *  Thank you very much for using Q-Chem.  Have a nice day.  *
