 Q-Chem 5.4, Q-Chem, Inc., Pleasanton, CA (2021)
 Q-Chem 5.4.0 for Intel X86 EM64T Linux

User input:
--------------------------------------------------------------
$molecule
0 1
C	-0.222584	-0.350804	-0.210119
S	0.112416	0.368096	1.370381
C	0.804516	1.852396	0.694781
C	0.199016	0.553796	-1.195519
C	0.756916	1.750296	-0.703619
H	0.099416	0.340196	-2.270019
H	1.129116	2.548796	-1.362719
C	-0.222584	-1.829004	-0.210119
H	0.317916	-1.829604	-1.145119
H	0.631816	-2.268304	0.283181
H	-0.926684	-2.540004	-0.616519
H	1.176616	2.650596	1.345881
$end

$rem
JOBTYPE		SP
EXCHANGE	HF
CORRELATION	pRIMP2
BASIS		cc-pvtz
METHOD		rimp2
AUX_BASIS	rimp2-cc-pvtz
SOLVENT_METHOD	PCM
PURECART	11111
SYMMETRY	false
MEM_TOTAL	110000
SCF_CONVERGENCE = 6
THRESH=10
GUI = 2
$end

$solvent
dielectric 4.90
$end
--------------------------------------------------------------

             Standard Nuclear Orientation (Angstroms)
    I     Atom           X                Y                Z
 ----------------------------------------------------------------
    1      C      -0.2225840000    -0.3508040000    -0.2101190000
    2      S       0.1124160000     0.3680960000     1.3703810000
    3      C       0.8045160000     1.8523960000     0.6947810000
    4      C       0.1990160000     0.5537960000    -1.1955190000
    5      C       0.7569160000     1.7502960000    -0.7036190000
    6      H       0.0994160000     0.3401960000    -2.2700190000
    7      H       1.1291160000     2.5487960000    -1.3627190000
    8      C      -0.2225840000    -1.8290040000    -0.2101190000
    9      H       0.3179160000    -1.8296040000    -1.1451190000
   10      H       0.6318160000    -2.2683040000     0.2831810000
   11      H      -0.9266840000    -2.5400040000    -0.6165190000
   12      H       1.1766160000     2.6505960000     1.3458810000
 ----------------------------------------------------------------

   10    -590.3618295593      6.40e-07  Convergence criterion met
 Total energy in the final basis set =     -590.3618295593
        RIMP2         total energy =      -591.3661330221 a.u.

                    Orbital Energies (a.u.)
 --------------------------------------------------------------

 Alpha MOs
 -- Occupied --
-91.9765 -11.2829 -11.2695 -11.2430 -11.2396 -11.2222  -8.9765  -6.6574
 -6.6568  -6.6564  -1.1589  -1.0378  -0.9734  -0.9161  -0.7555  -0.7244
 -0.6717  -0.5969  -0.5698  -0.5565  -0.5424  -0.4933  -0.4689  -0.4435
 -0.3442  -0.3078

          Ground-State Mulliken Net Atomic Charges

     Atom                 Charge (a.u.)
  ----------------------------------------
      1 C                     0.017244
      2 S                    -0.003349
      3 C                    -0.225805
      4 C                    -0.218808
      5 C                    -0.196374
      6 H                     0.180803
      7 H                     0.187151
      8 C                    -0.365914
      9 H                     0.130544
     10 H                     0.139431
     11 H                     0.151398
     12 H                     0.203680
  ----------------------------------------
  Sum of atomic charges =     0.000000

                    Cartesian Multipole Moments
 -----------------------------------------------------------------
    Charge (ESU x 10^10)
                -0.0000
    Dipole Moment (Debye)
         X       0.9606      Y      -0.3794      Z      -1.6766
       Tot       1.9692
    Quadrupole Moments (Debye-Ang)
        XX     -46.3238     XY       2.8689     YY     -37.9460
        XZ       0.6267     YZ       1.9863     ZZ     -41.7781

 Total job time:  10.10s(wall), 557.41s(cpu)
        *  Thank you very much for using Q-Chem.  Have a nice day.  *
