 Q-Chem 5.4, Q-Chem, Inc., Pleasanton, CA (2021)
 Q-Chem 5.4.0 for Intel X86 EM64T Linux

User input:
--------------------------------------------------------------
$molecule
0 1
C	-0.223859	-0.350804	-0.211595
S	0.111141	0.368096	1.368905
C	0.803241	1.852396	0.693305
C	0.197741	0.553796	-1.196995
C	0.755641	1.750296	-0.705095
H	0.098141	0.340196	-2.271495
H	1.127841	2.548796	-1.364195
C	-0.223859	-1.829004	-0.211595
H	0.603841	-1.829604	-0.905395
H	0.410341	-2.268304	0.544205
H	-0.746559	-2.540004	-0.834295
H	1.175341	2.650596	1.344405
$end

$rem
JOBTYPE		SP
EXCHANGE	HF
CORRELATION	pRIMP2
BASIS		cc-pvtz
METHOD		rimp2
AUX_BASIS	rimp2-cc-pvtz
SOLVENT_METHOD	PCM
PURECART	11111
SYMMETRY	false
MEM_TOTAL	110000
SCF_CONVERGENCE = 6
THRESH=10
GUI = 2
$end

$solvent
dielectric 4.90
$end
--------------------------------------------------------------

             Standard Nuclear Orientation (Angstroms)
    I     Atom           X                Y                Z
 ----------------------------------------------------------------
    1      C      -0.2238590000    -0.3508040000    -0.2115950000
    2      S       0.1111410000     0.3680960000     1.3689050000
    3      C       0.8032410000     1.8523960000     0.6933050000
    4      C       0.1977410000     0.5537960000    -1.1969950000
    5      C       0.7556410000     1.7502960000    -0.7050950000
    6      H       0.0981410000     0.3401960000    -2.2714950000
    7      H       1.1278410000     2.5487960000    -1.3641950000
    8      C      -0.2238590000    -1.8290040000    -0.2115950000
    9      H       0.6038410000    -1.8296040000    -0.9053950000
   10      H       0.4103410000    -2.2683040000     0.5442050000
   11      H      -0.7465590000    -2.5400040000    -0.8342950000
   12      H       1.1753410000     2.6505960000     1.3444050000
 ----------------------------------------------------------------

   10    -590.3616329630      6.25e-07  Convergence criterion met
 Total energy in the final basis set =     -590.3616329630
        RIMP2         total energy =      -591.3654596179 a.u.

                    Orbital Energies (a.u.)
 --------------------------------------------------------------

 Alpha MOs
 -- Occupied --
-91.9786 -11.2858 -11.2664 -11.2432 -11.2352 -11.2239  -8.9784  -6.6593
 -6.6588  -6.6582  -1.1590  -1.0387  -0.9729  -0.9160  -0.7554  -0.7236
 -0.6713  -0.5970  -0.5674  -0.5545  -0.5454  -0.4914  -0.4714  -0.4516
 -0.3450  -0.3019

          Ground-State Mulliken Net Atomic Charges

     Atom                 Charge (a.u.)
  ----------------------------------------
      1 C                     0.013910
      2 S                     0.001081
      3 C                    -0.232743
      4 C                    -0.218792
      5 C                    -0.196795
      6 H                     0.179576
      7 H                     0.186550
      8 C                    -0.369790
      9 H                     0.141245
     10 H                     0.137773
     11 H                     0.154440
     12 H                     0.203544
  ----------------------------------------
  Sum of atomic charges =     0.000000

                    Cartesian Multipole Moments
 -----------------------------------------------------------------
    Charge (ESU x 10^10)
                -0.0000
    Dipole Moment (Debye)
         X       1.0882      Y      -0.5772      Z      -1.5042
       Tot       1.9442
    Quadrupole Moments (Debye-Ang)
        XX     -46.7046     XY       2.4282     YY     -37.9565
        XZ       0.5415     YZ       1.8029     ZZ     -41.5973

 Total job time:  10.43s(wall), 567.39s(cpu)
        *  Thank you very much for using Q-Chem.  Have a nice day.  *
