 Q-Chem 5.4, Q-Chem, Inc., Pleasanton, CA (2021)
 Q-Chem 5.4.0 for Intel X86 EM64T Linux

User input:
--------------------------------------------------------------
$molecule
0 1
C	-0.136845	-0.381707	-0.209570
S	0.068255	0.384493	1.370930
C	0.492055	1.966393	0.695330
C	0.121255	0.582293	-1.194970
C	0.462855	1.857593	-0.703070
H	0.060355	0.354693	-2.269470
H	0.690855	2.708493	-1.362170
C	-0.136845	-1.859907	-0.209570
H	0.233055	-1.860507	-1.224270
H	0.790255	-2.299207	0.127930
H	-0.900845	-2.570907	-0.487470
H	0.719955	2.817093	1.346430
$end

$rem
JOBTYPE		SP
EXCHANGE	HF
CORRELATION	pRIMP2
BASIS		cc-pvtz
METHOD		rimp2
AUX_BASIS	rimp2-cc-pvtz
SOLVENT_METHOD	PCM
PURECART	11111
SYMMETRY	false
MEM_TOTAL	110000
SCF_CONVERGENCE = 6
THRESH=10
GUI = 2
$end

$solvent
dielectric 4.90
$end
--------------------------------------------------------------

             Standard Nuclear Orientation (Angstroms)
    I     Atom           X                Y                Z
 ----------------------------------------------------------------
    1      C      -0.1368450000    -0.3817070000    -0.2095700000
    2      S       0.0682550000     0.3844930000     1.3709300000
    3      C       0.4920550000     1.9663930000     0.6953300000
    4      C       0.1212550000     0.5822930000    -1.1949700000
    5      C       0.4628550000     1.8575930000    -0.7030700000
    6      H       0.0603550000     0.3546930000    -2.2694700000
    7      H       0.6908550000     2.7084930000    -1.3621700000
    8      C      -0.1368450000    -1.8599070000    -0.2095700000
    9      H       0.2330550000    -1.8605070000    -1.2242700000
   10      H       0.7902550000    -2.2992070000     0.1279300000
   11      H      -0.9008450000    -2.5709070000    -0.4874700000
   12      H       0.7199550000     2.8170930000     1.3464300000
 ----------------------------------------------------------------

   10    -590.3700784640      5.91e-07  Convergence criterion met
 Total energy in the final basis set =     -590.3700784640
        RIMP2         total energy =      -591.3727621594 a.u.

                    Orbital Energies (a.u.)
 --------------------------------------------------------------

 Alpha MOs
 -- Occupied --
-91.9756 -11.2847 -11.2687 -11.2429 -11.2401 -11.2233  -8.9757  -6.6565
 -6.6560  -6.6555  -1.1576  -1.0380  -0.9730  -0.9181  -0.7548  -0.7243
 -0.6722  -0.5973  -0.5704  -0.5583  -0.5401  -0.4981  -0.4681  -0.4400
 -0.3446  -0.3107

          Ground-State Mulliken Net Atomic Charges

     Atom                 Charge (a.u.)
  ----------------------------------------
      1 C                     0.030685
      2 S                    -0.007371
      3 C                    -0.228181
      4 C                    -0.224549
      5 C                    -0.196974
      6 H                     0.182317
      7 H                     0.186981
      8 C                    -0.361880
      9 H                     0.123589
     10 H                     0.137498
     11 H                     0.153913
     12 H                     0.203973
  ----------------------------------------
  Sum of atomic charges =     0.000000

                    Cartesian Multipole Moments
 -----------------------------------------------------------------
    Charge (ESU x 10^10)
                -0.0000
    Dipole Moment (Debye)
         X       0.6036      Y      -0.3615      Z      -1.7366
       Tot       1.8737
    Quadrupole Moments (Debye-Ang)
        XX     -47.0565     XY       1.9140     YY     -36.7330
        XZ       0.4405     YZ       2.0980     ZZ     -41.9803

 Total job time:  10.23s(wall), 544.92s(cpu)
        *  Thank you very much for using Q-Chem.  Have a nice day.  *
