 Q-Chem 5.4, Q-Chem, Inc., Pleasanton, CA (2021)
 Q-Chem 5.4.0 for Intel X86 EM64T Linux

User input:
--------------------------------------------------------------
$molecule
0 1
C	-0.105850	-0.392441	-0.215368
S	0.031650	0.388759	1.365132
C	0.316050	2.001559	0.689532
C	0.067250	0.590459	-1.200768
C	0.296450	1.890659	-0.708868
H	0.026350	0.358359	-2.275268
H	0.449350	2.758159	-1.367968
C	0.022950	-1.865041	-0.215368
H	1.098950	-1.771541	-0.214868
H	0.061250	-2.302641	0.771232
H	0.084850	-2.573241	-1.028368
H	0.468850	2.868859	1.340632
$end

$rem
JOBTYPE		SP
EXCHANGE	HF
CORRELATION	pRIMP2
BASIS		cc-pvtz
METHOD		rimp2
AUX_BASIS	rimp2-cc-pvtz
SOLVENT_METHOD	PCM
PURECART	11111
SYMMETRY	false
MEM_TOTAL	110000
SCF_CONVERGENCE = 6
THRESH=10
GUI = 2
$end

$solvent
dielectric 4.90
$end
--------------------------------------------------------------

             Standard Nuclear Orientation (Angstroms)
    I     Atom           X                Y                Z
 ----------------------------------------------------------------
    1      C      -0.1058500000    -0.3924410000    -0.2153680000
    2      S       0.0316500000     0.3887590000     1.3651320000
    3      C       0.3160500000     2.0015590000     0.6895320000
    4      C       0.0672500000     0.5904590000    -1.2007680000
    5      C       0.2964500000     1.8906590000    -0.7088680000
    6      H       0.0263500000     0.3583590000    -2.2752680000
    7      H       0.4493500000     2.7581590000    -1.3679680000
    8      C       0.0229500000    -1.8650410000    -0.2153680000
    9      H       1.0989500000    -1.7715410000    -0.2148680000
   10      H       0.0612500000    -2.3026410000     0.7712320000
   11      H       0.0848500000    -2.5732410000    -1.0283680000
   12      H       0.4688500000     2.8688590000     1.3406320000
 ----------------------------------------------------------------

   10    -590.3718825901      6.56e-07  Convergence criterion met
 Total energy in the final basis set =     -590.3718825901
        RIMP2         total energy =      -591.3720709484 a.u.

                    Orbital Energies (a.u.)
 --------------------------------------------------------------

 Alpha MOs
 -- Occupied --
-91.9793 -11.2918 -11.2626 -11.2430 -11.2299 -11.2291  -8.9791  -6.6600
 -6.6596  -6.6589  -1.1581  -1.0411  -0.9714  -0.9185  -0.7551  -0.7221
 -0.6714  -0.5972  -0.5662  -0.5569  -0.5410  -0.4963  -0.4782  -0.4569
 -0.3469  -0.2973

          Ground-State Mulliken Net Atomic Charges

     Atom                 Charge (a.u.)
  ----------------------------------------
      1 C                     0.026353
      2 S                    -0.000351
      3 C                    -0.251394
      4 C                    -0.248162
      5 C                    -0.182426
      6 H                     0.179437
      7 H                     0.185987
      8 C                    -0.362004
      9 H                     0.147329
     10 H                     0.134711
     11 H                     0.166258
     12 H                     0.204263
  ----------------------------------------
  Sum of atomic charges =     0.000000

                    Cartesian Multipole Moments
 -----------------------------------------------------------------
    Charge (ESU x 10^10)
                 0.0000
    Dipole Moment (Debye)
         X       1.0780      Y      -0.7837      Z      -1.0496
       Tot       1.6965
    Quadrupole Moments (Debye-Ang)
        XX     -47.9808     XY      -0.1936     YY     -36.4610
        XZ      -0.1490     YZ       1.0788     ZZ     -41.7442

 Total job time:  34.67s(wall), 569.33s(cpu)
        *  Thank you very much for using Q-Chem.  Have a nice day.  *
