 Q-Chem 5.4, Q-Chem, Inc., Pleasanton, CA (2021)
 Q-Chem 5.4.0 for Intel X86 EM64T Linux

User input:
--------------------------------------------------------------
$molecule
0 1
C	-0.262039	-0.329934	-0.219296
S	0.134361	0.357066	1.361204
C	0.953161	1.775366	0.685604
C	0.236761	0.534466	-1.204696
C	0.896861	1.677866	-0.712796
H	0.118961	0.330366	-2.279196
H	1.337261	2.440766	-1.371896
C	-0.262039	-1.808134	-0.219296
H	0.431761	-1.808734	0.608404
H	-1.017839	-2.247434	0.414904
H	0.360661	-2.519134	-0.741996
H	1.393461	2.538166	1.336704
$end

$rem
JOBTYPE		SP
EXCHANGE	HF
CORRELATION	pRIMP2
BASIS		cc-pvtz
METHOD		rimp2
AUX_BASIS	rimp2-cc-pvtz
SOLVENT_METHOD	PCM
PURECART	11111
SYMMETRY	false
MEM_TOTAL	110000
SCF_CONVERGENCE = 6
THRESH=10
GUI = 2
$end

$solvent
dielectric 4.90
$end
--------------------------------------------------------------

             Standard Nuclear Orientation (Angstroms)
    I     Atom           X                Y                Z
 ----------------------------------------------------------------
    1      C      -0.2620390000    -0.3299340000    -0.2192960000
    2      S       0.1343610000     0.3570660000     1.3612040000
    3      C       0.9531610000     1.7753660000     0.6856040000
    4      C       0.2367610000     0.5344660000    -1.2046960000
    5      C       0.8968610000     1.6778660000    -0.7127960000
    6      H       0.1189610000     0.3303660000    -2.2791960000
    7      H       1.3372610000     2.4407660000    -1.3718960000
    8      C      -0.2620390000    -1.8081340000    -0.2192960000
    9      H       0.4317610000    -1.8087340000     0.6084040000
   10      H      -1.0178390000    -2.2474340000     0.4149040000
   11      H       0.3606610000    -2.5191340000    -0.7419960000
   12      H       1.3934610000     2.5381660000     1.3367040000
 ----------------------------------------------------------------

   10    -590.3521085515      6.38e-07  Convergence criterion met
 Total energy in the final basis set =     -590.3521085515
        RIMP2         total energy =      -591.3566368257 a.u.

                    Orbital Energies (a.u.)
 --------------------------------------------------------------

 Alpha MOs
 -- Occupied --
-91.9761 -11.2798 -11.2729 -11.2430 -11.2394 -11.2208  -8.9767  -6.6576
 -6.6570  -6.6564  -1.1610  -1.0394  -0.9739  -0.9147  -0.7595  -0.7217
 -0.6717  -0.5939  -0.5696  -0.5636  -0.5328  -0.4992  -0.4643  -0.4518
 -0.3458  -0.3038

          Ground-State Mulliken Net Atomic Charges

     Atom                 Charge (a.u.)
  ----------------------------------------
      1 C                     0.005828
      2 S                    -0.005637
      3 C                    -0.221177
      4 C                    -0.227214
      5 C                    -0.188357
      6 H                     0.183878
      7 H                     0.186854
      8 C                    -0.363205
      9 H                     0.131635
     10 H                     0.127918
     11 H                     0.164310
     12 H                     0.205169
  ----------------------------------------
  Sum of atomic charges =     0.000000

                    Cartesian Multipole Moments
 -----------------------------------------------------------------
    Charge (ESU x 10^10)
                 0.0000
    Dipole Moment (Debye)
         X       1.2271      Y      -0.2851      Z      -0.6009
       Tot       1.3958
    Quadrupole Moments (Debye-Ang)
        XX     -45.8708     XY       2.9049     YY     -38.5830
        XZ      -0.1776     YZ      -0.1086     ZZ     -42.0321

 Total job time:  10.32s(wall), 557.20s(cpu)
        *  Thank you very much for using Q-Chem.  Have a nice day.  *
