 Q-Chem 5.4, Q-Chem, Inc., Pleasanton, CA (2021)
 Q-Chem 5.4.0 for Intel X86 EM64T Linux

User input:
--------------------------------------------------------------
$molecule
0 1
C	-0.049352	-0.397395	-0.210801
S	0.019548	0.392805	1.369699
C	0.162248	2.024305	0.694099
C	0.037448	0.596805	-1.196201
C	0.152448	1.912005	-0.704301
H	0.016948	0.362105	-2.270701
H	0.229148	2.789605	-1.363401
C	-0.049352	-1.875595	-0.210801
H	0.645248	-1.876195	-1.037801
H	0.706448	-2.314895	0.423399
H	-0.672252	-2.586595	-0.733301
H	0.238948	2.901605	1.345199
$end

$rem
JOBTYPE		SP
EXCHANGE	HF
CORRELATION	pRIMP2
BASIS		cc-pvtz
METHOD		rimp2
AUX_BASIS	rimp2-cc-pvtz
SOLVENT_METHOD	PCM
PURECART	11111
SYMMETRY	false
MEM_TOTAL	110000
SCF_CONVERGENCE = 6
THRESH=10
GUI = 2
$end

$solvent
dielectric 4.90
$end
--------------------------------------------------------------

             Standard Nuclear Orientation (Angstroms)
    I     Atom           X                Y                Z
 ----------------------------------------------------------------
    1      C      -0.0493520000    -0.3973950000    -0.2108010000
    2      S       0.0195480000     0.3928050000     1.3696990000
    3      C       0.1622480000     2.0243050000     0.6940990000
    4      C       0.0374480000     0.5968050000    -1.1962010000
    5      C       0.1524480000     1.9120050000    -0.7043010000
    6      H       0.0169480000     0.3621050000    -2.2707010000
    7      H       0.2291480000     2.7896050000    -1.3634010000
    8      C      -0.0493520000    -1.8755950000    -0.2108010000
    9      H       0.6452480000    -1.8761950000    -1.0378010000
   10      H       0.7064480000    -2.3148950000     0.4233990000
   11      H      -0.6722520000    -2.5865950000    -0.7333010000
   12      H       0.2389480000     2.9016050000     1.3451990000
 ----------------------------------------------------------------

   10    -590.3732458413      5.87e-07  Convergence criterion met
 Total energy in the final basis set =     -590.3732458413
        RIMP2         total energy =      -591.3747953376 a.u.

                    Orbital Energies (a.u.)
 --------------------------------------------------------------

 Alpha MOs
 -- Occupied --
-91.9773 -11.2880 -11.2654 -11.2429 -11.2362 -11.2251  -8.9772  -6.6580
 -6.6575  -6.6570  -1.1569  -1.0389  -0.9722  -0.9191  -0.7543  -0.7235
 -0.6721  -0.5973  -0.5679  -0.5572  -0.5421  -0.4991  -0.4690  -0.4470
 -0.3453  -0.3056

          Ground-State Mulliken Net Atomic Charges

     Atom                 Charge (a.u.)
  ----------------------------------------
      1 C                     0.035931
      2 S                    -0.005087
      3 C                    -0.237558
      4 C                    -0.231676
      5 C                    -0.193198
      6 H                     0.182312
      7 H                     0.185765
      8 C                    -0.363629
      9 H                     0.129921
     10 H                     0.138938
     11 H                     0.154676
     12 H                     0.203605
  ----------------------------------------
  Sum of atomic charges =     0.000000

                    Cartesian Multipole Moments
 -----------------------------------------------------------------
    Charge (ESU x 10^10)
                -0.0000
    Dipole Moment (Debye)
         X       0.5729      Y      -0.5523      Z      -1.6112
       Tot       1.7970
    Quadrupole Moments (Debye-Ang)
        XX     -47.8004     XY      -0.0650     YY     -36.1368
        XZ       0.3487     YZ       1.9978     ZZ     -41.8377

 Total job time:  9.93s(wall), 550.52s(cpu)
        *  Thank you very much for using Q-Chem.  Have a nice day.  *
