 Q-Chem 5.4, Q-Chem, Inc., Pleasanton, CA (2021)
 Q-Chem 5.4.0 for Intel X86 EM64T Linux

User input:
--------------------------------------------------------------
$molecule
0 1
C	-0.041557	-0.397395	-0.218828
S	0.027343	0.392805	1.361672
C	0.170043	2.024305	0.686072
C	0.045243	0.596805	-1.204228
C	0.160243	1.912005	-0.712328
H	0.024743	0.362105	-2.278728
H	0.236943	2.789605	-1.371428
C	-0.041557	-1.875595	-0.218828
H	-0.582057	-1.876195	0.716172
H	-0.895957	-2.314895	-0.712128
H	0.662543	-2.586595	0.187572
H	0.246743	2.901605	1.337172
$end

$rem
JOBTYPE		SP
EXCHANGE	HF
CORRELATION	pRIMP2
BASIS		cc-pvtz
METHOD		rimp2
AUX_BASIS	rimp2-cc-pvtz
SOLVENT_METHOD	PCM
PURECART	11111
SYMMETRY	false
MEM_TOTAL	110000
SCF_CONVERGENCE = 6
THRESH=10
GUI = 2
$end

$solvent
dielectric 4.90
$end
--------------------------------------------------------------

             Standard Nuclear Orientation (Angstroms)
    I     Atom           X                Y                Z
 ----------------------------------------------------------------
    1      C      -0.0415570000    -0.3973950000    -0.2188280000
    2      S       0.0273430000     0.3928050000     1.3616720000
    3      C       0.1700430000     2.0243050000     0.6860720000
    4      C       0.0452430000     0.5968050000    -1.2042280000
    5      C       0.1602430000     1.9120050000    -0.7123280000
    6      H       0.0247430000     0.3621050000    -2.2787280000
    7      H       0.2369430000     2.7896050000    -1.3714280000
    8      C      -0.0415570000    -1.8755950000    -0.2188280000
    9      H      -0.5820570000    -1.8761950000     0.7161720000
   10      H      -0.8959570000    -2.3148950000    -0.7121280000
   11      H       0.6625430000    -2.5865950000     0.1875720000
   12      H       0.2467430000     2.9016050000     1.3371720000
 ----------------------------------------------------------------

   10    -590.3709174989      5.92e-07  Convergence criterion met
 Total energy in the final basis set =     -590.3709174989
        RIMP2         total energy =      -591.3725774106 a.u.

                    Orbital Energies (a.u.)
 --------------------------------------------------------------

 Alpha MOs
 -- Occupied --
-91.9795 -11.2843 -11.2687 -11.2431 -11.2362 -11.2242  -8.9794  -6.6603
 -6.6598  -6.6592  -1.1578  -1.0397  -0.9729  -0.9189  -0.7581  -0.7205
 -0.6715  -0.5974  -0.5687  -0.5616  -0.5383  -0.4965  -0.4651  -0.4518
 -0.3465  -0.3090

          Ground-State Mulliken Net Atomic Charges

     Atom                 Charge (a.u.)
  ----------------------------------------
      1 C                     0.017820
      2 S                    -0.004087
      3 C                    -0.233437
      4 C                    -0.216202
      5 C                    -0.192759
      6 H                     0.184858
      7 H                     0.185942
      8 C                    -0.344612
      9 H                     0.114263
     10 H                     0.131043
     11 H                     0.151660
     12 H                     0.205511
  ----------------------------------------
  Sum of atomic charges =     0.000000

                    Cartesian Multipole Moments
 -----------------------------------------------------------------
    Charge (ESU x 10^10)
                -0.0000
    Dipole Moment (Debye)
         X      -0.2214      Y      -0.2901      Z      -0.5246
       Tot       0.6391
    Quadrupole Moments (Debye-Ang)
        XX     -47.5755     XY       1.3347     YY     -36.0844
        XZ       0.4556     YZ      -0.3701     ZZ     -42.2762

 Total job time:  10.50s(wall), 552.39s(cpu)
        *  Thank you very much for using Q-Chem.  Have a nice day.  *
