 Q-Chem 5.4, Q-Chem, Inc., Pleasanton, CA (2021)
 Q-Chem 5.4.0 for Intel X86 EM64T Linux

User input:
--------------------------------------------------------------
$molecule
0 1
C	-0.084432	-0.391505	-0.215530
S	0.053068	0.389695	1.364970
C	0.337468	2.002495	0.689370
C	0.088668	0.591395	-1.200930
C	0.317868	1.891595	-0.709030
H	0.047768	0.359295	-2.275430
H	0.470768	2.759095	-1.368130
C	-0.084432	-1.869705	-0.215530
H	-1.099432	-1.870305	0.153370
H	-0.421832	-2.309005	-1.142630
H	0.193768	-2.580705	0.548370
H	0.490268	2.869795	1.340470
$end

$rem
JOBTYPE		SP
EXCHANGE	HF
CORRELATION	pRIMP2
BASIS		cc-pvtz
METHOD		rimp2
AUX_BASIS	rimp2-cc-pvtz
SOLVENT_METHOD	PCM
PURECART	11111
SYMMETRY	false
MEM_TOTAL	110000
SCF_CONVERGENCE = 6
THRESH=10
GUI = 2
$end

$solvent
dielectric 4.90
$end
--------------------------------------------------------------

             Standard Nuclear Orientation (Angstroms)
    I     Atom           X                Y                Z
 ----------------------------------------------------------------
    1      C      -0.0844320000    -0.3915050000    -0.2155300000
    2      S       0.0530680000     0.3896950000     1.3649700000
    3      C       0.3374680000     2.0024950000     0.6893700000
    4      C       0.0886680000     0.5913950000    -1.2009300000
    5      C       0.3178680000     1.8915950000    -0.7090300000
    6      H       0.0477680000     0.3592950000    -2.2754300000
    7      H       0.4707680000     2.7590950000    -1.3681300000
    8      C      -0.0844320000    -1.8697050000    -0.2155300000
    9      H      -1.0994320000    -1.8703050000     0.1533700000
   10      H      -0.4218320000    -2.3090050000    -1.1426300000
   11      H       0.1937680000    -2.5807050000     0.5483700000
   12      H       0.4902680000     2.8697950000     1.3404700000
 ----------------------------------------------------------------

   10    -590.3703923190      6.08e-07  Convergence criterion met
 Total energy in the final basis set =     -590.3703923190
        RIMP2         total energy =      -591.3712972040 a.u.

                    Orbital Energies (a.u.)
 --------------------------------------------------------------

 Alpha MOs
 -- Occupied --
-91.9773 -11.2894 -11.2646 -11.2428 -11.2337 -11.2267  -8.9774  -6.6583
 -6.6578  -6.6572  -1.1570  -1.0402  -0.9715  -0.9199  -0.7555  -0.7212
 -0.6706  -0.5984  -0.5658  -0.5578  -0.5454  -0.4910  -0.4747  -0.4545
 -0.3463  -0.2997

          Ground-State Mulliken Net Atomic Charges

     Atom                 Charge (a.u.)
  ----------------------------------------
      1 C                     0.007829
      2 S                    -0.011742
      3 C                    -0.237318
      4 C                    -0.219985
      5 C                    -0.194085
      6 H                     0.184361
      7 H                     0.184900
      8 C                    -0.356744
      9 H                     0.135905
     10 H                     0.132865
     11 H                     0.169331
     12 H                     0.204683
  ----------------------------------------
  Sum of atomic charges =     0.000000

                    Cartesian Multipole Moments
 -----------------------------------------------------------------
    Charge (ESU x 10^10)
                -0.0000
    Dipole Moment (Debye)
         X      -0.4864      Y      -0.7010      Z      -0.8479
       Tot       1.2028
    Quadrupole Moments (Debye-Ang)
        XX     -47.8581     XY       2.8441     YY     -36.1361
        XZ       0.4854     YZ       0.1242     ZZ     -41.8965

 Total job time:  13.10s(wall), 577.68s(cpu)
        *  Thank you very much for using Q-Chem.  Have a nice day.  *
