 Q-Chem 5.4, Q-Chem, Inc., Pleasanton, CA (2021)
 Q-Chem 5.4.0 for Intel X86 EM64T Linux

User input:
--------------------------------------------------------------
$molecule
0 1
C	-0.400670	-0.214208	-0.210119
S	0.206830	0.295792	1.370381
C	1.461330	1.348492	0.694781
C	0.363730	0.427392	-1.195519
C	1.375030	1.276092	-0.703619
H	0.183230	0.275892	-2.270019
H	2.049830	1.842392	-1.362719
C	-0.400670	-1.692408	-0.210119
H	0.139830	-1.693008	-1.145119
H	0.453730	-2.131708	0.283181
H	-1.104770	-2.403408	-0.616519
H	2.135930	1.914692	1.345881
$end

$rem
JOBTYPE		SP
EXCHANGE	HF
CORRELATION	pRIMP2
BASIS		cc-pvtz
METHOD		rimp2
AUX_BASIS	rimp2-cc-pvtz
SOLVENT_METHOD	PCM
PURECART	11111
SYMMETRY	false
MEM_TOTAL	110000
SCF_CONVERGENCE = 6
THRESH=10
GUI = 2
$end

$solvent
dielectric 4.90
$end
--------------------------------------------------------------

             Standard Nuclear Orientation (Angstroms)
    I     Atom           X                Y                Z
 ----------------------------------------------------------------
    1      C      -0.4006700000    -0.2142080000    -0.2101190000
    2      S       0.2068300000     0.2957920000     1.3703810000
    3      C       1.4613300000     1.3484920000     0.6947810000
    4      C       0.3637300000     0.4273920000    -1.1955190000
    5      C       1.3750300000     1.2760920000    -0.7036190000
    6      H       0.1832300000     0.2758920000    -2.2700190000
    7      H       2.0498300000     1.8423920000    -1.3627190000
    8      C      -0.4006700000    -1.6924080000    -0.2101190000
    9      H       0.1398300000    -1.6930080000    -1.1451190000
   10      H       0.4537300000    -2.1317080000     0.2831810000
   11      H      -1.1047700000    -2.4034080000    -0.6165190000
   12      H       2.1359300000     1.9146920000     1.3458810000
 ----------------------------------------------------------------

   11    -590.3210398399      5.08e-07  Convergence criterion met
 Total energy in the final basis set =     -590.3210398399
        RIMP2         total energy =      -591.3335147533 a.u.

                    Orbital Energies (a.u.)
 --------------------------------------------------------------

 Alpha MOs
 -- Occupied --
-91.9764 -11.2823 -11.2658 -11.2490 -11.2438 -11.2151  -8.9767  -6.6575
 -6.6568  -6.6565  -1.1663  -1.0374  -0.9775  -0.9080  -0.7602  -0.7280
 -0.6715  -0.5962  -0.5732  -0.5531  -0.5450  -0.4770  -0.4706  -0.4418
 -0.3402  -0.3069

          Ground-State Mulliken Net Atomic Charges

     Atom                 Charge (a.u.)
  ----------------------------------------
      1 C                    -0.062123
      2 S                     0.008757
      3 C                    -0.186860
      4 C                    -0.139329
      5 C                    -0.227034
      6 H                     0.181769
      7 H                     0.187308
      8 C                    -0.359178
      9 H                     0.125079
     10 H                     0.132313
     11 H                     0.133529
     12 H                     0.205770
  ----------------------------------------
  Sum of atomic charges =     0.000000

                    Cartesian Multipole Moments
 -----------------------------------------------------------------
    Charge (ESU x 10^10)
                 0.0000
    Dipole Moment (Debye)
         X       1.9891      Y      -0.1242      Z      -1.6475
       Tot       2.5858
    Quadrupole Moments (Debye-Ang)
        XX     -42.9770     XY       4.1695     YY     -42.2843
        XZ       1.0301     YZ       1.6440     ZZ     -41.2277

 Total job time:  11.70s(wall), 610.05s(cpu)
        *  Thank you very much for using Q-Chem.  Have a nice day.  *
