 Q-Chem 5.4, Q-Chem, Inc., Pleasanton, CA (2021)
 Q-Chem 5.4.0 for Intel X86 EM64T Linux

User input:
--------------------------------------------------------------
$molecule
0 1
C	-0.264464	-0.329934	-0.216317
S	0.131936	0.357066	1.364183
C	0.950736	1.775366	0.688583
C	0.234336	0.534466	-1.201717
C	0.894436	1.677866	-0.709817
H	0.116536	0.330366	-2.276217
H	1.334836	2.440766	-1.368917
C	-0.264464	-1.808134	-0.216317
H	0.799036	-1.808734	-0.028217
H	-0.435864	-2.247434	0.755283
H	-0.123464	-2.519134	-1.017017
H	1.391036	2.538166	1.339683
$end

$rem
JOBTYPE		SP
EXCHANGE	HF
CORRELATION	pRIMP2
BASIS		cc-pvtz
METHOD		rimp2
AUX_BASIS	rimp2-cc-pvtz
SOLVENT_METHOD	PCM
PURECART	11111
SYMMETRY	false
MEM_TOTAL	110000
SCF_CONVERGENCE = 6
THRESH=10
GUI = 2
$end

$solvent
dielectric 4.90
$end
--------------------------------------------------------------

             Standard Nuclear Orientation (Angstroms)
    I     Atom           X                Y                Z
 ----------------------------------------------------------------
    1      C      -0.2644640000    -0.3299340000    -0.2163170000
    2      S       0.1319360000     0.3570660000     1.3641830000
    3      C       0.9507360000     1.7753660000     0.6885830000
    4      C       0.2343360000     0.5344660000    -1.2017170000
    5      C       0.8944360000     1.6778660000    -0.7098170000
    6      H       0.1165360000     0.3303660000    -2.2762170000
    7      H       1.3348360000     2.4407660000    -1.3689170000
    8      C      -0.2644640000    -1.8081340000    -0.2163170000
    9      H       0.7990360000    -1.8087340000    -0.0282170000
   10      H      -0.4358640000    -2.2474340000     0.7552830000
   11      H      -0.1234640000    -2.5191340000    -1.0170170000
   12      H       1.3910360000     2.5381660000     1.3396830000
 ----------------------------------------------------------------

   10    -590.3592749355      6.43e-07  Convergence criterion met
 Total energy in the final basis set =     -590.3592749355
        RIMP2         total energy =      -591.3623683257 a.u.

                    Orbital Energies (a.u.)
 --------------------------------------------------------------

 Alpha MOs
 -- Occupied --
-91.9778 -11.2867 -11.2677 -11.2436 -11.2334 -11.2271  -8.9780  -6.6589
 -6.6583  -6.6577  -1.1608  -1.0404  -0.9727  -0.9155  -0.7570  -0.7225
 -0.6717  -0.5960  -0.5672  -0.5601  -0.5360  -0.4985  -0.4732  -0.4563
 -0.3472  -0.2971

          Ground-State Mulliken Net Atomic Charges

     Atom                 Charge (a.u.)
  ----------------------------------------
      1 C                     0.016772
      2 S                    -0.002567
      3 C                    -0.241434
      4 C                    -0.244877
      5 C                    -0.179265
      6 H                     0.179784
      7 H                     0.187261
      8 C                    -0.357218
      9 H                     0.146324
     10 H                     0.128856
     11 H                     0.161599
     12 H                     0.204766
  ----------------------------------------
  Sum of atomic charges =     0.000000

                    Cartesian Multipole Moments
 -----------------------------------------------------------------
    Charge (ESU x 10^10)
                 0.0000
    Dipole Moment (Debye)
         X       1.3334      Y      -0.6949      Z      -0.9682
       Tot       1.7884
    Quadrupole Moments (Debye-Ang)
        XX     -46.4865     XY       2.6459     YY     -38.3350
        XZ      -0.0046     YZ       0.8319     ZZ     -41.7254

 Total job time:  10.70s(wall), 552.89s(cpu)
        *  Thank you very much for using Q-Chem.  Have a nice day.  *
