 Q-Chem 5.4, Q-Chem, Inc., Pleasanton, CA (2021)
 Q-Chem 5.4.0 for Intel X86 EM64T Linux

User input:
--------------------------------------------------------------
$molecule
0 1
C	-0.088104	-0.391505	-0.219778
S	0.049396	0.389695	1.360722
C	0.333796	2.002495	0.685122
C	0.084996	0.591395	-1.205178
C	0.314196	1.891595	-0.713278
H	0.044096	0.359295	-2.279678
H	0.467096	2.759095	-1.372378
C	-0.088104	-1.869705	-0.219778
H	-0.276204	-1.870305	0.843722
H	-1.059704	-2.309005	-0.391178
H	0.712596	-2.580705	-0.078778
H	0.486596	2.869795	1.336222
$end

$rem
JOBTYPE		SP
EXCHANGE	HF
CORRELATION	pRIMP2
BASIS		cc-pvtz
METHOD		rimp2
AUX_BASIS	rimp2-cc-pvtz
SOLVENT_METHOD	PCM
PURECART	11111
SYMMETRY	false
MEM_TOTAL	110000
SCF_CONVERGENCE = 6
THRESH=10
GUI = 2
$end

$solvent
dielectric 4.90
$end
--------------------------------------------------------------

             Standard Nuclear Orientation (Angstroms)
    I     Atom           X                Y                Z
 ----------------------------------------------------------------
    1      C      -0.0881040000    -0.3915050000    -0.2197780000
    2      S       0.0493960000     0.3896950000     1.3607220000
    3      C       0.3337960000     2.0024950000     0.6851220000
    4      C       0.0849960000     0.5913950000    -1.2051780000
    5      C       0.3141960000     1.8915950000    -0.7132780000
    6      H       0.0440960000     0.3592950000    -2.2796780000
    7      H       0.4670960000     2.7590950000    -1.3723780000
    8      C      -0.0881040000    -1.8697050000    -0.2197780000
    9      H      -0.2762040000    -1.8703050000     0.8437220000
   10      H      -1.0597040000    -2.3090050000    -0.3911780000
   11      H       0.7125960000    -2.5807050000    -0.0787780000
   12      H       0.4865960000     2.8697950000     1.3362220000
 ----------------------------------------------------------------

   10    -590.3682308176      6.03e-07  Convergence criterion met
 Total energy in the final basis set =     -590.3682308176
        RIMP2         total energy =      -591.3707901143 a.u.

                    Orbital Energies (a.u.)
 --------------------------------------------------------------

 Alpha MOs
 -- Occupied --
-91.9806 -11.2815 -11.2702 -11.2432 -11.2370 -11.2231  -8.9805  -6.6613
 -6.6608  -6.6602  -1.1581  -1.0395  -0.9734  -0.9182  -0.7591  -0.7204
 -0.6718  -0.5966  -0.5693  -0.5624  -0.5371  -0.4974  -0.4628  -0.4489
 -0.3465  -0.3122

          Ground-State Mulliken Net Atomic Charges

     Atom                 Charge (a.u.)
  ----------------------------------------
      1 C                     0.018791
      2 S                    -0.004183
      3 C                    -0.233340
      4 C                    -0.214180
      5 C                    -0.190399
      6 H                     0.184890
      7 H                     0.186175
      8 C                    -0.341065
      9 H                     0.110011
     10 H                     0.128216
     11 H                     0.148673
     12 H                     0.206413
  ----------------------------------------
  Sum of atomic charges =     0.000000

                    Cartesian Multipole Moments
 -----------------------------------------------------------------
    Charge (ESU x 10^10)
                 0.0000
    Dipole Moment (Debye)
         X       0.1275      Y      -0.1532      Z      -0.4538
       Tot       0.4956
    Quadrupole Moments (Debye-Ang)
        XX     -47.1935     XY       1.6054     YY     -36.3749
        XZ       0.2378     YZ      -0.4059     ZZ     -42.3714

 Total job time:  10.34s(wall), 553.76s(cpu)
        *  Thank you very much for using Q-Chem.  Have a nice day.  *
