 Q-Chem 5.4, Q-Chem, Inc., Pleasanton, CA (2021)
 Q-Chem 5.4.0 for Intel X86 EM64T Linux

User input:
--------------------------------------------------------------
$molecule
0 1
C	-0.182870	-0.368118	-0.214392
S	0.088230	0.377282	1.366108
C	0.648330	1.916282	0.690508
C	0.158330	0.569782	-1.199792
C	0.609730	1.810382	-0.707892
H	0.077730	0.348282	-2.274292
H	0.911030	2.638182	-1.366992
C	-0.182870	-1.846318	-0.214392
H	0.880830	-1.846918	-0.401392
H	-0.011570	-2.285618	0.757208
H	-0.324170	-2.557318	-1.014992
H	0.949430	2.743882	1.341608
$end

$rem
JOBTYPE		SP
EXCHANGE	HF
CORRELATION	pRIMP2
BASIS		cc-pvtz
METHOD		rimp2
AUX_BASIS	rimp2-cc-pvtz
SOLVENT_METHOD	PCM
PURECART	11111
SYMMETRY	false
MEM_TOTAL	110000
SCF_CONVERGENCE = 6
THRESH=10
GUI = 2
$end

$solvent
dielectric 4.90
$end
--------------------------------------------------------------

             Standard Nuclear Orientation (Angstroms)
    I     Atom           X                Y                Z
 ----------------------------------------------------------------
    1      C      -0.1828700000    -0.3681180000    -0.2143920000
    2      S       0.0882300000     0.3772820000     1.3661080000
    3      C       0.6483300000     1.9162820000     0.6905080000
    4      C       0.1583300000     0.5697820000    -1.1997920000
    5      C       0.6097300000     1.8103820000    -0.7078920000
    6      H       0.0777300000     0.3482820000    -2.2742920000
    7      H       0.9110300000     2.6381820000    -1.3669920000
    8      C      -0.1828700000    -1.8463180000    -0.2143920000
    9      H       0.8808300000    -1.8469180000    -0.4013920000
   10      H      -0.0115700000    -2.2856180000     0.7572080000
   11      H      -0.3241700000    -2.5573180000    -1.0149920000
   12      H       0.9494300000     2.7438820000     1.3416080000
 ----------------------------------------------------------------

   10    -590.3683818302      6.41e-07  Convergence criterion met
 Total energy in the final basis set =     -590.3683818302
        RIMP2         total energy =      -591.3696947302 a.u.

                    Orbital Energies (a.u.)
 --------------------------------------------------------------

 Alpha MOs
 -- Occupied --
-91.9795 -11.2906 -11.2632 -11.2433 -11.2305 -11.2282  -8.9793  -6.6602
 -6.6597  -6.6591  -1.1586  -1.0406  -0.9718  -0.9175  -0.7552  -0.7225
 -0.6713  -0.5971  -0.5662  -0.5555  -0.5431  -0.4941  -0.4772  -0.4568
 -0.3467  -0.2973

          Ground-State Mulliken Net Atomic Charges

     Atom                 Charge (a.u.)
  ----------------------------------------
      1 C                     0.022447
      2 S                     0.001942
      3 C                    -0.248262
      4 C                    -0.240505
      5 C                    -0.185954
      6 H                     0.178544
      7 H                     0.186258
      8 C                    -0.363832
      9 H                     0.148425
     10 H                     0.134159
     11 H                     0.162707
     12 H                     0.204073
  ----------------------------------------
  Sum of atomic charges =     0.000000

                    Cartesian Multipole Moments
 -----------------------------------------------------------------
    Charge (ESU x 10^10)
                 0.0000
    Dipole Moment (Debye)
         X       1.0882      Y      -0.8351      Z      -1.1690
       Tot       1.8022
    Quadrupole Moments (Debye-Ang)
        XX     -47.5402     XY       1.5183     YY     -37.0945
        XZ       0.1256     YZ       1.3104     ZZ     -41.6530

 Total job time:  10.16s(wall), 540.76s(cpu)
        *  Thank you very much for using Q-Chem.  Have a nice day.  *
