 Q-Chem 5.4, Q-Chem, Inc., Pleasanton, CA (2021)
 Q-Chem 5.4.0 for Intel X86 EM64T Linux

User input:
--------------------------------------------------------------
$molecule
0 1
C	-0.454215	-0.140188	-0.212476
S	0.232585	0.256612	1.368024
C	1.650885	1.075412	0.692424
C	0.409985	0.358912	-1.197876
C	1.553285	1.019112	-0.705976
H	0.205885	0.241112	-2.272376
H	2.316185	1.459712	-1.365076
C	-0.454215	-1.618388	-0.212476
H	0.481385	-1.618988	-0.751976
H	0.039085	-2.057688	0.642024
H	-0.860815	-2.329388	-0.916476
H	2.413485	1.515912	1.343524
$end

$rem
JOBTYPE		SP
EXCHANGE	HF
CORRELATION	pRIMP2
BASIS		cc-pvtz
METHOD		rimp2
AUX_BASIS	rimp2-cc-pvtz
SOLVENT_METHOD	PCM
PURECART	11111
SYMMETRY	false
MEM_TOTAL	110000
SCF_CONVERGENCE = 6
THRESH=10
GUI = 2
$end

$solvent
dielectric 4.90
$end
--------------------------------------------------------------

             Standard Nuclear Orientation (Angstroms)
    I     Atom           X                Y                Z
 ----------------------------------------------------------------
    1      C      -0.4542150000    -0.1401880000    -0.2124760000
    2      S       0.2325850000     0.2566120000     1.3680240000
    3      C       1.6508850000     1.0754120000     0.6924240000
    4      C       0.4099850000     0.3589120000    -1.1978760000
    5      C       1.5532850000     1.0191120000    -0.7059760000
    6      H       0.2058850000     0.2411120000    -2.2723760000
    7      H       2.3161850000     1.4597120000    -1.3650760000
    8      C      -0.4542150000    -1.6183880000    -0.2124760000
    9      H       0.4813850000    -1.6189880000    -0.7519760000
   10      H       0.0390850000    -2.0576880000     0.6420240000
   11      H      -0.8608150000    -2.3293880000    -0.9164760000
   12      H       2.4134850000     1.5159120000     1.3435240000
 ----------------------------------------------------------------

   11    -590.2925359553      8.46e-07  Convergence criterion met
 Total energy in the final basis set =     -590.2925359553
        RIMP2         total energy =      -591.3097809002 a.u.

                    Orbital Energies (a.u.)
 --------------------------------------------------------------

 Alpha MOs
 -- Occupied --
-91.9799 -11.2897 -11.2582 -11.2515 -11.2453 -11.2135  -8.9802  -6.6609
 -6.6602  -6.6599  -1.1734  -1.0391  -0.9810  -0.9032  -0.7647  -0.7301
 -0.6734  -0.5970  -0.5701  -0.5610  -0.5404  -0.4815  -0.4597  -0.4543
 -0.3411  -0.2963

          Ground-State Mulliken Net Atomic Charges

     Atom                 Charge (a.u.)
  ----------------------------------------
      1 C                    -0.123963
      2 S                     0.026279
      3 C                    -0.169982
      4 C                    -0.080123
      5 C                    -0.251170
      6 H                     0.186103
      7 H                     0.187057
      8 C                    -0.358124
      9 H                     0.119040
     10 H                     0.125957
     11 H                     0.129881
     12 H                     0.209046
  ----------------------------------------
  Sum of atomic charges =     0.000000

                    Cartesian Multipole Moments
 -----------------------------------------------------------------
    Charge (ESU x 10^10)
                 0.0000
    Dipole Moment (Debye)
         X       2.6929      Y      -0.1999      Z      -1.2803
       Tot       2.9885
    Quadrupole Moments (Debye-Ang)
        XX     -42.1763     XY       3.6246     YY     -44.1054
        XZ       1.0229     YZ       1.2372     ZZ     -40.5112

 Total job time:  11.64s(wall), 606.95s(cpu)
        *  Thank you very much for using Q-Chem.  Have a nice day.  *
