 Q-Chem 5.4, Q-Chem, Inc., Pleasanton, CA (2021)
 Q-Chem 5.4.0 for Intel X86 EM64T Linux

User input:
--------------------------------------------------------------
$molecule
0 1
C	-0.182159	-0.368118	-0.217210
S	0.088941	0.377282	1.363290
C	0.649041	1.916282	0.687690
C	0.159041	0.569782	-1.202610
C	0.610441	1.810382	-0.710710
H	0.078441	0.348282	-2.277110
H	0.911741	2.638182	-1.369810
C	-0.182159	-1.846318	-0.217210
H	0.832541	-1.846918	0.152690
H	-0.519659	-2.285618	0.709890
H	0.095741	-2.557318	-0.981210
H	0.950141	2.743882	1.338790
$end

$rem
JOBTYPE		SP
EXCHANGE	HF
CORRELATION	pRIMP2
BASIS		cc-pvtz
METHOD		rimp2
AUX_BASIS	rimp2-cc-pvtz
SOLVENT_METHOD	PCM
PURECART	11111
SYMMETRY	false
MEM_TOTAL	110000
SCF_CONVERGENCE = 6
THRESH=10
GUI = 2
$end

$solvent
dielectric 4.90
$end
--------------------------------------------------------------

             Standard Nuclear Orientation (Angstroms)
    I     Atom           X                Y                Z
 ----------------------------------------------------------------
    1      C      -0.1821590000    -0.3681180000    -0.2172100000
    2      S       0.0889410000     0.3772820000     1.3632900000
    3      C       0.6490410000     1.9162820000     0.6876900000
    4      C       0.1590410000     0.5697820000    -1.2026100000
    5      C       0.6104410000     1.8103820000    -0.7107100000
    6      H       0.0784410000     0.3482820000    -2.2771100000
    7      H       0.9117410000     2.6381820000    -1.3698100000
    8      C      -0.1821590000    -1.8463180000    -0.2172100000
    9      H       0.8325410000    -1.8469180000     0.1526900000
   10      H      -0.5196590000    -2.2856180000     0.7098900000
   11      H       0.0957410000    -2.5573180000    -0.9812100000
   12      H       0.9501410000     2.7438820000     1.3387900000
 ----------------------------------------------------------------

   10    -590.3680407063      6.53e-07  Convergence criterion met
 Total energy in the final basis set =     -590.3680407063
        RIMP2         total energy =      -591.3689061958 a.u.

                    Orbital Energies (a.u.)
 --------------------------------------------------------------

 Alpha MOs
 -- Occupied --
-91.9779 -11.2893 -11.2656 -11.2430 -11.2323 -11.2278  -8.9780  -6.6589
 -6.6585  -6.6578  -1.1590  -1.0409  -0.9719  -0.9176  -0.7562  -0.7217
 -0.6716  -0.5965  -0.5670  -0.5608  -0.5353  -0.5001  -0.4744  -0.4560
 -0.3472  -0.2985

          Ground-State Mulliken Net Atomic Charges

     Atom                 Charge (a.u.)
  ----------------------------------------
      1 C                     0.027327
      2 S                    -0.004377
      3 C                    -0.245903
      4 C                    -0.257067
      5 C                    -0.176337
      6 H                     0.181527
      7 H                     0.186539
      8 C                    -0.358174
      9 H                     0.143149
     10 H                     0.132740
     11 H                     0.165927
     12 H                     0.204649
  ----------------------------------------
  Sum of atomic charges =     0.000000

                    Cartesian Multipole Moments
 -----------------------------------------------------------------
    Charge (ESU x 10^10)
                -0.0000
    Dipole Moment (Debye)
         X       1.0731      Y      -0.7313      Z      -0.8382
       Tot       1.5456
    Quadrupole Moments (Debye-Ang)
        XX     -47.4244     XY       1.5417     YY     -36.9871
        XZ      -0.2129     YZ       0.5916     ZZ     -41.9015

 Total job time:  12.98s(wall), 543.45s(cpu)
        *  Thank you very much for using Q-Chem.  Have a nice day.  *
