 Q-Chem 5.4, Q-Chem, Inc., Pleasanton, CA (2021)
 Q-Chem 5.4.0 for Intel X86 EM64T Linux

User input:
--------------------------------------------------------------
$molecule
0 1
C	0.004328	-0.399361	-0.218146
S	0.004128	0.393839	1.362354
C	0.004128	2.031539	0.686754
C	0.004128	0.598639	-1.203546
C	0.004028	1.918839	-0.711646
H	0.004228	0.362939	-2.278046
H	0.004028	2.799839	-1.370746
C	0.004328	-1.877561	-0.218146
H	-0.690272	-1.878161	0.608854
H	-0.751472	-2.316861	-0.852346
H	0.627228	-2.588561	0.304354
H	0.004028	2.912239	1.337854
$end

$rem
JOBTYPE		SP
EXCHANGE	HF
CORRELATION	pRIMP2
BASIS		cc-pvtz
METHOD		rimp2
AUX_BASIS	rimp2-cc-pvtz
SOLVENT_METHOD	PCM
PURECART	11111
SYMMETRY	false
MEM_TOTAL	110000
SCF_CONVERGENCE = 6
THRESH=10
GUI = 2
$end

$solvent
dielectric 4.90
$end
--------------------------------------------------------------

             Standard Nuclear Orientation (Angstroms)
    I     Atom           X                Y                Z
 ----------------------------------------------------------------
    1      C       0.0043280000    -0.3993610000    -0.2181460000
    2      S       0.0041280000     0.3938390000     1.3623540000
    3      C       0.0041280000     2.0315390000     0.6867540000
    4      C       0.0041280000     0.5986390000    -1.2035460000
    5      C       0.0040280000     1.9188390000    -0.7116460000
    6      H       0.0042280000     0.3629390000    -2.2780460000
    7      H       0.0040280000     2.7998390000    -1.3707460000
    8      C       0.0043280000    -1.8775610000    -0.2181460000
    9      H      -0.6902720000    -1.8781610000     0.6088540000
   10      H      -0.7514720000    -2.3168610000    -0.8523460000
   11      H       0.6272280000    -2.5885610000     0.3043540000
   12      H       0.0040280000     2.9122390000     1.3378540000
 ----------------------------------------------------------------

   10    -590.3722654993      5.91e-07  Convergence criterion met
 Total energy in the final basis set =     -590.3722654993
        RIMP2         total energy =      -591.3732566589 a.u.

                    Orbital Energies (a.u.)
 --------------------------------------------------------------

 Alpha MOs
 -- Occupied --
-91.9784 -11.2866 -11.2674 -11.2429 -11.2356 -11.2251  -8.9785  -6.6594
 -6.6589  -6.6583  -1.1576  -1.0401  -0.9724  -0.9191  -0.7574  -0.7206
 -0.6713  -0.5979  -0.5685  -0.5610  -0.5386  -0.4968  -0.4676  -0.4529
 -0.3464  -0.3064

          Ground-State Mulliken Net Atomic Charges

     Atom                 Charge (a.u.)
  ----------------------------------------
      1 C                     0.020347
      2 S                    -0.005648
      3 C                    -0.235452
      4 C                    -0.222128
      5 C                    -0.191431
      6 H                     0.184983
      7 H                     0.185699
      8 C                    -0.349635
      9 H                     0.120021
     10 H                     0.131593
     11 H                     0.156636
     12 H                     0.205014
  ----------------------------------------
  Sum of atomic charges =     0.000000

                    Cartesian Multipole Moments
 -----------------------------------------------------------------
    Charge (ESU x 10^10)
                -0.0000
    Dipole Moment (Debye)
         X      -0.4436      Y      -0.4222      Z      -0.5814
       Tot       0.8444
    Quadrupole Moments (Debye-Ang)
        XX     -47.8164     XY       0.7764     YY     -35.9629
        XZ       0.4834     YZ      -0.3176     ZZ     -42.2066

 Total job time:  10.19s(wall), 540.93s(cpu)
        *  Thank you very much for using Q-Chem.  Have a nice day.  *
