 Q-Chem 5.4, Q-Chem, Inc., Pleasanton, CA (2021)
 Q-Chem 5.4.0 for Intel X86 EM64T Linux

User input:
--------------------------------------------------------------
$molecule
0 1
C	-0.047840	-0.397395	-0.209570
S	0.021060	0.392805	1.370930
C	0.163760	2.024305	0.695330
C	0.038960	0.596805	-1.194970
C	0.153960	1.912005	-0.703070
H	0.018460	0.362105	-2.269470
H	0.230660	2.789605	-1.362170
C	-0.047840	-1.875595	-0.209570
H	0.322060	-1.876195	-1.224270
H	0.879260	-2.314895	0.127930
H	-0.811840	-2.586595	-0.487470
H	0.240460	2.901605	1.346430
$end

$rem
JOBTYPE		SP
EXCHANGE	HF
CORRELATION	pRIMP2
BASIS		cc-pvtz
METHOD		rimp2
AUX_BASIS	rimp2-cc-pvtz
SOLVENT_METHOD	PCM
PURECART	11111
SYMMETRY	false
MEM_TOTAL	110000
SCF_CONVERGENCE = 6
THRESH=10
GUI = 2
$end

$solvent
dielectric 4.90
$end
--------------------------------------------------------------

             Standard Nuclear Orientation (Angstroms)
    I     Atom           X                Y                Z
 ----------------------------------------------------------------
    1      C      -0.0478400000    -0.3973950000    -0.2095700000
    2      S       0.0210600000     0.3928050000     1.3709300000
    3      C       0.1637600000     2.0243050000     0.6953300000
    4      C       0.0389600000     0.5968050000    -1.1949700000
    5      C       0.1539600000     1.9120050000    -0.7030700000
    6      H       0.0184600000     0.3621050000    -2.2694700000
    7      H       0.2306600000     2.7896050000    -1.3621700000
    8      C      -0.0478400000    -1.8755950000    -0.2095700000
    9      H       0.3220600000    -1.8761950000    -1.2242700000
   10      H       0.8792600000    -2.3148950000     0.1279300000
   11      H      -0.8118400000    -2.5865950000    -0.4874700000
   12      H       0.2404600000     2.9016050000     1.3464300000
 ----------------------------------------------------------------

   10    -590.3735700056      5.77e-07  Convergence criterion met
 Total energy in the final basis set =     -590.3735700056
        RIMP2         total energy =      -591.3755187363 a.u.

                    Orbital Energies (a.u.)
 --------------------------------------------------------------

 Alpha MOs
 -- Occupied --
-91.9756 -11.2859 -11.2680 -11.2429 -11.2398 -11.2239  -8.9756  -6.6565
 -6.6560  -6.6555  -1.1570  -1.0382  -0.9728  -0.9191  -0.7545  -0.7242
 -0.6725  -0.5973  -0.5702  -0.5588  -0.5397  -0.5000  -0.4679  -0.4399
 -0.3450  -0.3109

          Ground-State Mulliken Net Atomic Charges

     Atom                 Charge (a.u.)
  ----------------------------------------
      1 C                     0.034968
      2 S                    -0.008520
      3 C                    -0.229881
      4 C                    -0.222957
      5 C                    -0.199190
      6 H                     0.183362
      7 H                     0.186455
      8 C                    -0.359404
      9 H                     0.121661
     10 H                     0.137263
     11 H                     0.152080
     12 H                     0.204163
  ----------------------------------------
  Sum of atomic charges =     0.000000

                    Cartesian Multipole Moments
 -----------------------------------------------------------------
    Charge (ESU x 10^10)
                -0.0000
    Dipole Moment (Debye)
         X       0.3669      Y      -0.3762      Z      -1.7393
       Tot       1.8170
    Quadrupole Moments (Debye-Ang)
        XX     -47.5187     XY       0.4348     YY     -36.1008
        XZ       0.2891     YZ       2.1315     ZZ     -42.0268

 Total job time:  10.47s(wall), 544.88s(cpu)
        *  Thank you very much for using Q-Chem.  Have a nice day.  *
