 Q-Chem 5.4, Q-Chem, Inc., Pleasanton, CA (2021)
 Q-Chem 5.4.0 for Intel X86 EM64T Linux

User input:
--------------------------------------------------------------
$molecule
0 1
C	-0.327906	-0.278098	-0.212630
S	0.181794	0.329602	1.367870
C	1.234494	1.584202	0.692270
C	0.313494	0.486502	-1.198030
C	1.161994	1.497902	-0.706130
H	0.161994	0.306002	-2.272530
H	1.728194	2.172802	-1.365230
C	-0.327906	-1.756298	-0.212630
H	-1.391406	-1.756898	-0.400730
H	-0.156506	-2.195598	-1.184230
H	-0.468906	-2.467298	0.588070
H	1.800494	2.258902	1.343370
$end

$rem
JOBTYPE		SP
EXCHANGE	HF
CORRELATION	pRIMP2
BASIS		cc-pvtz
METHOD		rimp2
AUX_BASIS	rimp2-cc-pvtz
SOLVENT_METHOD	PCM
PURECART	11111
SYMMETRY	false
MEM_TOTAL	110000
SCF_CONVERGENCE = 6
THRESH=10
GUI = 2
$end

$solvent
dielectric 4.90
$end
--------------------------------------------------------------

             Standard Nuclear Orientation (Angstroms)
    I     Atom           X                Y                Z
 ----------------------------------------------------------------
    1      C      -0.3279060000    -0.2780980000    -0.2126300000
    2      S       0.1817940000     0.3296020000     1.3678700000
    3      C       1.2344940000     1.5842020000     0.6922700000
    4      C       0.3134940000     0.4865020000    -1.1980300000
    5      C       1.1619940000     1.4979020000    -0.7061300000
    6      H       0.1619940000     0.3060020000    -2.2725300000
    7      H       1.7281940000     2.1728020000    -1.3652300000
    8      C      -0.3279060000    -1.7562980000    -0.2126300000
    9      H      -1.3914060000    -1.7568980000    -0.4007300000
   10      H      -0.1565060000    -2.1955980000    -1.1842300000
   11      H      -0.4689060000    -2.4672980000     0.5880700000
   12      H       1.8004940000     2.2589020000     1.3433700000
 ----------------------------------------------------------------

   10    -590.3339745094      9.66e-07  Convergence criterion met
 Total energy in the final basis set =     -590.3339745094
        RIMP2         total energy =      -591.3436273870 a.u.

                    Orbital Energies (a.u.)
 --------------------------------------------------------------

 Alpha MOs
 -- Occupied --
-91.9749 -11.2742 -11.2734 -11.2437 -11.2420 -11.2180  -8.9752  -6.6561
 -6.6554  -6.6550  -1.1598  -1.0365  -0.9734  -0.9156  -0.7573  -0.7234
 -0.6692  -0.5939  -0.5602  -0.5577  -0.5499  -0.4980  -0.4604  -0.4443
 -0.3448  -0.2950

          Ground-State Mulliken Net Atomic Charges

     Atom                 Charge (a.u.)
  ----------------------------------------
      1 C                    -0.023017
      2 S                     0.002408
      3 C                    -0.215476
      4 C                    -0.193800
      5 C                    -0.197215
      6 H                     0.182768
      7 H                     0.186680
      8 C                    -0.374730
      9 H                     0.127910
     10 H                     0.135031
     11 H                     0.165312
     12 H                     0.204129
  ----------------------------------------
  Sum of atomic charges =     0.000000

                    Cartesian Multipole Moments
 -----------------------------------------------------------------
    Charge (ESU x 10^10)
                 0.0000
    Dipole Moment (Debye)
         X       0.3890      Y      -0.3883      Z      -1.2528
       Tot       1.3680
    Quadrupole Moments (Debye-Ang)
        XX     -44.3615     XY       5.8410     YY     -40.1971
        XZ       0.4221     YZ       0.6264     ZZ     -41.3209

 Total job time:  10.21s(wall), 557.86s(cpu)
        *  Thank you very much for using Q-Chem.  Have a nice day.  *
