 Q-Chem 5.4, Q-Chem, Inc., Pleasanton, CA (2021)
 Q-Chem 5.4.0 for Intel X86 EM64T Linux

User input:
--------------------------------------------------------------
$molecule
0 1
C	-0.179098	-0.368118	-0.209169
S	0.092002	0.377282	1.371331
C	0.652102	1.916282	0.695731
C	0.162102	0.569782	-1.194569
C	0.613502	1.810382	-0.702669
H	0.081502	0.348282	-2.269069
H	0.914802	2.638182	-1.361769
C	-0.179098	-1.846318	-0.209169
H	0.009002	-1.846918	-1.272669
H	0.792502	-2.285618	-0.037769
H	-0.979798	-2.557318	-0.350169
H	0.953202	2.743882	1.346831
$end

$rem
JOBTYPE		SP
EXCHANGE	HF
CORRELATION	pRIMP2
BASIS		cc-pvtz
METHOD		rimp2
AUX_BASIS	rimp2-cc-pvtz
SOLVENT_METHOD	PCM
PURECART	11111
SYMMETRY	false
MEM_TOTAL	110000
SCF_CONVERGENCE = 6
THRESH=10
GUI = 2
$end

$solvent
dielectric 4.90
$end
--------------------------------------------------------------

             Standard Nuclear Orientation (Angstroms)
    I     Atom           X                Y                Z
 ----------------------------------------------------------------
    1      C      -0.1790980000    -0.3681180000    -0.2091690000
    2      S       0.0920020000     0.3772820000     1.3713310000
    3      C       0.6521020000     1.9162820000     0.6957310000
    4      C       0.1621020000     0.5697820000    -1.1945690000
    5      C       0.6135020000     1.8103820000    -0.7026690000
    6      H       0.0815020000     0.3482820000    -2.2690690000
    7      H       0.9148020000     2.6381820000    -1.3617690000
    8      C      -0.1790980000    -1.8463180000    -0.2091690000
    9      H       0.0090020000    -1.8469180000    -1.2726690000
   10      H       0.7925020000    -2.2856180000    -0.0377690000
   11      H      -0.9797980000    -2.5573180000    -0.3501690000
   12      H       0.9532020000     2.7438820000     1.3468310000
 ----------------------------------------------------------------

   10    -590.3672034939      6.13e-07  Convergence criterion met
 Total energy in the final basis set =     -590.3672034939
        RIMP2         total energy =      -591.3706984845 a.u.

                    Orbital Energies (a.u.)
 --------------------------------------------------------------

 Alpha MOs
 -- Occupied --
-91.9748 -11.2828 -11.2705 -11.2431 -11.2418 -11.2226  -8.9750  -6.6559
 -6.6553  -6.6548  -1.1582  -1.0377  -0.9734  -0.9175  -0.7552  -0.7247
 -0.6722  -0.5971  -0.5714  -0.5587  -0.5395  -0.4976  -0.4677  -0.4370
 -0.3445  -0.3124

          Ground-State Mulliken Net Atomic Charges

     Atom                 Charge (a.u.)
  ----------------------------------------
      1 C                     0.024812
      2 S                    -0.006998
      3 C                    -0.224266
      4 C                    -0.222134
      5 C                    -0.197486
      6 H                     0.182122
      7 H                     0.187494
      8 C                    -0.358596
      9 H                     0.119470
     10 H                     0.136806
     11 H                     0.154574
     12 H                     0.204202
  ----------------------------------------
  Sum of atomic charges =     0.000000

                    Cartesian Multipole Moments
 -----------------------------------------------------------------
    Charge (ESU x 10^10)
                -0.0000
    Dipole Moment (Debye)
         X       0.6328      Y      -0.2868      Z      -1.7695
       Tot       1.9010
    Quadrupole Moments (Debye-Ang)
        XX     -46.5252     XY       2.8460     YY     -37.2038
        XZ       0.4337     YZ       2.0791     ZZ     -42.0217

 Total job time:  10.09s(wall), 550.13s(cpu)
        *  Thank you very much for using Q-Chem.  Have a nice day.  *
