 Q-Chem 5.4, Q-Chem, Inc., Pleasanton, CA (2021)
 Q-Chem 5.4.0 for Intel X86 EM64T Linux

User input:
--------------------------------------------------------------
$molecule
0 1
C	-0.171740	-0.368118	-0.215530
S	0.099360	0.377282	1.364970
C	0.659460	1.916282	0.689370
C	0.169460	0.569782	-1.200930
C	0.620860	1.810382	-0.709030
H	0.088860	0.348282	-2.275430
H	0.922160	2.638182	-1.368130
C	-0.171740	-1.846318	-0.215530
H	-1.186740	-1.846918	0.153370
H	-0.509140	-2.285618	-1.142630
H	0.106460	-2.557318	0.548370
H	0.960560	2.743882	1.340470
$end

$rem
JOBTYPE		SP
EXCHANGE	HF
CORRELATION	pRIMP2
BASIS		cc-pvtz
METHOD		rimp2
AUX_BASIS	rimp2-cc-pvtz
SOLVENT_METHOD	PCM
PURECART	11111
SYMMETRY	false
MEM_TOTAL	110000
SCF_CONVERGENCE = 6
THRESH=10
GUI = 2
$end

$solvent
dielectric 4.90
$end
--------------------------------------------------------------

             Standard Nuclear Orientation (Angstroms)
    I     Atom           X                Y                Z
 ----------------------------------------------------------------
    1      C      -0.1717400000    -0.3681180000    -0.2155300000
    2      S       0.0993600000     0.3772820000     1.3649700000
    3      C       0.6594600000     1.9162820000     0.6893700000
    4      C       0.1694600000     0.5697820000    -1.2009300000
    5      C       0.6208600000     1.8103820000    -0.7090300000
    6      H       0.0888600000     0.3482820000    -2.2754300000
    7      H       0.9221600000     2.6381820000    -1.3681300000
    8      C      -0.1717400000    -1.8463180000    -0.2155300000
    9      H      -1.1867400000    -1.8469180000     0.1533700000
   10      H      -0.5091400000    -2.2856180000    -1.1426300000
   11      H       0.1064600000    -2.5573180000     0.5483700000
   12      H       0.9605600000     2.7438820000     1.3404700000
 ----------------------------------------------------------------

   10    -590.3627234013      6.17e-07  Convergence criterion met
 Total energy in the final basis set =     -590.3627234013
        RIMP2         total energy =      -591.3655886412 a.u.

                    Orbital Energies (a.u.)
 --------------------------------------------------------------

 Alpha MOs
 -- Occupied --
-91.9773 -11.2856 -11.2671 -11.2430 -11.2355 -11.2244  -8.9774  -6.6583
 -6.6578  -6.6572  -1.1575  -1.0391  -0.9720  -0.9193  -0.7562  -0.7214
 -0.6703  -0.5973  -0.5645  -0.5578  -0.5472  -0.4898  -0.4707  -0.4545
 -0.3462  -0.2994

          Ground-State Mulliken Net Atomic Charges

     Atom                 Charge (a.u.)
  ----------------------------------------
      1 C                    -0.007742
      2 S                    -0.009804
      3 C                    -0.229149
      4 C                    -0.208388
      5 C                    -0.195260
      6 H                     0.184405
      7 H                     0.185033
      8 C                    -0.357929
      9 H                     0.133593
     10 H                     0.130796
     11 H                     0.169398
     12 H                     0.205048
  ----------------------------------------
  Sum of atomic charges =     0.000000

                    Cartesian Multipole Moments
 -----------------------------------------------------------------
    Charge (ESU x 10^10)
                -0.0000
    Dipole Moment (Debye)
         X      -0.2360      Y      -0.5593      Z      -0.8595
       Tot       1.0522
    Quadrupole Moments (Debye-Ang)
        XX     -47.0048     XY       4.1798     YY     -37.0551
        XZ       0.5780     YZ       0.1296     ZZ     -41.8004

 Total job time:  10.29s(wall), 555.07s(cpu)
        *  Thank you very much for using Q-Chem.  Have a nice day.  *
