 Q-Chem 5.4, Q-Chem, Inc., Pleasanton, CA (2021)
 Q-Chem 5.4.0 for Intel X86 EM64T Linux

User input:
--------------------------------------------------------------
$molecule
0 1
C	-0.130562	-0.381707	-0.218828
S	0.074538	0.384493	1.361672
C	0.498338	1.966393	0.686072
C	0.127538	0.582293	-1.204228
C	0.469138	1.857593	-0.712328
H	0.066638	0.354693	-2.278728
H	0.697138	2.708493	-1.371428
C	-0.130562	-1.859907	-0.218828
H	-0.671062	-1.860507	0.716172
H	-0.984962	-2.299207	-0.712128
H	0.573538	-2.570907	0.187572
H	0.726238	2.817093	1.337172
$end

$rem
JOBTYPE		SP
EXCHANGE	HF
CORRELATION	pRIMP2
BASIS		cc-pvtz
METHOD		rimp2
AUX_BASIS	rimp2-cc-pvtz
SOLVENT_METHOD	PCM
PURECART	11111
SYMMETRY	false
MEM_TOTAL	110000
SCF_CONVERGENCE = 6
THRESH=10
GUI = 2
$end

$solvent
dielectric 4.90
$end
--------------------------------------------------------------

             Standard Nuclear Orientation (Angstroms)
    I     Atom           X                Y                Z
 ----------------------------------------------------------------
    1      C      -0.1305620000    -0.3817070000    -0.2188280000
    2      S       0.0745380000     0.3844930000     1.3616720000
    3      C       0.4983380000     1.9663930000     0.6860720000
    4      C       0.1275380000     0.5822930000    -1.2042280000
    5      C       0.4691380000     1.8575930000    -0.7123280000
    6      H       0.0666380000     0.3546930000    -2.2787280000
    7      H       0.6971380000     2.7084930000    -1.3714280000
    8      C      -0.1305620000    -1.8599070000    -0.2188280000
    9      H      -0.6710620000    -1.8605070000     0.7161720000
   10      H      -0.9849620000    -2.2992070000    -0.7121280000
   11      H       0.5735380000    -2.5709070000     0.1875720000
   12      H       0.7262380000     2.8170930000     1.3371720000
 ----------------------------------------------------------------

   10    -590.3665809685      6.17e-07  Convergence criterion met
 Total energy in the final basis set =     -590.3665809685
        RIMP2         total energy =      -591.3693820283 a.u.

                    Orbital Energies (a.u.)
 --------------------------------------------------------------

 Alpha MOs
 -- Occupied --
-91.9796 -11.2815 -11.2705 -11.2433 -11.2374 -11.2231  -8.9796  -6.6604
 -6.6599  -6.6594  -1.1581  -1.0391  -0.9732  -0.9185  -0.7585  -0.7207
 -0.6714  -0.5967  -0.5682  -0.5617  -0.5401  -0.4922  -0.4649  -0.4515
 -0.3465  -0.3093

          Ground-State Mulliken Net Atomic Charges

     Atom                 Charge (a.u.)
  ----------------------------------------
      1 C                     0.002655
      2 S                    -0.003349
      3 C                    -0.227789
      4 C                    -0.210300
      5 C                    -0.193451
      6 H                     0.184387
      7 H                     0.186205
      8 C                    -0.340366
      9 H                     0.112927
     10 H                     0.130072
     11 H                     0.153369
     12 H                     0.205639
  ----------------------------------------
  Sum of atomic charges =     0.000000

                    Cartesian Multipole Moments
 -----------------------------------------------------------------
    Charge (ESU x 10^10)
                -0.0000
    Dipole Moment (Debye)
         X       0.0461      Y      -0.1942      Z      -0.5396
       Tot       0.5754
    Quadrupole Moments (Debye-Ang)
        XX     -47.0039     XY       2.8082     YY     -36.6802
        XZ       0.5257     YZ      -0.3391     ZZ     -42.2229

 Total job time:  9.81s(wall), 535.32s(cpu)
        *  Thank you very much for using Q-Chem.  Have a nice day.  *
