 Q-Chem 5.4, Q-Chem, Inc., Pleasanton, CA (2021)
 Q-Chem 5.4.0 for Intel X86 EM64T Linux

User input:
--------------------------------------------------------------
$molecule
0 1
C	-0.234940	-0.351739	-0.215368
S	0.100060	0.367161	1.365132
C	0.792160	1.851461	0.689532
C	0.186660	0.552861	-1.200768
C	0.744560	1.749361	-0.708868
H	0.087060	0.339261	-2.275268
H	1.116760	2.547861	-1.367968
C	-0.106140	-1.824339	-0.215368
H	0.969860	-1.730839	-0.214868
H	-0.067840	-2.261939	0.771232
H	-0.044240	-2.532539	-1.028368
H	1.164260	2.649661	1.340632
$end

$rem
JOBTYPE		SP
EXCHANGE	HF
CORRELATION	pRIMP2
BASIS		cc-pvtz
METHOD		rimp2
AUX_BASIS	rimp2-cc-pvtz
SOLVENT_METHOD	PCM
PURECART	11111
SYMMETRY	false
MEM_TOTAL	110000
SCF_CONVERGENCE = 6
THRESH=10
GUI = 2
$end

$solvent
dielectric 4.90
$end
--------------------------------------------------------------

             Standard Nuclear Orientation (Angstroms)
    I     Atom           X                Y                Z
 ----------------------------------------------------------------
    1      C      -0.2349400000    -0.3517390000    -0.2153680000
    2      S       0.1000600000     0.3671610000     1.3651320000
    3      C       0.7921600000     1.8514610000     0.6895320000
    4      C       0.1866600000     0.5528610000    -1.2007680000
    5      C       0.7445600000     1.7493610000    -0.7088680000
    6      H       0.0870600000     0.3392610000    -2.2752680000
    7      H       1.1167600000     2.5478610000    -1.3679680000
    8      C      -0.1061400000    -1.8243390000    -0.2153680000
    9      H       0.9698600000    -1.7308390000    -0.2148680000
   10      H      -0.0678400000    -2.2619390000     0.7712320000
   11      H      -0.0442400000    -2.5325390000    -1.0283680000
   12      H       1.1642600000     2.6496610000     1.3406320000
 ----------------------------------------------------------------

   10    -590.3593333445      6.37e-07  Convergence criterion met
 Total energy in the final basis set =     -590.3593333445
        RIMP2         total energy =      -591.3626467202 a.u.

                    Orbital Energies (a.u.)
 --------------------------------------------------------------

 Alpha MOs
 -- Occupied --
-91.9787 -11.2873 -11.2668 -11.2437 -11.2325 -11.2273  -8.9787  -6.6596
 -6.6591  -6.6585  -1.1607  -1.0403  -0.9727  -0.9154  -0.7567  -0.7227
 -0.6715  -0.5963  -0.5668  -0.5582  -0.5391  -0.4954  -0.4746  -0.4569
 -0.3470  -0.2966

          Ground-State Mulliken Net Atomic Charges

     Atom                 Charge (a.u.)
  ----------------------------------------
      1 C                     0.013309
      2 S                     0.000862
      3 C                    -0.242645
      4 C                    -0.237447
      5 C                    -0.183185
      6 H                     0.178782
      7 H                     0.187096
      8 C                    -0.358966
      9 H                     0.147877
     10 H                     0.130014
     11 H                     0.159656
     12 H                     0.204646
  ----------------------------------------
  Sum of atomic charges =     0.000000

                    Cartesian Multipole Moments
 -----------------------------------------------------------------
    Charge (ESU x 10^10)
                 0.0000
    Dipole Moment (Debye)
         X       1.3866      Y      -0.6109      Z      -1.0666
       Tot       1.8530
    Quadrupole Moments (Debye-Ang)
        XX     -46.9314     XY       1.8849     YY     -37.9837
        XZ       0.0131     YZ       1.0733     ZZ     -41.6298

 Total job time:  12.87s(wall), 560.06s(cpu)
        *  Thank you very much for using Q-Chem.  Have a nice day.  *
