 Q-Chem 5.4, Q-Chem, Inc., Pleasanton, CA (2021)
 Q-Chem 5.4.0 for Intel X86 EM64T Linux

User input:
--------------------------------------------------------------
$molecule
0 1
C	-0.219119	-0.350804	-0.220089
S	0.115881	0.368096	1.360411
C	0.807981	1.852396	0.684811
C	0.202481	0.553796	-1.205489
C	0.760381	1.750296	-0.713589
H	0.102881	0.340196	-2.279989
H	1.132581	2.548796	-1.372689
C	-0.219119	-1.829004	-0.220089
H	-0.032119	-1.829604	0.843611
H	-1.190719	-2.268304	-0.048789
H	0.581481	-2.540004	-0.361389
H	1.180081	2.650596	1.335911
$end

$rem
JOBTYPE		SP
EXCHANGE	HF
CORRELATION	pRIMP2
BASIS		cc-pvtz
METHOD		rimp2
AUX_BASIS	rimp2-cc-pvtz
SOLVENT_METHOD	PCM
PURECART	11111
SYMMETRY	false
MEM_TOTAL	110000
SCF_CONVERGENCE = 6
THRESH=10
GUI = 2
$end

$solvent
dielectric 4.90
$end
--------------------------------------------------------------

             Standard Nuclear Orientation (Angstroms)
    I     Atom           X                Y                Z
 ----------------------------------------------------------------
    1      C      -0.2191190000    -0.3508040000    -0.2200890000
    2      S       0.1158810000     0.3680960000     1.3604110000
    3      C       0.8079810000     1.8523960000     0.6848110000
    4      C       0.2024810000     0.5537960000    -1.2054890000
    5      C       0.7603810000     1.7502960000    -0.7135890000
    6      H       0.1028810000     0.3401960000    -2.2799890000
    7      H       1.1325810000     2.5487960000    -1.3726890000
    8      C      -0.2191190000    -1.8290040000    -0.2200890000
    9      H      -0.0321190000    -1.8296040000     0.8436110000
   10      H      -1.1907190000    -2.2683040000    -0.0487890000
   11      H       0.5814810000    -2.5400040000    -0.3613890000
   12      H       1.1800810000     2.6505960000     1.3359110000
 ----------------------------------------------------------------

   10    -590.3557608252      6.50e-07  Convergence criterion met
 Total energy in the final basis set =     -590.3557608252
        RIMP2         total energy =      -591.3605978924 a.u.

                    Orbital Energies (a.u.)
 --------------------------------------------------------------

 Alpha MOs
 -- Occupied --
-91.9791 -11.2768 -11.2735 -11.2431 -11.2399 -11.2201  -8.9793  -6.6601
 -6.6595  -6.6590  -1.1598  -1.0389  -0.9743  -0.9157  -0.7604  -0.7210
 -0.6717  -0.5944  -0.5700  -0.5629  -0.5368  -0.4944  -0.4623  -0.4475
 -0.3451  -0.3115

          Ground-State Mulliken Net Atomic Charges

     Atom                 Charge (a.u.)
  ----------------------------------------
      1 C                     0.000107
      2 S                    -0.004213
      3 C                    -0.223422
      4 C                    -0.211182
      5 C                    -0.188730
      6 H                     0.184456
      7 H                     0.186237
      8 C                    -0.346633
      9 H                     0.115584
     10 H                     0.123028
     11 H                     0.158231
     12 H                     0.206537
  ----------------------------------------
  Sum of atomic charges =     0.000000

                    Cartesian Multipole Moments
 -----------------------------------------------------------------
    Charge (ESU x 10^10)
                -0.0000
    Dipole Moment (Debye)
         X       0.7997      Y      -0.0595      Z      -0.4574
       Tot       0.9232
    Quadrupole Moments (Debye-Ang)
        XX     -45.9951     XY       3.0272     YY     -37.9436
        XZ       0.0359     YZ      -0.3924     ZZ     -42.2288

 Total job time:  10.25s(wall), 537.67s(cpu)
        *  Thank you very much for using Q-Chem.  Have a nice day.  *
