 Q-Chem 5.4, Q-Chem, Inc., Pleasanton, CA (2021)
 Q-Chem 5.4.0 for Intel X86 EM64T Linux

User input:
--------------------------------------------------------------
$molecule
0 1
C	-0.092684	-0.391505	-0.209570
S	0.044816	0.389695	1.370930
C	0.329216	2.002495	0.695330
C	0.080416	0.591395	-1.194970
C	0.309616	1.891595	-0.703070
H	0.039516	0.359295	-2.269470
H	0.462516	2.759095	-1.362170
C	-0.092684	-1.869705	-0.209570
H	0.277216	-1.870305	-1.224270
H	0.834416	-2.309005	0.127930
H	-0.856684	-2.580705	-0.487470
H	0.482016	2.869795	1.346430
$end

$rem
JOBTYPE		SP
EXCHANGE	HF
CORRELATION	pRIMP2
BASIS		cc-pvtz
METHOD		rimp2
AUX_BASIS	rimp2-cc-pvtz
SOLVENT_METHOD	PCM
PURECART	11111
SYMMETRY	false
MEM_TOTAL	110000
SCF_CONVERGENCE = 6
THRESH=10
GUI = 2
$end

$solvent
dielectric 4.90
$end
--------------------------------------------------------------

             Standard Nuclear Orientation (Angstroms)
    I     Atom           X                Y                Z
 ----------------------------------------------------------------
    1      C      -0.0926840000    -0.3915050000    -0.2095700000
    2      S       0.0448160000     0.3896950000     1.3709300000
    3      C       0.3292160000     2.0024950000     0.6953300000
    4      C       0.0804160000     0.5913950000    -1.1949700000
    5      C       0.3096160000     1.8915950000    -0.7030700000
    6      H       0.0395160000     0.3592950000    -2.2694700000
    7      H       0.4625160000     2.7590950000    -1.3621700000
    8      C      -0.0926840000    -1.8697050000    -0.2095700000
    9      H       0.2772160000    -1.8703050000    -1.2242700000
   10      H       0.8344160000    -2.3090050000     0.1279300000
   11      H      -0.8566840000    -2.5807050000    -0.4874700000
   12      H       0.4820160000     2.8697950000     1.3464300000
 ----------------------------------------------------------------

   10    -590.3723262637      5.81e-07  Convergence criterion met
 Total energy in the final basis set =     -590.3723262637
        RIMP2         total energy =      -591.3745255915 a.u.

                    Orbital Energies (a.u.)
 --------------------------------------------------------------

 Alpha MOs
 -- Occupied --
-91.9756 -11.2855 -11.2682 -11.2429 -11.2399 -11.2237  -8.9757  -6.6565
 -6.6560  -6.6555  -1.1573  -1.0381  -0.9728  -0.9187  -0.7546  -0.7242
 -0.6724  -0.5973  -0.5703  -0.5586  -0.5399  -0.4992  -0.4680  -0.4401
 -0.3448  -0.3108

          Ground-State Mulliken Net Atomic Charges

     Atom                 Charge (a.u.)
  ----------------------------------------
      1 C                     0.033879
      2 S                    -0.008145
      3 C                    -0.229369
      4 C                    -0.224080
      5 C                    -0.198212
      6 H                     0.182829
      7 H                     0.186737
      8 C                    -0.360942
      9 H                     0.122688
     10 H                     0.137056
     11 H                     0.153489
     12 H                     0.204070
  ----------------------------------------
  Sum of atomic charges =     0.000000

                    Cartesian Multipole Moments
 -----------------------------------------------------------------
    Charge (ESU x 10^10)
                -0.0000
    Dipole Moment (Debye)
         X       0.4827      Y      -0.3753      Z      -1.7382
       Tot       1.8426
    Quadrupole Moments (Debye-Ang)
        XX     -47.3488     XY       1.1966     YY     -36.3449
        XZ       0.3650     YZ       2.1187     ZZ     -42.0098

 Total job time:  10.46s(wall), 558.94s(cpu)
        *  Thank you very much for using Q-Chem.  Have a nice day.  *
