 Q-Chem 5.4, Q-Chem, Inc., Pleasanton, CA (2021)
 Q-Chem 5.4.0 for Intel X86 EM64T Linux

User input:
--------------------------------------------------------------
$molecule
0 1
C	-0.132265	-0.381707	-0.219778
S	0.072835	0.384493	1.360722
C	0.496635	1.966393	0.685122
C	0.125835	0.582293	-1.205178
C	0.467435	1.857593	-0.713278
H	0.064935	0.354693	-2.279678
H	0.695435	2.708493	-1.372378
C	-0.132265	-1.859907	-0.219778
H	-0.320365	-1.860507	0.843722
H	-1.103865	-2.299207	-0.391178
H	0.668435	-2.570907	-0.078778
H	0.724535	2.817093	1.336222
$end

$rem
JOBTYPE		SP
EXCHANGE	HF
CORRELATION	pRIMP2
BASIS		cc-pvtz
METHOD		rimp2
AUX_BASIS	rimp2-cc-pvtz
SOLVENT_METHOD	PCM
PURECART	11111
SYMMETRY	false
MEM_TOTAL	110000
SCF_CONVERGENCE = 6
THRESH=10
GUI = 2
$end

$solvent
dielectric 4.90
$end
--------------------------------------------------------------

             Standard Nuclear Orientation (Angstroms)
    I     Atom           X                Y                Z
 ----------------------------------------------------------------
    1      C      -0.1322650000    -0.3817070000    -0.2197780000
    2      S       0.0728350000     0.3844930000     1.3607220000
    3      C       0.4966350000     1.9663930000     0.6851220000
    4      C       0.1258350000     0.5822930000    -1.2051780000
    5      C       0.4674350000     1.8575930000    -0.7132780000
    6      H       0.0649350000     0.3546930000    -2.2796780000
    7      H       0.6954350000     2.7084930000    -1.3723780000
    8      C      -0.1322650000    -1.8599070000    -0.2197780000
    9      H      -0.3203650000    -1.8605070000     0.8437220000
   10      H      -1.1038650000    -2.2992070000    -0.3911780000
   11      H       0.6684350000    -2.5709070000    -0.0787780000
   12      H       0.7245350000     2.8170930000     1.3362220000
 ----------------------------------------------------------------

   10    -590.3655049157      6.20e-07  Convergence criterion met
 Total energy in the final basis set =     -590.3655049157
        RIMP2         total energy =      -591.3686903082 a.u.

                    Orbital Energies (a.u.)
 --------------------------------------------------------------

 Alpha MOs
 -- Occupied --
-91.9805 -11.2801 -11.2712 -11.2432 -11.2378 -11.2225  -8.9804  -6.6612
 -6.6607  -6.6601  -1.1584  -1.0392  -0.9736  -0.9178  -0.7593  -0.7206
 -0.6717  -0.5962  -0.5693  -0.5624  -0.5379  -0.4954  -0.4627  -0.4485
 -0.3464  -0.3124

          Ground-State Mulliken Net Atomic Charges

     Atom                 Charge (a.u.)
  ----------------------------------------
      1 C                     0.011598
      2 S                    -0.003618
      3 C                    -0.230754
      4 C                    -0.213951
      5 C                    -0.189478
      6 H                     0.184683
      7 H                     0.186263
      8 C                    -0.338547
      9 H                     0.109674
     10 H                     0.127392
     11 H                     0.150318
     12 H                     0.206422
  ----------------------------------------
  Sum of atomic charges =     0.000000

                    Cartesian Multipole Moments
 -----------------------------------------------------------------
    Charge (ESU x 10^10)
                -0.0000
    Dipole Moment (Debye)
         X       0.2686      Y      -0.1106      Z      -0.4612
       Tot       0.5451
    Quadrupole Moments (Debye-Ang)
        XX     -46.8675     XY       2.3196     YY     -36.7502
        XZ       0.2692     YZ      -0.4004     ZZ     -42.3375

 Total job time:  10.27s(wall), 547.97s(cpu)
        *  Thank you very much for using Q-Chem.  Have a nice day.  *
