 Q-Chem 5.4, Q-Chem, Inc., Pleasanton, CA (2021)
 Q-Chem 5.4.0 for Intel X86 EM64T Linux

User input:
--------------------------------------------------------------
$molecule
0 1
C	-0.138463	-0.381707	-0.218020
S	0.066637	0.384493	1.362480
C	0.490437	1.966393	0.686880
C	0.119637	0.582293	-1.203420
C	0.461237	1.857593	-0.711520
H	0.058737	0.354693	-2.277920
H	0.689237	2.708493	-1.370620
C	-0.138463	-1.859907	-0.218020
H	0.796537	-1.860507	0.322480
H	-0.631763	-2.299207	0.636380
H	0.267937	-2.570907	-0.922120
H	0.718337	2.817093	1.337980
$end

$rem
JOBTYPE		SP
EXCHANGE	HF
CORRELATION	pRIMP2
BASIS		cc-pvtz
METHOD		rimp2
AUX_BASIS	rimp2-cc-pvtz
SOLVENT_METHOD	PCM
PURECART	11111
SYMMETRY	false
MEM_TOTAL	110000
SCF_CONVERGENCE = 6
THRESH=10
GUI = 2
$end

$solvent
dielectric 4.90
$end
--------------------------------------------------------------

             Standard Nuclear Orientation (Angstroms)
    I     Atom           X                Y                Z
 ----------------------------------------------------------------
    1      C      -0.1384630000    -0.3817070000    -0.2180200000
    2      S       0.0666370000     0.3844930000     1.3624800000
    3      C       0.4904370000     1.9663930000     0.6868800000
    4      C       0.1196370000     0.5822930000    -1.2034200000
    5      C       0.4612370000     1.8575930000    -0.7115200000
    6      H       0.0587370000     0.3546930000    -2.2779200000
    7      H       0.6892370000     2.7084930000    -1.3706200000
    8      C      -0.1384630000    -1.8599070000    -0.2180200000
    9      H       0.7965370000    -1.8605070000     0.3224800000
   10      H      -0.6317630000    -2.2992070000     0.6363800000
   11      H       0.2679370000    -2.5709070000    -0.9221200000
   12      H       0.7183370000     2.8170930000     1.3379800000
 ----------------------------------------------------------------

   10    -590.3701548962      6.41e-07  Convergence criterion met
 Total energy in the final basis set =     -590.3701548962
        RIMP2         total energy =      -591.3705694278 a.u.

                    Orbital Energies (a.u.)
 --------------------------------------------------------------

 Alpha MOs
 -- Occupied --
-91.9779 -11.2889 -11.2659 -11.2428 -11.2327 -11.2269  -8.9781  -6.6590
 -6.6585  -6.6579  -1.1584  -1.0409  -0.9719  -0.9182  -0.7563  -0.7213
 -0.6717  -0.5967  -0.5669  -0.5619  -0.5343  -0.5009  -0.4728  -0.4556
 -0.3470  -0.3003

          Ground-State Mulliken Net Atomic Charges

     Atom                 Charge (a.u.)
  ----------------------------------------
      1 C                     0.027761
      2 S                    -0.004622
      3 C                    -0.243437
      4 C                    -0.253999
      5 C                    -0.178633
      6 H                     0.183201
      7 H                     0.186188
      8 C                    -0.358451
      9 H                     0.136825
     10 H                     0.134661
     11 H                     0.165722
     12 H                     0.204782
  ----------------------------------------
  Sum of atomic charges =     0.000000

                    Cartesian Multipole Moments
 -----------------------------------------------------------------
    Charge (ESU x 10^10)
                -0.0000
    Dipole Moment (Debye)
         X       0.9205      Y      -0.6627      Z      -0.7247
       Tot       1.3460
    Quadrupole Moments (Debye-Ang)
        XX     -47.6680     XY       0.9355     YY     -36.5191
        XZ      -0.3295     YZ       0.3539     ZZ     -42.0162

 Total job time:  10.47s(wall), 554.05s(cpu)
        *  Thank you very much for using Q-Chem.  Have a nice day.  *
