 Q-Chem 5.4, Q-Chem, Inc., Pleasanton, CA (2021)
 Q-Chem 5.4.0 for Intel X86 EM64T Linux

User input:
--------------------------------------------------------------
$molecule
0 1
C	-0.087211	-0.391505	-0.219377
S	0.050289	0.389695	1.361123
C	0.334689	2.002495	0.685523
C	0.085889	0.591395	-1.204777
C	0.315089	1.891595	-0.712877
H	0.044989	0.359295	-2.279277
H	0.467989	2.759095	-1.371977
C	-0.087211	-1.869705	-0.219377
H	-0.457111	-1.870305	0.795323
H	-1.014311	-2.309005	-0.556877
H	0.676789	-2.580705	0.058523
H	0.487489	2.869795	1.336623
$end

$rem
JOBTYPE		SP
EXCHANGE	HF
CORRELATION	pRIMP2
BASIS		cc-pvtz
METHOD		rimp2
AUX_BASIS	rimp2-cc-pvtz
SOLVENT_METHOD	PCM
PURECART	11111
SYMMETRY	false
MEM_TOTAL	110000
SCF_CONVERGENCE = 6
THRESH=10
GUI = 2
$end

$solvent
dielectric 4.90
$end
--------------------------------------------------------------

             Standard Nuclear Orientation (Angstroms)
    I     Atom           X                Y                Z
 ----------------------------------------------------------------
    1      C      -0.0872110000    -0.3915050000    -0.2193770000
    2      S       0.0502890000     0.3896950000     1.3611230000
    3      C       0.3346890000     2.0024950000     0.6855230000
    4      C       0.0858890000     0.5913950000    -1.2047770000
    5      C       0.3150890000     1.8915950000    -0.7128770000
    6      H       0.0449890000     0.3592950000    -2.2792770000
    7      H       0.4679890000     2.7590950000    -1.3719770000
    8      C      -0.0872110000    -1.8697050000    -0.2193770000
    9      H      -0.4571110000    -1.8703050000     0.7953230000
   10      H      -1.0143110000    -2.3090050000    -0.5568770000
   11      H       0.6767890000    -2.5807050000     0.0585230000
   12      H       0.4874890000     2.8697950000     1.3366230000
 ----------------------------------------------------------------

   10    -590.3687169693      6.03e-07  Convergence criterion met
 Total energy in the final basis set =     -590.3687169693
        RIMP2         total energy =      -591.3711236252 a.u.

                    Orbital Energies (a.u.)
 --------------------------------------------------------------

 Alpha MOs
 -- Occupied --
-91.9802 -11.2821 -11.2700 -11.2432 -11.2370 -11.2234  -8.9801  -6.6610
 -6.6604  -6.6599  -1.1580  -1.0394  -0.9733  -0.9184  -0.7587  -0.7205
 -0.6717  -0.5969  -0.5689  -0.5621  -0.5381  -0.4960  -0.4635  -0.4501
 -0.3465  -0.3111

          Ground-State Mulliken Net Atomic Charges

     Atom                 Charge (a.u.)
  ----------------------------------------
      1 C                     0.015125
      2 S                    -0.003437
      3 C                    -0.232147
      4 C                    -0.214077
      5 C                    -0.191709
      6 H                     0.184723
      7 H                     0.186204
      8 C                    -0.340522
      9 H                     0.110746
     10 H                     0.129796
     11 H                     0.149302
     12 H                     0.205997
  ----------------------------------------
  Sum of atomic charges =     0.000000

                    Cartesian Multipole Moments
 -----------------------------------------------------------------
    Charge (ESU x 10^10)
                -0.0000
    Dipole Moment (Debye)
         X       0.0178      Y      -0.1839      Z      -0.4856
       Tot       0.5195
    Quadrupole Moments (Debye-Ang)
        XX     -47.2515     XY       1.8543     YY     -36.3481
        XZ       0.3792     YZ      -0.3934     ZZ     -42.3249

 Total job time:  10.75s(wall), 555.64s(cpu)
        *  Thank you very much for using Q-Chem.  Have a nice day.  *
