 Q-Chem 5.4, Q-Chem, Inc., Pleasanton, CA (2021)
 Q-Chem 5.4.0 for Intel X86 EM64T Linux

User input:
--------------------------------------------------------------
$molecule
0 1
C	-0.137655	-0.381707	-0.210119
S	0.067445	0.384493	1.370381
C	0.491245	1.966393	0.694781
C	0.120445	0.582293	-1.195519
C	0.462045	1.857593	-0.703619
H	0.059545	0.354693	-2.270019
H	0.690045	2.708493	-1.362719
C	-0.137655	-1.859907	-0.210119
H	0.402845	-1.860507	-1.145119
H	0.716745	-2.299207	0.283181
H	-0.841755	-2.570907	-0.616519
H	0.719145	2.817093	1.345881
$end

$rem
JOBTYPE		SP
EXCHANGE	HF
CORRELATION	pRIMP2
BASIS		cc-pvtz
METHOD		rimp2
AUX_BASIS	rimp2-cc-pvtz
SOLVENT_METHOD	PCM
PURECART	11111
SYMMETRY	false
MEM_TOTAL	110000
SCF_CONVERGENCE = 6
THRESH=10
GUI = 2
$end

$solvent
dielectric 4.90
$end
--------------------------------------------------------------

             Standard Nuclear Orientation (Angstroms)
    I     Atom           X                Y                Z
 ----------------------------------------------------------------
    1      C      -0.1376550000    -0.3817070000    -0.2101190000
    2      S       0.0674450000     0.3844930000     1.3703810000
    3      C       0.4912450000     1.9663930000     0.6947810000
    4      C       0.1204450000     0.5822930000    -1.1955190000
    5      C       0.4620450000     1.8575930000    -0.7036190000
    6      H       0.0595450000     0.3546930000    -2.2700190000
    7      H       0.6900450000     2.7084930000    -1.3627190000
    8      C      -0.1376550000    -1.8599070000    -0.2101190000
    9      H       0.4028450000    -1.8605070000    -1.1451190000
   10      H       0.7167450000    -2.2992070000     0.2831810000
   11      H      -0.8417550000    -2.5709070000    -0.6165190000
   12      H       0.7191450000     2.8170930000     1.3458810000
 ----------------------------------------------------------------

   10    -590.3697536195      5.92e-07  Convergence criterion met
 Total energy in the final basis set =     -590.3697536195
        RIMP2         total energy =      -591.3722937733 a.u.

                    Orbital Energies (a.u.)
 --------------------------------------------------------------

 Alpha MOs
 -- Occupied --
-91.9765 -11.2858 -11.2675 -11.2429 -11.2384 -11.2237  -8.9765  -6.6573
 -6.6568  -6.6563  -1.1576  -1.0383  -0.9728  -0.9180  -0.7547  -0.7240
 -0.6720  -0.5973  -0.5693  -0.5575  -0.5414  -0.4972  -0.4687  -0.4436
 -0.3448  -0.3081

          Ground-State Mulliken Net Atomic Charges

     Atom                 Charge (a.u.)
  ----------------------------------------
      1 C                     0.030162
      2 S                    -0.006059
      3 C                    -0.230951
      4 C                    -0.225702
      5 C                    -0.195639
      6 H                     0.181919
      7 H                     0.186608
      8 C                    -0.365175
      9 H                     0.128469
     10 H                     0.138476
     11 H                     0.154185
     12 H                     0.203707
  ----------------------------------------
  Sum of atomic charges =     0.000000

                    Cartesian Multipole Moments
 -----------------------------------------------------------------
    Charge (ESU x 10^10)
                -0.0000
    Dipole Moment (Debye)
         X       0.6992      Y      -0.4400      Z      -1.6812
       Tot       1.8732
    Quadrupole Moments (Debye-Ang)
        XX     -47.2079     XY       1.6485     YY     -36.7689
        XZ       0.4835     YZ       2.0516     ZZ     -41.8820

 Total job time:  13.77s(wall), 559.69s(cpu)
        *  Thank you very much for using Q-Chem.  Have a nice day.  *
