 Q-Chem 5.4, Q-Chem, Inc., Pleasanton, CA (2021)
 Q-Chem 5.4.0 for Intel X86 EM64T Linux

User input:
--------------------------------------------------------------
$molecule
0 1
C	-0.327666	-0.278098	-0.213580
S	0.182034	0.329602	1.366920
C	1.234734	1.584202	0.691320
C	0.313734	0.486502	-1.198980
C	1.162234	1.497902	-0.707080
H	0.162234	0.306002	-2.273480
H	1.728434	2.172802	-1.366180
C	-0.327666	-1.756298	-0.213580
H	-1.407666	-1.756898	-0.214080
H	-0.327666	-2.195598	-1.200180
H	-0.327566	-2.467298	0.599420
H	1.800734	2.258902	1.342420
$end

$rem
JOBTYPE		SP
EXCHANGE	HF
CORRELATION	pRIMP2
BASIS		cc-pvtz
METHOD		rimp2
AUX_BASIS	rimp2-cc-pvtz
SOLVENT_METHOD	PCM
PURECART	11111
SYMMETRY	false
MEM_TOTAL	110000
SCF_CONVERGENCE = 6
THRESH=10
GUI = 2
$end

$solvent
dielectric 4.90
$end
--------------------------------------------------------------

             Standard Nuclear Orientation (Angstroms)
    I     Atom           X                Y                Z
 ----------------------------------------------------------------
    1      C      -0.3276660000    -0.2780980000    -0.2135800000
    2      S       0.1820340000     0.3296020000     1.3669200000
    3      C       1.2347340000     1.5842020000     0.6913200000
    4      C       0.3137340000     0.4865020000    -1.1989800000
    5      C       1.1622340000     1.4979020000    -0.7070800000
    6      H       0.1622340000     0.3060020000    -2.2734800000
    7      H       1.7284340000     2.1728020000    -1.3661800000
    8      C      -0.3276660000    -1.7562980000    -0.2135800000
    9      H      -1.4076660000    -1.7568980000    -0.2140800000
   10      H      -0.3276660000    -2.1955980000    -1.2001800000
   11      H      -0.3275660000    -2.4672980000     0.5994200000
   12      H       1.8007340000     2.2589020000     1.3424200000
 ----------------------------------------------------------------

   10    -590.3337893669      9.69e-07  Convergence criterion met
 Total energy in the final basis set =     -590.3337893669
        RIMP2         total energy =      -591.3432746193 a.u.

                    Orbital Energies (a.u.)
 --------------------------------------------------------------

 Alpha MOs
 -- Occupied --
-91.9755 -11.2740 -11.2735 -11.2436 -11.2418 -11.2178  -8.9758  -6.6566
 -6.6560  -6.6555  -1.1599  -1.0365  -0.9735  -0.9157  -0.7578  -0.7231
 -0.6692  -0.5939  -0.5603  -0.5557  -0.5526  -0.4953  -0.4597  -0.4471
 -0.3450  -0.2951

          Ground-State Mulliken Net Atomic Charges

     Atom                 Charge (a.u.)
  ----------------------------------------
      1 C                    -0.031650
      2 S                     0.000437
      3 C                    -0.212822
      4 C                    -0.185068
      5 C                    -0.199315
      6 H                     0.184256
      7 H                     0.185995
      8 C                    -0.372522
      9 H                     0.128357
     10 H                     0.131447
     11 H                     0.165879
     12 H                     0.205007
  ----------------------------------------
  Sum of atomic charges =     0.000000

                    Cartesian Multipole Moments
 -----------------------------------------------------------------
    Charge (ESU x 10^10)
                 0.0000
    Dipole Moment (Debye)
         X       0.4055      Y      -0.3492      Z      -1.1309
       Tot       1.2511
    Quadrupole Moments (Debye-Ang)
        XX     -44.3836     XY       5.8165     YY     -40.1947
        XZ       0.5626     YZ       0.4374     ZZ     -41.3214

 Total job time:  10.17s(wall), 561.29s(cpu)
        *  Thank you very much for using Q-Chem.  Have a nice day.  *
