 Q-Chem 5.4, Q-Chem, Inc., Pleasanton, CA (2021)
 Q-Chem 5.4.0 for Intel X86 EM64T Linux

User input:
--------------------------------------------------------------
$molecule
0 1
C	-0.171951	-0.368118	-0.212630
S	0.099149	0.377282	1.367870
C	0.659249	1.916282	0.692270
C	0.169249	0.569782	-1.198030
C	0.620649	1.810382	-0.706130
H	0.088649	0.348282	-2.272530
H	0.921949	2.638182	-1.365230
C	-0.171951	-1.846318	-0.212630
H	-1.235451	-1.846918	-0.400730
H	-0.000551	-2.285618	-1.184230
H	-0.312951	-2.557318	0.588070
H	0.960349	2.743882	1.343370
$end

$rem
JOBTYPE		SP
EXCHANGE	HF
CORRELATION	pRIMP2
BASIS		cc-pvtz
METHOD		rimp2
AUX_BASIS	rimp2-cc-pvtz
SOLVENT_METHOD	PCM
PURECART	11111
SYMMETRY	false
MEM_TOTAL	110000
SCF_CONVERGENCE = 6
THRESH=10
GUI = 2
$end

$solvent
dielectric 4.90
$end
--------------------------------------------------------------

             Standard Nuclear Orientation (Angstroms)
    I     Atom           X                Y                Z
 ----------------------------------------------------------------
    1      C      -0.1719510000    -0.3681180000    -0.2126300000
    2      S       0.0991490000     0.3772820000     1.3678700000
    3      C       0.6592490000     1.9162820000     0.6922700000
    4      C       0.1692490000     0.5697820000    -1.1980300000
    5      C       0.6206490000     1.8103820000    -0.7061300000
    6      H       0.0886490000     0.3482820000    -2.2725300000
    7      H       0.9219490000     2.6381820000    -1.3652300000
    8      C      -0.1719510000    -1.8463180000    -0.2126300000
    9      H      -1.2354510000    -1.8469180000    -0.4007300000
   10      H      -0.0005510000    -2.2856180000    -1.1842300000
   11      H      -0.3129510000    -2.5573180000     0.5880700000
   12      H       0.9603490000     2.7438820000     1.3433700000
 ----------------------------------------------------------------

   10    -590.3621474588      6.32e-07  Convergence criterion met
 Total energy in the final basis set =     -590.3621474588
        RIMP2         total energy =      -591.3652578171 a.u.

                    Orbital Energies (a.u.)
 --------------------------------------------------------------

 Alpha MOs
 -- Occupied --
-91.9764 -11.2880 -11.2643 -11.2430 -11.2347 -11.2251  -8.9764  -6.6573
 -6.6568  -6.6562  -1.1570  -1.0393  -0.9714  -0.9194  -0.7547  -0.7220
 -0.6700  -0.5974  -0.5629  -0.5553  -0.5507  -0.4969  -0.4671  -0.4523
 -0.3457  -0.2969

          Ground-State Mulliken Net Atomic Charges

     Atom                 Charge (a.u.)
  ----------------------------------------
      1 C                     0.021529
      2 S                    -0.000890
      3 C                    -0.245237
      4 C                    -0.239750
      5 C                    -0.184089
      6 H                     0.180914
      7 H                     0.186594
      8 C                    -0.368064
      9 H                     0.135439
     10 H                     0.138001
     11 H                     0.172051
     12 H                     0.203500
  ----------------------------------------
  Sum of atomic charges =     0.000000

                    Cartesian Multipole Moments
 -----------------------------------------------------------------
    Charge (ESU x 10^10)
                -0.0000
    Dipole Moment (Debye)
         X      -0.3417      Y      -0.7498      Z      -1.2237
       Tot       1.4752
    Quadrupole Moments (Debye-Ang)
        XX     -47.0685     XY       4.3658     YY     -37.0782
        XZ       0.2164     YZ       0.7610     ZZ     -41.6573

 Total job time:  11.68s(wall), 545.61s(cpu)
        *  Thank you very much for using Q-Chem.  Have a nice day.  *
