 Q-Chem 5.4, Q-Chem, Inc., Pleasanton, CA (2021)
 Q-Chem 5.4.0 for Intel X86 EM64T Linux

User input:
--------------------------------------------------------------
$molecule
0 1
C	0.002816	-0.399361	-0.219377
S	0.002616	0.393839	1.361123
C	0.002616	2.031539	0.685523
C	0.002616	0.598639	-1.204777
C	0.002516	1.918839	-0.712877
H	0.002716	0.362939	-2.279277
H	0.002516	2.799839	-1.371977
C	0.002816	-1.877561	-0.219377
H	-0.367084	-1.878161	0.795323
H	-0.924284	-2.316861	-0.556877
H	0.766816	-2.588561	0.058523
H	0.002516	2.912239	1.336623
$end

$rem
JOBTYPE		SP
EXCHANGE	HF
CORRELATION	pRIMP2
BASIS		cc-pvtz
METHOD		rimp2
AUX_BASIS	rimp2-cc-pvtz
SOLVENT_METHOD	PCM
PURECART	11111
SYMMETRY	false
MEM_TOTAL	110000
SCF_CONVERGENCE = 6
THRESH=10
GUI = 2
$end

$solvent
dielectric 4.90
$end
--------------------------------------------------------------

             Standard Nuclear Orientation (Angstroms)
    I     Atom           X                Y                Z
 ----------------------------------------------------------------
    1      C       0.0028160000    -0.3993610000    -0.2193770000
    2      S       0.0026160000     0.3938390000     1.3611230000
    3      C       0.0026160000     2.0315390000     0.6855230000
    4      C       0.0026160000     0.5986390000    -1.2047770000
    5      C       0.0025160000     1.9188390000    -0.7128770000
    6      H       0.0027160000     0.3629390000    -2.2792770000
    7      H       0.0025160000     2.7998390000    -1.3719770000
    8      C       0.0028160000    -1.8775610000    -0.2193770000
    9      H      -0.3670840000    -1.8781610000     0.7953230000
   10      H      -0.9242840000    -2.3168610000    -0.5568770000
   11      H       0.7668160000    -2.5885610000     0.0585230000
   12      H       0.0025160000     2.9122390000     1.3366230000
 ----------------------------------------------------------------

   10    -590.3710076183      5.90e-07  Convergence criterion met
 Total energy in the final basis set =     -590.3710076183
        RIMP2         total energy =      -591.3727622490 a.u.

                    Orbital Energies (a.u.)
 --------------------------------------------------------------

 Alpha MOs
 -- Occupied --
-91.9800 -11.2838 -11.2689 -11.2431 -11.2363 -11.2240  -8.9800  -6.6608
 -6.6603  -6.6597  -1.1579  -1.0399  -0.9731  -0.9186  -0.7585  -0.7204
 -0.6716  -0.5973  -0.5692  -0.5620  -0.5366  -0.4993  -0.4635  -0.4503
 -0.3465  -0.3108

          Ground-State Mulliken Net Atomic Charges

     Atom                 Charge (a.u.)
  ----------------------------------------
      1 C                     0.024839
      2 S                    -0.003923
      3 C                    -0.235031
      4 C                    -0.216053
      5 C                    -0.191347
      6 H                     0.184996
      7 H                     0.185930
      8 C                    -0.347504
      9 H                     0.112333
     10 H                     0.129594
     11 H                     0.150258
     12 H                     0.205907
  ----------------------------------------
  Sum of atomic charges =     0.000000

                    Cartesian Multipole Moments
 -----------------------------------------------------------------
    Charge (ESU x 10^10)
                -0.0000
    Dipole Moment (Debye)
         X      -0.2364      Y      -0.2466      Z      -0.4752
       Tot       0.5852
    Quadrupole Moments (Debye-Ang)
        XX     -47.5527     XY       0.3108     YY     -36.0501
        XZ       0.3160     YZ      -0.4176     ZZ     -42.3533

 Total job time:  9.98s(wall), 539.99s(cpu)
        *  Thank you very much for using Q-Chem.  Have a nice day.  *
