 Q-Chem 5.4, Q-Chem, Inc., Pleasanton, CA (2021)
 Q-Chem 5.4.0 for Intel X86 EM64T Linux

User input:
--------------------------------------------------------------
$molecule
0 1
C	-0.139413	-0.381707	-0.216317
S	0.065687	0.384493	1.364183
C	0.489487	1.966393	0.688583
C	0.118687	0.582293	-1.201717
C	0.460287	1.857593	-0.709817
H	0.057787	0.354693	-2.276217
H	0.688287	2.708493	-1.368917
C	-0.139413	-1.859907	-0.216317
H	0.924087	-1.860507	-0.028217
H	-0.310813	-2.299207	0.755283
H	0.001587	-2.570907	-1.017017
H	0.717387	2.817093	1.339683
$end

$rem
JOBTYPE		SP
EXCHANGE	HF
CORRELATION	pRIMP2
BASIS		cc-pvtz
METHOD		rimp2
AUX_BASIS	rimp2-cc-pvtz
SOLVENT_METHOD	PCM
PURECART	11111
SYMMETRY	false
MEM_TOTAL	110000
SCF_CONVERGENCE = 6
THRESH=10
GUI = 2
$end

$solvent
dielectric 4.90
$end
--------------------------------------------------------------

             Standard Nuclear Orientation (Angstroms)
    I     Atom           X                Y                Z
 ----------------------------------------------------------------
    1      C      -0.1394130000    -0.3817070000    -0.2163170000
    2      S       0.0656870000     0.3844930000     1.3641830000
    3      C       0.4894870000     1.9663930000     0.6885830000
    4      C       0.1186870000     0.5822930000    -1.2017170000
    5      C       0.4602870000     1.8575930000    -0.7098170000
    6      H       0.0577870000     0.3546930000    -2.2762170000
    7      H       0.6882870000     2.7084930000    -1.3689170000
    8      C      -0.1394130000    -1.8599070000    -0.2163170000
    9      H       0.9240870000    -1.8605070000    -0.0282170000
   10      H      -0.3108130000    -2.2992070000     0.7552830000
   11      H       0.0015870000    -2.5709070000    -1.0170170000
   12      H       0.7173870000     2.8170930000     1.3396830000
 ----------------------------------------------------------------

   10    -590.3718352708      6.57e-07  Convergence criterion met
 Total energy in the final basis set =     -590.3718352708
        RIMP2         total energy =      -591.3718687577 a.u.

                    Orbital Energies (a.u.)
 --------------------------------------------------------------

 Alpha MOs
 -- Occupied --
-91.9788 -11.2913 -11.2634 -11.2429 -11.2304 -11.2290  -8.9787  -6.6597
 -6.6592  -6.6585  -1.1582  -1.0412  -0.9714  -0.9185  -0.7554  -0.7218
 -0.6715  -0.5971  -0.5664  -0.5587  -0.5384  -0.4980  -0.4775  -0.4566
 -0.3471  -0.2977

          Ground-State Mulliken Net Atomic Charges

     Atom                 Charge (a.u.)
  ----------------------------------------
      1 C                     0.027458
      2 S                    -0.002652
      3 C                    -0.250452
      4 C                    -0.252930
      5 C                    -0.179339
      6 H                     0.180596
      7 H                     0.186011
      8 C                    -0.360037
      9 H                     0.145522
     10 H                     0.134445
     11 H                     0.166919
     12 H                     0.204460
  ----------------------------------------
  Sum of atomic charges =     0.000000

                    Cartesian Multipole Moments
 -----------------------------------------------------------------
    Charge (ESU x 10^10)
                 0.0000
    Dipole Moment (Debye)
         X       0.9959      Y      -0.8388      Z      -0.9342
       Tot       1.6025
    Quadrupole Moments (Debye-Ang)
        XX     -47.8900     XY       0.8178     YY     -36.4794
        XZ      -0.1725     YZ       0.8423     ZZ     -41.8282

 Total job time:  10.32s(wall), 547.37s(cpu)
        *  Thank you very much for using Q-Chem.  Have a nice day.  *
