 Q-Chem 5.4, Q-Chem, Inc., Pleasanton, CA (2021)
 Q-Chem 5.4.0 for Intel X86 EM64T Linux

User input:
--------------------------------------------------------------
$molecule
0 1
C	-0.328961	-0.278098	-0.218146
S	0.180739	0.329602	1.362354
C	1.233439	1.584202	0.686754
C	0.312439	0.486502	-1.203546
C	1.160939	1.497902	-0.711646
H	0.160939	0.306002	-2.278046
H	1.727139	2.172802	-1.370746
C	-0.328961	-1.756298	-0.218146
H	-1.023561	-1.756898	0.608854
H	-1.084761	-2.195598	-0.852346
H	0.293939	-2.467298	0.304354
H	1.799439	2.258902	1.337854
$end

$rem
JOBTYPE		SP
EXCHANGE	HF
CORRELATION	pRIMP2
BASIS		cc-pvtz
METHOD		rimp2
AUX_BASIS	rimp2-cc-pvtz
SOLVENT_METHOD	PCM
PURECART	11111
SYMMETRY	false
MEM_TOTAL	110000
SCF_CONVERGENCE = 6
THRESH=10
GUI = 2
$end

$solvent
dielectric 4.90
$end
--------------------------------------------------------------

             Standard Nuclear Orientation (Angstroms)
    I     Atom           X                Y                Z
 ----------------------------------------------------------------
    1      C      -0.3289610000    -0.2780980000    -0.2181460000
    2      S       0.1807390000     0.3296020000     1.3623540000
    3      C       1.2334390000     1.5842020000     0.6867540000
    4      C       0.3124390000     0.4865020000    -1.2035460000
    5      C       1.1609390000     1.4979020000    -0.7116460000
    6      H       0.1609390000     0.3060020000    -2.2780460000
    7      H       1.7271390000     2.1728020000    -1.3707460000
    8      C      -0.3289610000    -1.7562980000    -0.2181460000
    9      H      -1.0235610000    -1.7568980000     0.6088540000
   10      H      -1.0847610000    -2.1955980000    -0.8523460000
   11      H       0.2939390000    -2.4672980000     0.3043540000
   12      H       1.7994390000     2.2589020000     1.3378540000
 ----------------------------------------------------------------

   10    -590.3385955190      9.74e-07  Convergence criterion met
 Total energy in the final basis set =     -590.3385955190
        RIMP2         total energy =      -591.3471217168 a.u.

                    Orbital Energies (a.u.)
 --------------------------------------------------------------

 Alpha MOs
 -- Occupied --
-91.9785 -11.2805 -11.2667 -11.2453 -11.2437 -11.2175  -8.9787  -6.6595
 -6.6589  -6.6584  -1.1615  -1.0365  -0.9757  -0.9145  -0.7612  -0.7228
 -0.6707  -0.5938  -0.5666  -0.5612  -0.5466  -0.4786  -0.4596  -0.4513
 -0.3458  -0.3075

          Ground-State Mulliken Net Atomic Charges

     Atom                 Charge (a.u.)
  ----------------------------------------
      1 C                    -0.061657
      2 S                     0.002940
      3 C                    -0.196287
      4 C                    -0.157782
      5 C                    -0.205246
      6 H                     0.184737
      7 H                     0.186276
      8 C                    -0.356047
      9 H                     0.114582
     10 H                     0.121882
     11 H                     0.160109
     12 H                     0.206495
  ----------------------------------------
  Sum of atomic charges =     0.000000

                    Cartesian Multipole Moments
 -----------------------------------------------------------------
    Charge (ESU x 10^10)
                 0.0000
    Dipole Moment (Debye)
         X       0.9206      Y       0.1016      Z      -0.6687
       Tot       1.1424
    Quadrupole Moments (Debye-Ang)
        XX     -43.9810     XY       5.2799     YY     -40.2086
        XZ       0.8407     YZ      -0.2078     ZZ     -41.7530

 Total job time:  10.65s(wall), 547.88s(cpu)
        *  Thank you very much for using Q-Chem.  Have a nice day.  *
