 Q-Chem 5.4, Q-Chem, Inc., Pleasanton, CA (2021)
 Q-Chem 5.4.0 for Intel X86 EM64T Linux

User input:
--------------------------------------------------------------
$molecule
0 1
C	-0.335947	-0.278098	-0.209570
S	0.173753	0.329602	1.370930
C	1.226453	1.584202	0.695330
C	0.305453	0.486502	-1.194970
C	1.153953	1.497902	-0.703070
H	0.153953	0.306002	-2.269470
H	1.720153	2.172802	-1.362170
C	-0.335947	-1.756298	-0.209570
H	0.033953	-1.756898	-1.224270
H	0.591153	-2.195598	0.127930
H	-1.099947	-2.467298	-0.487470
H	1.792453	2.258902	1.346430
$end

$rem
JOBTYPE		SP
EXCHANGE	HF
CORRELATION	pRIMP2
BASIS		cc-pvtz
METHOD		rimp2
AUX_BASIS	rimp2-cc-pvtz
SOLVENT_METHOD	PCM
PURECART	11111
SYMMETRY	false
MEM_TOTAL	110000
SCF_CONVERGENCE = 6
THRESH=10
GUI = 2
$end

$solvent
dielectric 4.90
$end
--------------------------------------------------------------

             Standard Nuclear Orientation (Angstroms)
    I     Atom           X                Y                Z
 ----------------------------------------------------------------
    1      C      -0.3359470000    -0.2780980000    -0.2095700000
    2      S       0.1737530000     0.3296020000     1.3709300000
    3      C       1.2264530000     1.5842020000     0.6953300000
    4      C       0.3054530000     0.4865020000    -1.1949700000
    5      C       1.1539530000     1.4979020000    -0.7030700000
    6      H       0.1539530000     0.3060020000    -2.2694700000
    7      H       1.7201530000     2.1728020000    -1.3621700000
    8      C      -0.3359470000    -1.7562980000    -0.2095700000
    9      H       0.0339530000    -1.7568980000    -1.2242700000
   10      H       0.5911530000    -2.1955980000     0.1279300000
   11      H      -1.0999470000    -2.4672980000    -0.4874700000
   12      H       1.7924530000     2.2589020000     1.3464300000
 ----------------------------------------------------------------

   10    -590.3426942346      8.29e-07  Convergence criterion met
 Total energy in the final basis set =     -590.3426942346
        RIMP2         total energy =      -591.3512454928 a.u.

                    Orbital Energies (a.u.)
 --------------------------------------------------------------

 Alpha MOs
 -- Occupied --
-91.9753 -11.2769 -11.2733 -11.2459 -11.2433 -11.2184  -8.9756  -6.6564
 -6.6557  -6.6553  -1.1623  -1.0370  -0.9754  -0.9122  -0.7577  -0.7262
 -0.6715  -0.5961  -0.5726  -0.5555  -0.5424  -0.4865  -0.4688  -0.4381
 -0.3423  -0.3104

          Ground-State Mulliken Net Atomic Charges

     Atom                 Charge (a.u.)
  ----------------------------------------
      1 C                    -0.021114
      2 S                     0.001167
      3 C                    -0.205154
      4 C                    -0.182980
      5 C                    -0.207896
      6 H                     0.180350
      7 H                     0.187788
      8 C                    -0.358127
      9 H                     0.122530
     10 H                     0.137443
     11 H                     0.141441
     12 H                     0.204550
  ----------------------------------------
  Sum of atomic charges =     0.000000

                    Cartesian Multipole Moments
 -----------------------------------------------------------------
    Charge (ESU x 10^10)
                 0.0000
    Dipole Moment (Debye)
         X       1.4286      Y      -0.1593      Z      -1.7214
       Tot       2.2427
    Quadrupole Moments (Debye-Ang)
        XX     -44.2139     XY       4.2474     YY     -40.3484
        XZ       0.8334     YZ       1.8517     ZZ     -41.6315

 Total job time:  10.36s(wall), 565.37s(cpu)
        *  Thank you very much for using Q-Chem.  Have a nice day.  *
