 Q-Chem 5.4, Q-Chem, Inc., Pleasanton, CA (2021)
 Q-Chem 5.4.0 for Intel X86 EM64T Linux

User input:
--------------------------------------------------------------
$molecule
0 1
C	0.004983	-0.399361	-0.211737
S	0.004783	0.393839	1.368763
C	0.004783	2.031539	0.693163
C	0.004783	0.598639	-1.197137
C	0.004683	1.918839	-0.705237
H	0.004883	0.362939	-2.271637
H	0.004683	2.799839	-1.364337
C	0.004983	-1.877561	-0.211737
H	-1.009717	-1.878161	-0.581637
H	0.342483	-2.316861	-1.138837
H	-0.272917	-2.588561	0.552263
H	0.004683	2.912239	1.344263
$end

$rem
JOBTYPE		SP
EXCHANGE	HF
CORRELATION	pRIMP2
BASIS		cc-pvtz
METHOD		rimp2
AUX_BASIS	rimp2-cc-pvtz
SOLVENT_METHOD	PCM
PURECART	11111
SYMMETRY	false
MEM_TOTAL	110000
SCF_CONVERGENCE = 6
THRESH=10
GUI = 2
$end

$solvent
dielectric 4.90
$end
--------------------------------------------------------------

             Standard Nuclear Orientation (Angstroms)
    I     Atom           X                Y                Z
 ----------------------------------------------------------------
    1      C       0.0049830000    -0.3993610000    -0.2117370000
    2      S       0.0047830000     0.3938390000     1.3687630000
    3      C       0.0047830000     2.0315390000     0.6931630000
    4      C       0.0047830000     0.5986390000    -1.1971370000
    5      C       0.0046830000     1.9188390000    -0.7052370000
    6      H       0.0048830000     0.3629390000    -2.2716370000
    7      H       0.0046830000     2.7998390000    -1.3643370000
    8      C       0.0049830000    -1.8775610000    -0.2117370000
    9      H      -1.0097170000    -1.8781610000    -0.5816370000
   10      H       0.3424830000    -2.3168610000    -1.1388370000
   11      H      -0.2729170000    -2.5885610000     0.5522630000
   12      H       0.0046830000     2.9122390000     1.3442630000
 ----------------------------------------------------------------

   10    -590.3729709057      6.42e-07  Convergence criterion met
 Total energy in the final basis set =     -590.3729709057
        RIMP2         total energy =      -591.3735789823 a.u.

                    Orbital Energies (a.u.)
 --------------------------------------------------------------

 Alpha MOs
 -- Occupied --
-91.9773 -11.2928 -11.2612 -11.2431 -11.2324 -11.2282  -8.9771  -6.6580
 -6.6575  -6.6570  -1.1566  -1.0404  -0.9710  -0.9199  -0.7536  -0.7222
 -0.6708  -0.5991  -0.5644  -0.5568  -0.5493  -0.4947  -0.4725  -0.4529
 -0.3459  -0.2985

          Ground-State Mulliken Net Atomic Charges

     Atom                 Charge (a.u.)
  ----------------------------------------
      1 C                     0.040975
      2 S                    -0.002867
      3 C                    -0.253327
      4 C                    -0.248958
      5 C                    -0.184913
      6 H                     0.179651
      7 H                     0.185977
      8 C                    -0.372394
      9 H                     0.140550
     10 H                     0.136617
     11 H                     0.175829
     12 H                     0.202859
  ----------------------------------------
  Sum of atomic charges =     0.000000

                    Cartesian Multipole Moments
 -----------------------------------------------------------------
    Charge (ESU x 10^10)
                -0.0000
    Dipole Moment (Debye)
         X      -0.7033      Y      -0.9107      Z      -1.3335
       Tot       1.7613
    Quadrupole Moments (Debye-Ang)
        XX     -48.2201     XY       1.4944     YY     -35.8934
        XZ      -0.0834     YZ       1.0537     ZZ     -41.7733

 Total job time:  10.28s(wall), 544.04s(cpu)
        *  Thank you very much for using Q-Chem.  Have a nice day.  *
