 Q-Chem 5.4, Q-Chem, Inc., Pleasanton, CA (2021)
 Q-Chem 5.4.0 for Intel X86 EM64T Linux

User input:
--------------------------------------------------------------
$molecule
0 1
C	-0.179252	-0.368118	-0.219723
S	0.091848	0.377282	1.360777
C	0.651948	1.916282	0.685177
C	0.161948	0.569782	-1.205123
C	0.613348	1.810382	-0.713223
H	0.081348	0.348282	-2.279623
H	0.914648	2.638182	-1.372323
C	-0.179252	-1.846318	-0.219723
H	0.360248	-1.846918	0.715877
H	-1.033752	-2.285618	0.273577
H	0.524748	-2.557318	-0.626323
H	0.953048	2.743882	1.336277
$end

$rem
JOBTYPE		SP
EXCHANGE	HF
CORRELATION	pRIMP2
BASIS		cc-pvtz
METHOD		rimp2
AUX_BASIS	rimp2-cc-pvtz
SOLVENT_METHOD	PCM
PURECART	11111
SYMMETRY	false
MEM_TOTAL	110000
SCF_CONVERGENCE = 6
THRESH=10
GUI = 2
$end

$solvent
dielectric 4.90
$end
--------------------------------------------------------------

             Standard Nuclear Orientation (Angstroms)
    I     Atom           X                Y                Z
 ----------------------------------------------------------------
    1      C      -0.1792520000    -0.3681180000    -0.2197230000
    2      S       0.0918480000     0.3772820000     1.3607770000
    3      C       0.6519480000     1.9162820000     0.6851770000
    4      C       0.1619480000     0.5697820000    -1.2051230000
    5      C       0.6133480000     1.8103820000    -0.7132230000
    6      H       0.0813480000     0.3482820000    -2.2796230000
    7      H       0.9146480000     2.6381820000    -1.3723230000
    8      C      -0.1792520000    -1.8463180000    -0.2197230000
    9      H       0.3602480000    -1.8469180000     0.7158770000
   10      H      -1.0337520000    -2.2856180000     0.2735770000
   11      H       0.5247480000    -2.5573180000    -0.6263230000
   12      H       0.9530480000     2.7438820000     1.3362770000
 ----------------------------------------------------------------

   10    -590.3620126568      6.09e-07  Convergence criterion met
 Total energy in the final basis set =     -590.3620126568
        RIMP2         total energy =      -591.3648897246 a.u.

                    Orbital Energies (a.u.)
 --------------------------------------------------------------

 Alpha MOs
 -- Occupied --
-91.9782 -11.2820 -11.2706 -11.2428 -11.2374 -11.2221  -8.9785  -6.6593
 -6.6588  -6.6582  -1.1592  -1.0397  -0.9733  -0.9167  -0.7588  -0.7209
 -0.6718  -0.5952  -0.5691  -0.5633  -0.5338  -0.4998  -0.4638  -0.4519
 -0.3459  -0.3072

          Ground-State Mulliken Net Atomic Charges

     Atom                 Charge (a.u.)
  ----------------------------------------
      1 C                     0.015943
      2 S                    -0.004687
      3 C                    -0.228811
      4 C                    -0.229787
      5 C                    -0.185963
      6 H                     0.184607
      7 H                     0.186203
      8 C                    -0.356493
      9 H                     0.122800
     10 H                     0.129434
     11 H                     0.161126
     12 H                     0.205627
  ----------------------------------------
  Sum of atomic charges =     0.000000

                    Cartesian Multipole Moments
 -----------------------------------------------------------------
    Charge (ESU x 10^10)
                -0.0000
    Dipole Moment (Debye)
         X       0.8268      Y      -0.2659      Z      -0.5077
       Tot       1.0060
    Quadrupole Moments (Debye-Ang)
        XX     -46.7696     XY       2.0257     YY     -37.2463
        XZ      -0.2313     YZ      -0.2151     ZZ     -42.2092

 Total job time:  10.48s(wall), 531.16s(cpu)
        *  Thank you very much for using Q-Chem.  Have a nice day.  *
