 Q-Chem 5.4, Q-Chem, Inc., Pleasanton, CA (2021)
 Q-Chem 5.4.0 for Intel X86 EM64T Linux

User input:
--------------------------------------------------------------
$molecule
0 1
C	-0.402639	-0.214208	-0.213418
S	0.204861	0.295792	1.367082
C	1.459361	1.348492	0.691482
C	0.361761	0.427392	-1.198818
C	1.373061	1.276092	-0.706918
H	0.181261	0.275892	-2.273318
H	2.047861	1.842392	-1.366018
C	-0.402639	-1.692408	-0.213418
H	0.612361	-1.693008	-0.582318
H	-0.065239	-2.131708	0.713682
H	-0.680839	-2.403408	-0.977318
H	2.133961	1.914692	1.342582
$end

$rem
JOBTYPE		SP
EXCHANGE	HF
CORRELATION	pRIMP2
BASIS		cc-pvtz
METHOD		rimp2
AUX_BASIS	rimp2-cc-pvtz
SOLVENT_METHOD	PCM
PURECART	11111
SYMMETRY	false
MEM_TOTAL	110000
SCF_CONVERGENCE = 6
THRESH=10
GUI = 2
$end

$solvent
dielectric 4.90
$end
--------------------------------------------------------------

             Standard Nuclear Orientation (Angstroms)
    I     Atom           X                Y                Z
 ----------------------------------------------------------------
    1      C      -0.4026390000    -0.2142080000    -0.2134180000
    2      S       0.2048610000     0.2957920000     1.3670820000
    3      C       1.4593610000     1.3484920000     0.6914820000
    4      C       0.3617610000     0.4273920000    -1.1988180000
    5      C       1.3730610000     1.2760920000    -0.7069180000
    6      H       0.1812610000     0.2758920000    -2.2733180000
    7      H       2.0478610000     1.8423920000    -1.3660180000
    8      C      -0.4026390000    -1.6924080000    -0.2134180000
    9      H       0.6123610000    -1.6930080000    -0.5823180000
   10      H      -0.0652390000    -2.1317080000     0.7136820000
   11      H      -0.6808390000    -2.4034080000    -0.9773180000
   12      H       2.1339610000     1.9146920000     1.3425820000
 ----------------------------------------------------------------

   11    -590.3218670338      5.86e-07  Convergence criterion met
 Total energy in the final basis set =     -590.3218670338
        RIMP2         total energy =      -591.3341249742 a.u.

                    Orbital Energies (a.u.)
 --------------------------------------------------------------

 Alpha MOs
 -- Occupied --
-91.9796 -11.2788 -11.2721 -11.2450 -11.2415 -11.2193  -8.9798  -6.6605
 -6.6599  -6.6595  -1.1674  -1.0388  -0.9770  -0.9081  -0.7609  -0.7262
 -0.6721  -0.5959  -0.5675  -0.5592  -0.5415  -0.4852  -0.4656  -0.4569
 -0.3447  -0.2960

          Ground-State Mulliken Net Atomic Charges

     Atom                 Charge (a.u.)
  ----------------------------------------
      1 C                    -0.065954
      2 S                     0.017028
      3 C                    -0.201787
      4 C                    -0.143603
      5 C                    -0.224318
      6 H                     0.180523
      7 H                     0.187330
      8 C                    -0.360049
      9 H                     0.134552
     10 H                     0.128998
     11 H                     0.140785
     12 H                     0.206493
  ----------------------------------------
  Sum of atomic charges =     0.000000

                    Cartesian Multipole Moments
 -----------------------------------------------------------------
    Charge (ESU x 10^10)
                -0.0000
    Dipole Moment (Debye)
         X       2.0566      Y      -0.3650      Z      -1.2290
       Tot       2.4235
    Quadrupole Moments (Debye-Ang)
        XX     -43.7320     XY       3.7368     YY     -42.1296
        XZ       0.6712     YZ       1.3084     ZZ     -40.9932

 Total job time:  11.97s(wall), 628.52s(cpu)
        *  Thank you very much for using Q-Chem.  Have a nice day.  *
