 Q-Chem 5.4, Q-Chem, Inc., Pleasanton, CA (2021)
 Q-Chem 5.4.0 for Intel X86 EM64T Linux

User input:
--------------------------------------------------------------
$molecule
0 1
C	-0.172351	-0.368118	-0.211737
S	0.098749	0.377282	1.368763
C	0.658849	1.916282	0.693163
C	0.168849	0.569782	-1.197137
C	0.620249	1.810382	-0.705237
H	0.088249	0.348282	-2.271637
H	0.921549	2.638182	-1.364337
C	-0.172351	-1.846318	-0.211737
H	-1.187051	-1.846918	-0.581637
H	0.165149	-2.285618	-1.138837
H	-0.450251	-2.557318	0.552263
H	0.959949	2.743882	1.344263
$end

$rem
JOBTYPE		SP
EXCHANGE	HF
CORRELATION	pRIMP2
BASIS		cc-pvtz
METHOD		rimp2
AUX_BASIS	rimp2-cc-pvtz
SOLVENT_METHOD	PCM
PURECART	11111
SYMMETRY	false
MEM_TOTAL	110000
SCF_CONVERGENCE = 6
THRESH=10
GUI = 2
$end

$solvent
dielectric 4.90
$end
--------------------------------------------------------------

             Standard Nuclear Orientation (Angstroms)
    I     Atom           X                Y                Z
 ----------------------------------------------------------------
    1      C      -0.1723510000    -0.3681180000    -0.2117370000
    2      S       0.0987490000     0.3772820000     1.3687630000
    3      C       0.6588490000     1.9162820000     0.6931630000
    4      C       0.1688490000     0.5697820000    -1.1971370000
    5      C       0.6202490000     1.8103820000    -0.7052370000
    6      H       0.0882490000     0.3482820000    -2.2716370000
    7      H       0.9215490000     2.6381820000    -1.3643370000
    8      C      -0.1723510000    -1.8463180000    -0.2117370000
    9      H      -1.1870510000    -1.8469180000    -0.5816370000
   10      H       0.1651490000    -2.2856180000    -1.1388370000
   11      H      -0.4502510000    -2.5573180000     0.5522630000
   12      H       0.9599490000     2.7438820000     1.3442630000
 ----------------------------------------------------------------

   10    -590.3623597129      6.36e-07  Convergence criterion met
 Total energy in the final basis set =     -590.3623597129
        RIMP2         total energy =      -591.3656908682 a.u.

                    Orbital Energies (a.u.)
 --------------------------------------------------------------

 Alpha MOs
 -- Occupied --
-91.9761 -11.2878 -11.2643 -11.2431 -11.2354 -11.2249  -8.9761  -6.6570
 -6.6564  -6.6559  -1.1570  -1.0391  -0.9714  -0.9193  -0.7544  -0.7223
 -0.6702  -0.5974  -0.5626  -0.5577  -0.5487  -0.4986  -0.4662  -0.4503
 -0.3455  -0.2978

          Ground-State Mulliken Net Atomic Charges

     Atom                 Charge (a.u.)
  ----------------------------------------
      1 C                     0.026857
      2 S                     0.000777
      3 C                    -0.245302
      4 C                    -0.246010
      5 C                    -0.181418
      6 H                     0.179854
      7 H                     0.186948
      8 C                    -0.370751
      9 H                     0.134596
     10 H                     0.139548
     11 H                     0.172087
     12 H                     0.202814
  ----------------------------------------
  Sum of atomic charges =     0.000000

                    Cartesian Multipole Moments
 -----------------------------------------------------------------
    Charge (ESU x 10^10)
                -0.0000
    Dipole Moment (Debye)
         X      -0.3035      Y      -0.7342      Z      -1.3500
       Tot       1.5664
    Quadrupole Moments (Debye-Ang)
        XX     -46.9963     XY       4.3437     YY     -37.1037
        XZ       0.0938     YZ       0.9921     ZZ     -41.6727

 Total job time:  11.23s(wall), 565.75s(cpu)
        *  Thank you very much for using Q-Chem.  Have a nice day.  *
