 Q-Chem 5.4, Q-Chem, Inc., Pleasanton, CA (2021)
 Q-Chem 5.4.0 for Intel X86 EM64T Linux

User input:
--------------------------------------------------------------
$molecule
0 1
C	-0.452639	-0.140188	-0.218722
S	0.234161	0.256612	1.361778
C	1.652461	1.075412	0.686178
C	0.411561	0.358912	-1.204122
C	1.554861	1.019112	-0.712222
H	0.207461	0.241112	-2.278622
H	2.317761	1.459712	-1.371322
C	-0.452639	-1.618388	-0.218722
H	0.374361	-1.618988	0.475878
H	-1.086839	-2.057688	0.537078
H	0.069861	-2.329388	-0.841622
H	2.415061	1.515912	1.337278
$end

$rem
JOBTYPE		SP
EXCHANGE	HF
CORRELATION	pRIMP2
BASIS		cc-pvtz
METHOD		rimp2
AUX_BASIS	rimp2-cc-pvtz
SOLVENT_METHOD	PCM
PURECART	11111
SYMMETRY	false
MEM_TOTAL	110000
SCF_CONVERGENCE = 6
THRESH=10
GUI = 2
$end

$solvent
dielectric 4.90
$end
--------------------------------------------------------------

             Standard Nuclear Orientation (Angstroms)
    I     Atom           X                Y                Z
 ----------------------------------------------------------------
    1      C      -0.4526390000    -0.1401880000    -0.2187220000
    2      S       0.2341610000     0.2566120000     1.3617780000
    3      C       1.6524610000     1.0754120000     0.6861780000
    4      C       0.4115610000     0.3589120000    -1.2041220000
    5      C       1.5548610000     1.0191120000    -0.7122220000
    6      H       0.2074610000     0.2411120000    -2.2786220000
    7      H       2.3177610000     1.4597120000    -1.3713220000
    8      C      -0.4526390000    -1.6183880000    -0.2187220000
    9      H       0.3743610000    -1.6189880000     0.4758780000
   10      H      -1.0868390000    -2.0576880000     0.5370780000
   11      H       0.0698610000    -2.3293880000    -0.8416220000
   12      H       2.4150610000     1.5159120000     1.3372780000
 ----------------------------------------------------------------

   11    -590.2925932481      3.45e-07  Convergence criterion met
 Total energy in the final basis set =     -590.2925932481
        RIMP2         total energy =      -591.3068408351 a.u.

                    Orbital Energies (a.u.)
 --------------------------------------------------------------

 Alpha MOs
 -- Occupied --
-91.9714 -11.2935 -11.2578 -11.2566 -11.2458 -11.2134  -8.9733  -6.6540
 -6.6532  -6.6530  -1.1742  -1.0403  -0.9814  -0.9038  -0.7680  -0.7284
 -0.6740  -0.5906  -0.5779  -0.5670  -0.5299  -0.4954  -0.4638  -0.4377
 -0.3443  -0.2985

          Ground-State Mulliken Net Atomic Charges

     Atom                 Charge (a.u.)
  ----------------------------------------
      1 C                    -0.100095
      2 S                    -0.005557
      3 C                    -0.157711
      4 C                    -0.099472
      5 C                    -0.241755
      6 H                     0.189230
      7 H                     0.187533
      8 C                    -0.365863
      9 H                     0.126747
     10 H                     0.108072
     11 H                     0.149685
     12 H                     0.209185
  ----------------------------------------
  Sum of atomic charges =     0.000000

                    Cartesian Multipole Moments
 -----------------------------------------------------------------
    Charge (ESU x 10^10)
                 0.0000
    Dipole Moment (Debye)
         X       2.7981      Y      -0.1492      Z      -0.8563
       Tot       2.9300
    Quadrupole Moments (Debye-Ang)
        XX     -41.7734     XY       3.5405     YY     -43.9144
        XZ       0.2681     YZ      -0.1778     ZZ     -41.2308

 Total job time:  12.43s(wall), 622.99s(cpu)
        *  Thank you very much for using Q-Chem.  Have a nice day.  *
