 Q-Chem 5.4, Q-Chem, Inc., Pleasanton, CA (2021)
 Q-Chem 5.4.0 for Intel X86 EM64T Linux

User input:
--------------------------------------------------------------
$molecule
0 1
C	-0.173582	-0.368118	-0.210225
S	0.097518	0.377282	1.370275
C	0.657618	1.916282	0.694675
C	0.167618	0.569782	-1.195625
C	0.619018	1.810382	-0.703725
H	0.087018	0.348282	-2.270125
H	0.920318	2.638182	-1.362825
C	-0.173582	-1.846318	-0.210225
H	-1.000582	-1.846918	-0.904825
H	0.460618	-2.285618	-0.966025
H	-0.696082	-2.557318	0.412675
H	0.958718	2.743882	1.345775
$end

$rem
JOBTYPE		SP
EXCHANGE	HF
CORRELATION	pRIMP2
BASIS		cc-pvtz
METHOD		rimp2
AUX_BASIS	rimp2-cc-pvtz
SOLVENT_METHOD	PCM
PURECART	11111
SYMMETRY	false
MEM_TOTAL	110000
SCF_CONVERGENCE = 6
THRESH=10
GUI = 2
$end

$solvent
dielectric 4.90
$end
--------------------------------------------------------------

             Standard Nuclear Orientation (Angstroms)
    I     Atom           X                Y                Z
 ----------------------------------------------------------------
    1      C      -0.1735820000    -0.3681180000    -0.2102250000
    2      S       0.0975180000     0.3772820000     1.3702750000
    3      C       0.6576180000     1.9162820000     0.6946750000
    4      C       0.1676180000     0.5697820000    -1.1956250000
    5      C       0.6190180000     1.8103820000    -0.7037250000
    6      H       0.0870180000     0.3482820000    -2.2701250000
    7      H       0.9203180000     2.6381820000    -1.3628250000
    8      C      -0.1735820000    -1.8463180000    -0.2102250000
    9      H      -1.0005820000    -1.8469180000    -0.9048250000
   10      H       0.4606180000    -2.2856180000    -0.9660250000
   11      H      -0.6960820000    -2.5573180000     0.4126750000
   12      H       0.9587180000     2.7438820000     1.3457750000
 ----------------------------------------------------------------

   10    -590.3636627774      6.38e-07  Convergence criterion met
 Total energy in the final basis set =     -590.3636627774
        RIMP2         total energy =      -591.3673950988 a.u.

                    Orbital Energies (a.u.)
 --------------------------------------------------------------

 Alpha MOs
 -- Occupied --
-91.9753 -11.2862 -11.2660 -11.2433 -11.2379 -11.2240  -8.9754  -6.6563
 -6.6557  -6.6552  -1.1571  -1.0385  -0.9719  -0.9189  -0.7542  -0.7231
 -0.6708  -0.5974  -0.5641  -0.5608  -0.5443  -0.5005  -0.4656  -0.4444
 -0.3452  -0.3019

          Ground-State Mulliken Net Atomic Charges

     Atom                 Charge (a.u.)
  ----------------------------------------
      1 C                     0.026692
      2 S                    -0.000801
      3 C                    -0.237140
      4 C                    -0.243906
      5 C                    -0.183016
      6 H                     0.180368
      7 H                     0.186542
      8 C                    -0.371267
      9 H                     0.130200
     10 H                     0.138655
     11 H                     0.171344
     12 H                     0.202329
  ----------------------------------------
  Sum of atomic charges =     0.000000

                    Cartesian Multipole Moments
 -----------------------------------------------------------------
    Charge (ESU x 10^10)
                -0.0000
    Dipole Moment (Debye)
         X      -0.1269      Y      -0.6007      Z      -1.5712
       Tot       1.6869
    Quadrupole Moments (Debye-Ang)
        XX     -46.7617     XY       4.1721     YY     -37.1387
        XZ      -0.0538     YZ       1.4279     ZZ     -41.7934

 Total job time:  10.58s(wall), 562.13s(cpu)
        *  Thank you very much for using Q-Chem.  Have a nice day.  *
