 Q-Chem 5.4, Q-Chem, Inc., Pleasanton, CA (2021)
 Q-Chem 5.4.0 for Intel X86 EM64T Linux

User input:
--------------------------------------------------------------
$molecule
0 1
C	-0.338114	-0.278098	-0.217210
S	0.171586	0.329602	1.363290
C	1.224286	1.584202	0.687690
C	0.303286	0.486502	-1.202610
C	1.151786	1.497902	-0.710710
H	0.151786	0.306002	-2.277110
H	1.717986	2.172802	-1.369810
C	-0.338114	-1.756298	-0.217210
H	0.676586	-1.756898	0.152690
H	-0.675614	-2.195598	0.709890
H	-0.060214	-2.467298	-0.981210
H	1.790286	2.258902	1.338790
$end

$rem
JOBTYPE		SP
EXCHANGE	HF
CORRELATION	pRIMP2
BASIS		cc-pvtz
METHOD		rimp2
AUX_BASIS	rimp2-cc-pvtz
SOLVENT_METHOD	PCM
PURECART	11111
SYMMETRY	false
MEM_TOTAL	110000
SCF_CONVERGENCE = 6
THRESH=10
GUI = 2
$end

$solvent
dielectric 4.90
$end
--------------------------------------------------------------

             Standard Nuclear Orientation (Angstroms)
    I     Atom           X                Y                Z
 ----------------------------------------------------------------
    1      C      -0.3381140000    -0.2780980000    -0.2172100000
    2      S       0.1715860000     0.3296020000     1.3632900000
    3      C       1.2242860000     1.5842020000     0.6876900000
    4      C       0.3032860000     0.4865020000    -1.2026100000
    5      C       1.1517860000     1.4979020000    -0.7107100000
    6      H       0.1517860000     0.3060020000    -2.2771100000
    7      H       1.7179860000     2.1728020000    -1.3698100000
    8      C      -0.3381140000    -1.7562980000    -0.2172100000
    9      H       0.6765860000    -1.7568980000     0.1526900000
   10      H      -0.6756140000    -2.1955980000     0.7098900000
   11      H      -0.0602140000    -2.4672980000    -0.9812100000
   12      H       1.7902860000     2.2589020000     1.3387900000
 ----------------------------------------------------------------

   10    -590.3439403124      6.74e-07  Convergence criterion met
 Total energy in the final basis set =     -590.3439403124
        RIMP2         total energy =      -591.3502741787 a.u.

                    Orbital Energies (a.u.)
 --------------------------------------------------------------

 Alpha MOs
 -- Occupied --
-91.9757 -11.2800 -11.2742 -11.2442 -11.2388 -11.2240  -8.9764  -6.6572
 -6.6567  -6.6561  -1.1638  -1.0399  -0.9744  -0.9125  -0.7595  -0.7235
 -0.6721  -0.5945  -0.5688  -0.5632  -0.5316  -0.5009  -0.4674  -0.4538
 -0.3473  -0.2976

          Ground-State Mulliken Net Atomic Charges

     Atom                 Charge (a.u.)
  ----------------------------------------
      1 C                    -0.006020
      2 S                    -0.004987
      3 C                    -0.221399
      4 C                    -0.218427
      5 C                    -0.189789
      6 H                     0.181355
      7 H                     0.187692
      8 C                    -0.357454
      9 H                     0.140715
     10 H                     0.123783
     11 H                     0.158995
     12 H                     0.205535
  ----------------------------------------
  Sum of atomic charges =     0.000000

                    Cartesian Multipole Moments
 -----------------------------------------------------------------
    Charge (ESU x 10^10)
                 0.0000
    Dipole Moment (Debye)
         X       1.6668      Y      -0.4870      Z      -0.9145
       Tot       1.9625
    Quadrupole Moments (Debye-Ang)
        XX     -45.0587     XY       3.4356     YY     -40.0139
        XZ       0.0465     YZ       0.5662     ZZ     -41.6687

 Total job time:  10.60s(wall), 567.83s(cpu)
        *  Thank you very much for using Q-Chem.  Have a nice day.  *
