 Q-Chem 5.4, Q-Chem, Inc., Pleasanton, CA (2021)
 Q-Chem 5.4.0 for Intel X86 EM64T Linux

User input:
--------------------------------------------------------------
$molecule
0 1
C	-0.084643	-0.391505	-0.212630
S	0.052857	0.389695	1.367870
C	0.337257	2.002495	0.692270
C	0.088457	0.591395	-1.198030
C	0.317657	1.891595	-0.706130
H	0.047557	0.359295	-2.272530
H	0.470557	2.759095	-1.365230
C	-0.084643	-1.869705	-0.212630
H	-1.148143	-1.870305	-0.400730
H	0.086757	-2.309005	-1.184230
H	-0.225643	-2.580705	0.588070
H	0.490057	2.869795	1.343370
$end

$rem
JOBTYPE		SP
EXCHANGE	HF
CORRELATION	pRIMP2
BASIS		cc-pvtz
METHOD		rimp2
AUX_BASIS	rimp2-cc-pvtz
SOLVENT_METHOD	PCM
PURECART	11111
SYMMETRY	false
MEM_TOTAL	110000
SCF_CONVERGENCE = 6
THRESH=10
GUI = 2
$end

$solvent
dielectric 4.90
$end
--------------------------------------------------------------

             Standard Nuclear Orientation (Angstroms)
    I     Atom           X                Y                Z
 ----------------------------------------------------------------
    1      C      -0.0846430000    -0.3915050000    -0.2126300000
    2      S       0.0528570000     0.3896950000     1.3678700000
    3      C       0.3372570000     2.0024950000     0.6922700000
    4      C       0.0884570000     0.5913950000    -1.1980300000
    5      C       0.3176570000     1.8915950000    -0.7061300000
    6      H       0.0475570000     0.3592950000    -2.2725300000
    7      H       0.4705570000     2.7590950000    -1.3652300000
    8      C      -0.0846430000    -1.8697050000    -0.2126300000
    9      H      -1.1481430000    -1.8703050000    -0.4007300000
   10      H       0.0867570000    -2.3090050000    -1.1842300000
   11      H      -0.2256430000    -2.5807050000     0.5880700000
   12      H       0.4900570000     2.8697950000     1.3433700000
 ----------------------------------------------------------------

   10    -590.3699158310      6.36e-07  Convergence criterion met
 Total energy in the final basis set =     -590.3699158310
        RIMP2         total energy =      -591.3710483294 a.u.

                    Orbital Energies (a.u.)
 --------------------------------------------------------------

 Alpha MOs
 -- Occupied --
-91.9769 -11.2915 -11.2620 -11.2429 -11.2328 -11.2274  -8.9769  -6.6578
 -6.6573  -6.6567  -1.1566  -1.0402  -0.9710  -0.9201  -0.7541  -0.7219
 -0.6704  -0.5986  -0.5640  -0.5553  -0.5502  -0.4956  -0.4714  -0.4534
 -0.3459  -0.2975

          Ground-State Mulliken Net Atomic Charges

     Atom                 Charge (a.u.)
  ----------------------------------------
      1 C                     0.033531
      2 S                    -0.002475
      3 C                    -0.252319
      4 C                    -0.247807
      5 C                    -0.183589
      6 H                     0.180482
      7 H                     0.186161
      8 C                    -0.369259
      9 H                     0.139134
     10 H                     0.137745
     11 H                     0.175060
     12 H                     0.203336
  ----------------------------------------
  Sum of atomic charges =     0.000000

                    Cartesian Multipole Moments
 -----------------------------------------------------------------
    Charge (ESU x 10^10)
                -0.0000
    Dipole Moment (Debye)
         X      -0.5646      Y      -0.8757      Z      -1.2140
       Tot       1.5999
    Quadrupole Moments (Debye-Ang)
        XX     -47.9220     XY       3.0437     YY     -36.1666
        XZ       0.1274     YZ       0.7941     ZZ     -41.7405

 Total job time:  40.91s(wall), 572.37s(cpu)
        *  Thank you very much for using Q-Chem.  Have a nice day.  *
