 Q-Chem 5.4, Q-Chem, Inc., Pleasanton, CA (2021)
 Q-Chem 5.4.0 for Intel X86 EM64T Linux

User input:
--------------------------------------------------------------
$molecule
0 1
C	-0.134026	-0.381707	-0.208858
S	0.071074	0.384493	1.371642
C	0.494874	1.966393	0.696042
C	0.124074	0.582293	-1.194258
C	0.465674	1.857593	-0.702358
H	0.063174	0.354693	-2.268758
H	0.693674	2.708493	-1.361458
C	-0.134026	-1.859907	-0.208858
H	-0.321026	-1.860507	-1.272558
H	0.837574	-2.299207	-0.380158
H	-0.934626	-2.570907	-0.067558
H	0.722774	2.817093	1.347142
$end

$rem
JOBTYPE		SP
EXCHANGE	HF
CORRELATION	pRIMP2
BASIS		cc-pvtz
METHOD		rimp2
AUX_BASIS	rimp2-cc-pvtz
SOLVENT_METHOD	PCM
PURECART	11111
SYMMETRY	false
MEM_TOTAL	110000
SCF_CONVERGENCE = 6
THRESH=10
GUI = 2
$end

$solvent
dielectric 4.90
$end
--------------------------------------------------------------

             Standard Nuclear Orientation (Angstroms)
    I     Atom           X                Y                Z
 ----------------------------------------------------------------
    1      C      -0.1340260000    -0.3817070000    -0.2088580000
    2      S       0.0710740000     0.3844930000     1.3716420000
    3      C       0.4948740000     1.9663930000     0.6960420000
    4      C       0.1240740000     0.5822930000    -1.1942580000
    5      C       0.4656740000     1.8575930000    -0.7023580000
    6      H       0.0631740000     0.3546930000    -2.2687580000
    7      H       0.6936740000     2.7084930000    -1.3614580000
    8      C      -0.1340260000    -1.8599070000    -0.2088580000
    9      H      -0.3210260000    -1.8605070000    -1.2725580000
   10      H       0.8375740000    -2.2992070000    -0.3801580000
   11      H      -0.9346260000    -2.5709070000    -0.0675580000
   12      H       0.7227740000     2.8170930000     1.3471420000
 ----------------------------------------------------------------

   10    -590.3702211999      5.99e-07  Convergence criterion met
 Total energy in the final basis set =     -590.3702211999
        RIMP2         total energy =      -591.3731635573 a.u.

                    Orbital Energies (a.u.)
 --------------------------------------------------------------

 Alpha MOs
 -- Occupied --
-91.9743 -11.2841 -11.2696 -11.2432 -11.2418 -11.2233  -8.9745  -6.6554
 -6.6548  -6.6544  -1.1575  -1.0378  -0.9730  -0.9186  -0.7546  -0.7244
 -0.6723  -0.5974  -0.5708  -0.5601  -0.5390  -0.5002  -0.4671  -0.4359
 -0.3448  -0.3123

          Ground-State Mulliken Net Atomic Charges

     Atom                 Charge (a.u.)
  ----------------------------------------
      1 C                     0.027319
      2 S                    -0.007588
      3 C                    -0.225645
      4 C                    -0.223112
      5 C                    -0.198847
      6 H                     0.183022
      7 H                     0.186906
      8 C                    -0.357186
      9 H                     0.116959
     10 H                     0.131646
     11 H                     0.162462
     12 H                     0.204063
  ----------------------------------------
  Sum of atomic charges =     0.000000

                    Cartesian Multipole Moments
 -----------------------------------------------------------------
    Charge (ESU x 10^10)
                -0.0000
    Dipole Moment (Debye)
         X       0.2599      Y      -0.3215      Z      -1.7835
       Tot       1.8308
    Quadrupole Moments (Debye-Ang)
        XX     -46.8621     XY       2.7317     YY     -36.6396
        XZ       0.1167     YZ       2.0300     ZZ     -42.1005

 Total job time:  10.89s(wall), 543.30s(cpu)
        *  Thank you very much for using Q-Chem.  Have a nice day.  *
