 Q-Chem 5.4, Q-Chem, Inc., Pleasanton, CA (2021)
 Q-Chem 5.4.0 for Intel X86 EM64T Linux

User input:
--------------------------------------------------------------
$molecule
0 1
C	-0.448072	-0.140188	-0.220018
S	0.238728	0.256612	1.360482
C	1.657028	1.075412	0.684882
C	0.416128	0.358912	-1.205418
C	1.559428	1.019112	-0.713518
H	0.212028	0.241112	-2.279918
H	2.322328	1.459712	-1.372618
C	-0.448072	-1.618388	-0.220018
H	-0.448572	-1.618988	0.859982
H	-1.434672	-2.057688	-0.220018
H	0.364928	-2.329388	-0.220118
H	2.419628	1.515912	1.335982
$end

$rem
JOBTYPE		SP
EXCHANGE	HF
CORRELATION	pRIMP2
BASIS		cc-pvtz
METHOD		rimp2
AUX_BASIS	rimp2-cc-pvtz
SOLVENT_METHOD	PCM
PURECART	11111
SYMMETRY	false
MEM_TOTAL	110000
SCF_CONVERGENCE = 6
THRESH=10
GUI = 2
$end

$solvent
dielectric 4.90
$end
--------------------------------------------------------------

             Standard Nuclear Orientation (Angstroms)
    I     Atom           X                Y                Z
 ----------------------------------------------------------------
    1      C      -0.4480720000    -0.1401880000    -0.2200180000
    2      S       0.2387280000     0.2566120000     1.3604820000
    3      C       1.6570280000     1.0754120000     0.6848820000
    4      C       0.4161280000     0.3589120000    -1.2054180000
    5      C       1.5594280000     1.0191120000    -0.7135180000
    6      H       0.2120280000     0.2411120000    -2.2799180000
    7      H       2.3223280000     1.4597120000    -1.3726180000
    8      C      -0.4480720000    -1.6183880000    -0.2200180000
    9      H      -0.4485720000    -1.6189880000     0.8599820000
   10      H      -1.4346720000    -2.0576880000    -0.2200180000
   11      H       0.3649280000    -2.3293880000    -0.2201180000
   12      H       2.4196280000     1.5159120000     1.3359820000
 ----------------------------------------------------------------

   11    -590.2903157587      4.93e-07  Convergence criterion met
 Total energy in the final basis set =     -590.2903157587
        RIMP2         total energy =      -591.3045767073 a.u.

                    Orbital Energies (a.u.)
 --------------------------------------------------------------

 Alpha MOs
 -- Occupied --
-91.9748 -11.2957 -11.2607 -11.2456 -11.2432 -11.2100  -8.9762  -6.6569
 -6.6559  -6.6557  -1.1711  -1.0384  -0.9818  -0.9042  -0.7696  -0.7274
 -0.6725  -0.5896  -0.5762  -0.5625  -0.5440  -0.4694  -0.4603  -0.4390
 -0.3343  -0.3148

          Ground-State Mulliken Net Atomic Charges

     Atom                 Charge (a.u.)
  ----------------------------------------
      1 C                    -0.134088
      2 S                     0.006923
      3 C                    -0.149829
      4 C                    -0.072218
      5 C                    -0.244434
      6 H                     0.188704
      7 H                     0.185739
      8 C                    -0.354791
      9 H                     0.118220
     10 H                     0.105873
     11 H                     0.140420
     12 H                     0.209482
  ----------------------------------------
  Sum of atomic charges =     0.000000

                    Cartesian Multipole Moments
 -----------------------------------------------------------------
    Charge (ESU x 10^10)
                 0.0000
    Dipole Moment (Debye)
         X       2.5062      Y       0.1516      Z      -0.5258
       Tot       2.5652
    Quadrupole Moments (Debye-Ang)
        XX     -41.1159     XY       4.0900     YY     -44.0251
        XZ       0.5395     YZ      -0.7171     ZZ     -41.3052

 Total job time:  13.04s(wall), 600.49s(cpu)
        *  Thank you very much for using Q-Chem.  Have a nice day.  *
