 Q-Chem 5.4, Q-Chem, Inc., Pleasanton, CA (2021)
 Q-Chem 5.4.0 for Intel X86 EM64T Linux

User input:
--------------------------------------------------------------
$molecule
0 1
C	-0.084699	-0.391505	-0.216471
S	0.052801	0.389695	1.364029
C	0.337201	2.002495	0.688429
C	0.088401	0.591395	-1.201871
C	0.317601	1.891595	-0.709971
H	0.047501	0.359295	-2.276371
H	0.470501	2.759095	-1.369071
C	-0.084699	-1.869705	-0.216471
H	-1.020299	-1.870305	0.323029
H	-0.577999	-2.309005	-1.070971
H	0.321901	-2.580705	0.487529
H	0.490001	2.869795	1.339529
$end

$rem
JOBTYPE		SP
EXCHANGE	HF
CORRELATION	pRIMP2
BASIS		cc-pvtz
METHOD		rimp2
AUX_BASIS	rimp2-cc-pvtz
SOLVENT_METHOD	PCM
PURECART	11111
SYMMETRY	false
MEM_TOTAL	110000
SCF_CONVERGENCE = 6
THRESH=10
GUI = 2
$end

$solvent
dielectric 4.90
$end
--------------------------------------------------------------

             Standard Nuclear Orientation (Angstroms)
    I     Atom           X                Y                Z
 ----------------------------------------------------------------
    1      C      -0.0846990000    -0.3915050000    -0.2164710000
    2      S       0.0528010000     0.3896950000     1.3640290000
    3      C       0.3372010000     2.0024950000     0.6884290000
    4      C       0.0884010000     0.5913950000    -1.2018710000
    5      C       0.3176010000     1.8915950000    -0.7099710000
    6      H       0.0475010000     0.3592950000    -2.2763710000
    7      H       0.4705010000     2.7590950000    -1.3690710000
    8      C      -0.0846990000    -1.8697050000    -0.2164710000
    9      H      -1.0202990000    -1.8703050000     0.3230290000
   10      H      -0.5779990000    -2.3090050000    -1.0709710000
   11      H       0.3219010000    -2.5807050000     0.4875290000
   12      H       0.4900010000     2.8697950000     1.3395290000
 ----------------------------------------------------------------

   10    -590.3703347342      5.99e-07  Convergence criterion met
 Total energy in the final basis set =     -590.3703347342
        RIMP2         total energy =      -591.3714423760 a.u.

                    Orbital Energies (a.u.)
 --------------------------------------------------------------

 Alpha MOs
 -- Occupied --
-91.9777 -11.2879 -11.2660 -11.2429 -11.2345 -11.2259  -8.9777  -6.6586
 -6.6581  -6.6575  -1.1572  -1.0399  -0.9718  -0.9197  -0.7562  -0.7210
 -0.6708  -0.5981  -0.5664  -0.5591  -0.5435  -0.4909  -0.4733  -0.4543
 -0.3464  -0.3017

          Ground-State Mulliken Net Atomic Charges

     Atom                 Charge (a.u.)
  ----------------------------------------
      1 C                     0.003929
      2 S                    -0.011487
      3 C                    -0.232751
      4 C                    -0.214347
      5 C                    -0.195819
      6 H                     0.184687
      7 H                     0.185016
      8 C                    -0.351799
      9 H                     0.130617
     10 H                     0.131792
     11 H                     0.165365
     12 H                     0.204798
  ----------------------------------------
  Sum of atomic charges =     0.000000

                    Cartesian Multipole Moments
 -----------------------------------------------------------------
    Charge (ESU x 10^10)
                -0.0000
    Dipole Moment (Debye)
         X      -0.4068      Y      -0.5841      Z      -0.7475
       Tot       1.0322
    Quadrupole Moments (Debye-Ang)
        XX     -47.7499     XY       2.6987     YY     -36.1692
        XZ       0.5543     YZ      -0.0478     ZZ     -41.9846

 Total job time:  12.02s(wall), 590.57s(cpu)
        *  Thank you very much for using Q-Chem.  Have a nice day.  *
