 Q-Chem 5.4, Q-Chem, Inc., Pleasanton, CA (2021)
 Q-Chem 5.4.0 for Intel X86 EM64T Linux

User input:
--------------------------------------------------------------
$molecule
0 1
C	-0.180134	-0.368118	-0.219296
S	0.090966	0.377282	1.361204
C	0.651066	1.916282	0.685604
C	0.161066	0.569782	-1.204696
C	0.612466	1.810382	-0.712796
H	0.080466	0.348282	-2.279196
H	0.913766	2.638182	-1.371896
C	-0.180134	-1.846318	-0.219296
H	0.513666	-1.846918	0.608404
H	-0.935934	-2.285618	0.414904
H	0.442566	-2.557318	-0.741996
H	0.952166	2.743882	1.336704
$end

$rem
JOBTYPE		SP
EXCHANGE	HF
CORRELATION	pRIMP2
BASIS		cc-pvtz
METHOD		rimp2
AUX_BASIS	rimp2-cc-pvtz
SOLVENT_METHOD	PCM
PURECART	11111
SYMMETRY	false
MEM_TOTAL	110000
SCF_CONVERGENCE = 6
THRESH=10
GUI = 2
$end

$solvent
dielectric 4.90
$end
--------------------------------------------------------------

             Standard Nuclear Orientation (Angstroms)
    I     Atom           X                Y                Z
 ----------------------------------------------------------------
    1      C      -0.1801340000    -0.3681180000    -0.2192960000
    2      S       0.0909660000     0.3772820000     1.3612040000
    3      C       0.6510660000     1.9162820000     0.6856040000
    4      C       0.1610660000     0.5697820000    -1.2046960000
    5      C       0.6124660000     1.8103820000    -0.7127960000
    6      H       0.0804660000     0.3482820000    -2.2791960000
    7      H       0.9137660000     2.6381820000    -1.3718960000
    8      C      -0.1801340000    -1.8463180000    -0.2192960000
    9      H       0.5136660000    -1.8469180000     0.6084040000
   10      H      -0.9359340000    -2.2856180000     0.4149040000
   11      H       0.4425660000    -2.5573180000    -0.7419960000
   12      H       0.9521660000     2.7438820000     1.3367040000
 ----------------------------------------------------------------

   10    -590.3634049421      6.17e-07  Convergence criterion met
 Total energy in the final basis set =     -590.3634049421
        RIMP2         total energy =      -591.3656652656 a.u.

                    Orbital Energies (a.u.)
 --------------------------------------------------------------

 Alpha MOs
 -- Occupied --
-91.9776 -11.2840 -11.2696 -11.2428 -11.2364 -11.2233  -8.9779  -6.6588
 -6.6583  -6.6577  -1.1592  -1.0400  -0.9729  -0.9169  -0.7581  -0.7210
 -0.6718  -0.5955  -0.5685  -0.5633  -0.5330  -0.5010  -0.4658  -0.4535
 -0.3463  -0.3045

          Ground-State Mulliken Net Atomic Charges

     Atom                 Charge (a.u.)
  ----------------------------------------
      1 C                     0.020224
      2 S                    -0.004585
      3 C                    -0.231766
      4 C                    -0.240226
      5 C                    -0.183264
      6 H                     0.184318
      7 H                     0.186381
      8 C                    -0.359029
      9 H                     0.127695
     10 H                     0.131885
     11 H                     0.163136
     12 H                     0.205231
  ----------------------------------------
  Sum of atomic charges =     0.000000

                    Cartesian Multipole Moments
 -----------------------------------------------------------------
    Charge (ESU x 10^10)
                -0.0000
    Dipole Moment (Debye)
         X       0.9103      Y      -0.3815      Z      -0.5692
       Tot       1.1394
    Quadrupole Moments (Debye-Ang)
        XX     -46.9419     XY       1.8509     YY     -37.1800
        XZ      -0.2880     YZ      -0.0667     ZZ     -42.1475

 Total job time:  10.18s(wall), 534.96s(cpu)
        *  Thank you very much for using Q-Chem.  Have a nice day.  *
