 Q-Chem 5.4, Q-Chem, Inc., Pleasanton, CA (2021)
 Q-Chem 5.4.0 for Intel X86 EM64T Linux

User input:
--------------------------------------------------------------
$molecule
0 1
C	-0.394245	-0.214208	-0.209652
S	0.213255	0.295792	1.370848
C	1.467755	1.348492	0.695248
C	0.370155	0.427392	-1.195052
C	1.381455	1.276092	-0.703152
H	0.189655	0.275892	-2.269552
H	2.056255	1.842392	-1.362252
C	-0.394245	-1.692408	-0.209652
H	-1.088045	-1.693008	-1.037352
H	0.361555	-2.131708	-0.843852
H	-1.016945	-2.403408	0.313048
H	2.142355	1.914692	1.346348
$end

$rem
JOBTYPE		SP
EXCHANGE	HF
CORRELATION	pRIMP2
BASIS		cc-pvtz
METHOD		rimp2
AUX_BASIS	rimp2-cc-pvtz
SOLVENT_METHOD	PCM
PURECART	11111
SYMMETRY	false
MEM_TOTAL	110000
SCF_CONVERGENCE = 6
THRESH=10
GUI = 2
$end

$solvent
dielectric 4.90
$end
--------------------------------------------------------------

             Standard Nuclear Orientation (Angstroms)
    I     Atom           X                Y                Z
 ----------------------------------------------------------------
    1      C      -0.3942450000    -0.2142080000    -0.2096520000
    2      S       0.2132550000     0.2957920000     1.3708480000
    3      C       1.4677550000     1.3484920000     0.6952480000
    4      C       0.3701550000     0.4273920000    -1.1950520000
    5      C       1.3814550000     1.2760920000    -0.7031520000
    6      H       0.1896550000     0.2758920000    -2.2695520000
    7      H       2.0562550000     1.8423920000    -1.3622520000
    8      C      -0.3942450000    -1.6924080000    -0.2096520000
    9      H      -1.0880450000    -1.6930080000    -1.0373520000
   10      H       0.3615550000    -2.1317080000    -0.8438520000
   11      H      -1.0169450000    -2.4034080000     0.3130480000
   12      H       2.1423550000     1.9146920000     1.3463480000
 ----------------------------------------------------------------

   11    -590.3230078175      5.17e-07  Convergence criterion met
 Total energy in the final basis set =     -590.3230078175
        RIMP2         total energy =      -591.3355460122 a.u.

                    Orbital Energies (a.u.)
 --------------------------------------------------------------

 Alpha MOs
 -- Occupied --
-91.9729 -11.2830 -11.2633 -11.2517 -11.2450 -11.2160  -8.9736  -6.6544
 -6.6535  -6.6533  -1.1639  -1.0362  -0.9761  -0.9119  -0.7591  -0.7269
 -0.6709  -0.5935  -0.5720  -0.5578  -0.5397  -0.4982  -0.4634  -0.4272
 -0.3438  -0.3040

          Ground-State Mulliken Net Atomic Charges

     Atom                 Charge (a.u.)
  ----------------------------------------
      1 C                    -0.060820
      2 S                     0.006552
      3 C                    -0.179393
      4 C                    -0.149627
      5 C                    -0.220945
      6 H                     0.184835
      7 H                     0.187063
      8 C                    -0.376760
      9 H                     0.114307
     10 H                     0.135889
     11 H                     0.154227
     12 H                     0.204672
  ----------------------------------------
  Sum of atomic charges =     0.000000

                    Cartesian Multipole Moments
 -----------------------------------------------------------------
    Charge (ESU x 10^10)
                 0.0000
    Dipole Moment (Debye)
         X       1.2735      Y      -0.1026      Z      -1.6327
       Tot       2.0732
    Quadrupole Moments (Debye-Ang)
        XX     -42.3979     XY       5.7555     YY     -41.9699
        XZ       0.3391     YZ       1.2336     ZZ     -41.4056

 Total job time:  10.96s(wall), 603.29s(cpu)
        *  Thank you very much for using Q-Chem.  Have a nice day.  *
