 Q-Chem 5.4, Q-Chem, Inc., Pleasanton, CA (2021)
 Q-Chem 5.4.0 for Intel X86 EM64T Linux

User input:
--------------------------------------------------------------
$molecule
0 1
C	-0.328306	-0.278098	-0.211737
S	0.181394	0.329602	1.368763
C	1.234094	1.584202	0.693163
C	0.313094	0.486502	-1.197137
C	1.161594	1.497902	-0.705237
H	0.161594	0.306002	-2.271637
H	1.727794	2.172802	-1.364337
C	-0.328306	-1.756298	-0.211737
H	-1.343006	-1.756898	-0.581637
H	0.009194	-2.195598	-1.138837
H	-0.606206	-2.467298	0.552263
H	1.800094	2.258902	1.344263
$end

$rem
JOBTYPE		SP
EXCHANGE	HF
CORRELATION	pRIMP2
BASIS		cc-pvtz
METHOD		rimp2
AUX_BASIS	rimp2-cc-pvtz
SOLVENT_METHOD	PCM
PURECART	11111
SYMMETRY	false
MEM_TOTAL	110000
SCF_CONVERGENCE = 6
THRESH=10
GUI = 2
$end

$solvent
dielectric 4.90
$end
--------------------------------------------------------------

             Standard Nuclear Orientation (Angstroms)
    I     Atom           X                Y                Z
 ----------------------------------------------------------------
    1      C      -0.3283060000    -0.2780980000    -0.2117370000
    2      S       0.1813940000     0.3296020000     1.3687630000
    3      C       1.2340940000     1.5842020000     0.6931630000
    4      C       0.3130940000     0.4865020000    -1.1971370000
    5      C       1.1615940000     1.4979020000    -0.7052370000
    6      H       0.1615940000     0.3060020000    -2.2716370000
    7      H       1.7277940000     2.1728020000    -1.3643370000
    8      C      -0.3283060000    -1.7562980000    -0.2117370000
    9      H      -1.3430060000    -1.7568980000    -0.5816370000
   10      H       0.0091940000    -2.1955980000    -1.1388370000
   11      H      -0.6062060000    -2.4672980000     0.5522630000
   12      H       1.8000940000     2.2589020000     1.3442630000
 ----------------------------------------------------------------

   10    -590.3348926842      9.63e-07  Convergence criterion met
 Total energy in the final basis set =     -590.3348926842
        RIMP2         total energy =      -591.3446227691 a.u.

                    Orbital Energies (a.u.)
 --------------------------------------------------------------

 Alpha MOs
 -- Occupied --
-91.9744 -11.2743 -11.2734 -11.2439 -11.2426 -11.2181  -8.9748  -6.6556
 -6.6549  -6.6545  -1.1598  -1.0365  -0.9734  -0.9155  -0.7570  -0.7237
 -0.6694  -0.5940  -0.5612  -0.5593  -0.5471  -0.4999  -0.4611  -0.4414
 -0.3446  -0.2959

          Ground-State Mulliken Net Atomic Charges

     Atom                 Charge (a.u.)
  ----------------------------------------
      1 C                    -0.018310
      2 S                     0.003641
      3 C                    -0.214896
      4 C                    -0.199504
      5 C                    -0.195823
      6 H                     0.181482
      7 H                     0.187191
      8 C                    -0.377187
      9 H                     0.127545
     10 H                     0.138058
     11 H                     0.164483
     12 H                     0.203320
  ----------------------------------------
  Sum of atomic charges =     0.000000

                    Cartesian Multipole Moments
 -----------------------------------------------------------------
    Charge (ESU x 10^10)
                 0.0000
    Dipole Moment (Debye)
         X       0.4188      Y      -0.3895      Z      -1.3725
       Tot       1.4869
    Quadrupole Moments (Debye-Ang)
        XX     -44.2920     XY       5.8381     YY     -40.1955
        XZ       0.2988     YZ       0.8265     ZZ     -41.3607

 Total job time:  14.71s(wall), 558.40s(cpu)
        *  Thank you very much for using Q-Chem.  Have a nice day.  *
