 Q-Chem 5.4, Q-Chem, Inc., Pleasanton, CA (2021)
 Q-Chem 5.4.0 for Intel X86 EM64T Linux

User input:
--------------------------------------------------------------
$molecule
0 1
C	-0.177337	-0.368118	-0.220089
S	0.093763	0.377282	1.360411
C	0.653863	1.916282	0.684811
C	0.163863	0.569782	-1.205489
C	0.615263	1.810382	-0.713589
H	0.083263	0.348282	-2.279989
H	0.916563	2.638182	-1.372689
C	-0.177337	-1.846318	-0.220089
H	0.009663	-1.846918	0.843611
H	-1.148937	-2.285618	-0.048789
H	0.623263	-2.557318	-0.361389
H	0.954963	2.743882	1.335911
$end

$rem
JOBTYPE		SP
EXCHANGE	HF
CORRELATION	pRIMP2
BASIS		cc-pvtz
METHOD		rimp2
AUX_BASIS	rimp2-cc-pvtz
SOLVENT_METHOD	PCM
PURECART	11111
SYMMETRY	false
MEM_TOTAL	110000
SCF_CONVERGENCE = 6
THRESH=10
GUI = 2
$end

$solvent
dielectric 4.90
$end
--------------------------------------------------------------

             Standard Nuclear Orientation (Angstroms)
    I     Atom           X                Y                Z
 ----------------------------------------------------------------
    1      C      -0.1773370000    -0.3681180000    -0.2200890000
    2      S       0.0937630000     0.3772820000     1.3604110000
    3      C       0.6538630000     1.9162820000     0.6848110000
    4      C       0.1638630000     0.5697820000    -1.2054890000
    5      C       0.6152630000     1.8103820000    -0.7135890000
    6      H       0.0832630000     0.3482820000    -2.2799890000
    7      H       0.9165630000     2.6381820000    -1.3726890000
    8      C      -0.1773370000    -1.8463180000    -0.2200890000
    9      H       0.0096630000    -1.8469180000     0.8436110000
   10      H      -1.1489370000    -2.2856180000    -0.0487890000
   11      H       0.6232630000    -2.5573180000    -0.3613890000
   12      H       0.9549630000     2.7438820000     1.3359110000
 ----------------------------------------------------------------

   10    -590.3608869393      6.23e-07  Convergence criterion met
 Total energy in the final basis set =     -590.3608869393
        RIMP2         total energy =      -591.3646905705 a.u.

                    Orbital Energies (a.u.)
 --------------------------------------------------------------

 Alpha MOs
 -- Occupied --
-91.9796 -11.2791 -11.2720 -11.2430 -11.2386 -11.2213  -8.9797  -6.6605
 -6.6600  -6.6594  -1.1591  -1.0392  -0.9739  -0.9167  -0.7598  -0.7207
 -0.6718  -0.5952  -0.5697  -0.5629  -0.5362  -0.4966  -0.4624  -0.4483
 -0.3456  -0.3116

          Ground-State Mulliken Net Atomic Charges

     Atom                 Charge (a.u.)
  ----------------------------------------
      1 C                     0.009283
      2 S                    -0.004836
      3 C                    -0.227910
      4 C                    -0.215586
      5 C                    -0.188015
      6 H                     0.184691
      7 H                     0.186106
      8 C                    -0.345814
      9 H                     0.114615
     10 H                     0.124834
     11 H                     0.156122
     12 H                     0.206511
  ----------------------------------------
  Sum of atomic charges =     0.000000

                    Cartesian Multipole Moments
 -----------------------------------------------------------------
    Charge (ESU x 10^10)
                -0.0000
    Dipole Moment (Debye)
         X       0.6330      Y      -0.1078      Z      -0.4484
       Tot       0.7832
    Quadrupole Moments (Debye-Ang)
        XX     -46.5090     XY       2.4666     YY     -37.2982
        XZ      -0.0037     YZ      -0.3766     ZZ     -42.2929

 Total job time:  10.08s(wall), 547.51s(cpu)
        *  Thank you very much for using Q-Chem.  Have a nice day.  *
