 Q-Chem 5.4, Q-Chem, Inc., Pleasanton, CA (2021)
 Q-Chem 5.4.0 for Intel X86 EM64T Linux

User input:
--------------------------------------------------------------
$molecule
0 1
C	-0.338032	-0.278098	-0.211595
S	0.171668	0.329602	1.368905
C	1.224368	1.584202	0.693305
C	0.303368	0.486502	-1.196995
C	1.151868	1.497902	-0.705095
H	0.151868	0.306002	-2.271495
H	1.718068	2.172802	-1.364195
C	-0.338032	-1.756298	-0.211595
H	0.489668	-1.756898	-0.905395
H	0.296168	-2.195598	0.544205
H	-0.860732	-2.467298	-0.834295
H	1.790368	2.258902	1.344405
$end

$rem
JOBTYPE		SP
EXCHANGE	HF
CORRELATION	pRIMP2
BASIS		cc-pvtz
METHOD		rimp2
AUX_BASIS	rimp2-cc-pvtz
SOLVENT_METHOD	PCM
PURECART	11111
SYMMETRY	false
MEM_TOTAL	110000
SCF_CONVERGENCE = 6
THRESH=10
GUI = 2
$end

$solvent
dielectric 4.90
$end
--------------------------------------------------------------

             Standard Nuclear Orientation (Angstroms)
    I     Atom           X                Y                Z
 ----------------------------------------------------------------
    1      C      -0.3380320000    -0.2780980000    -0.2115950000
    2      S       0.1716680000     0.3296020000     1.3689050000
    3      C       1.2243680000     1.5842020000     0.6933050000
    4      C       0.3033680000     0.4865020000    -1.1969950000
    5      C       1.1518680000     1.4979020000    -0.7050950000
    6      H       0.1518680000     0.3060020000    -2.2714950000
    7      H       1.7180680000     2.1728020000    -1.3641950000
    8      C      -0.3380320000    -1.7562980000    -0.2115950000
    9      H       0.4896680000    -1.7568980000    -0.9053950000
   10      H       0.2961680000    -2.1955980000     0.5442050000
   11      H      -0.8607320000    -2.4672980000    -0.8342950000
   12      H       1.7903680000     2.2589020000     1.3444050000
 ----------------------------------------------------------------

   10    -590.3400826270      8.75e-07  Convergence criterion met
 Total energy in the final basis set =     -590.3400826270
        RIMP2         total energy =      -591.3487765455 a.u.

                    Orbital Energies (a.u.)
 --------------------------------------------------------------

 Alpha MOs
 -- Occupied --
-91.9787 -11.2777 -11.2727 -11.2437 -11.2393 -11.2197  -8.9786  -6.6594
 -6.6589  -6.6584  -1.1627  -1.0379  -0.9749  -0.9116  -0.7578  -0.7250
 -0.6711  -0.5963  -0.5683  -0.5534  -0.5468  -0.4832  -0.4709  -0.4517
 -0.3436  -0.3006

          Ground-State Mulliken Net Atomic Charges

     Atom                 Charge (a.u.)
  ----------------------------------------
      1 C                    -0.025945
      2 S                     0.007937
      3 C                    -0.213952
      4 C                    -0.180231
      5 C                    -0.211920
      6 H                     0.179326
      7 H                     0.187062
      8 C                    -0.367596
      9 H                     0.140403
     10 H                     0.136191
     11 H                     0.144393
     12 H                     0.204331
  ----------------------------------------
  Sum of atomic charges =     0.000000

                    Cartesian Multipole Moments
 -----------------------------------------------------------------
    Charge (ESU x 10^10)
                 0.0000
    Dipole Moment (Debye)
         X       1.5746      Y      -0.3946      Z      -1.4806
       Tot       2.1971
    Quadrupole Moments (Debye-Ang)
        XX     -44.8515     XY       3.5687     YY     -40.4441
        XZ       0.7469     YZ       1.6635     ZZ     -41.3089

 Total job time:  10.45s(wall), 554.64s(cpu)
        *  Thank you very much for using Q-Chem.  Have a nice day.  *
