 Q-Chem 5.4, Q-Chem, Inc., Pleasanton, CA (2021)
 Q-Chem 5.4.0 for Intel X86 EM64T Linux

User input:
--------------------------------------------------------------
$molecule
0 1
C	-0.130436	-0.381707	-0.210225
S	0.074664	0.384493	1.370275
C	0.498464	1.966393	0.694675
C	0.127664	0.582293	-1.195625
C	0.469264	1.857593	-0.703725
H	0.066764	0.354693	-2.270125
H	0.697264	2.708493	-1.362825
C	-0.130436	-1.859907	-0.210225
H	-0.957436	-1.860507	-0.904825
H	0.503764	-2.299207	-0.966025
H	-0.652936	-2.570907	0.412675
H	0.726364	2.817093	1.345775
$end

$rem
JOBTYPE		SP
EXCHANGE	HF
CORRELATION	pRIMP2
BASIS		cc-pvtz
METHOD		rimp2
AUX_BASIS	rimp2-cc-pvtz
SOLVENT_METHOD	PCM
PURECART	11111
SYMMETRY	false
MEM_TOTAL	110000
SCF_CONVERGENCE = 6
THRESH=10
GUI = 2
$end

$solvent
dielectric 4.90
$end
--------------------------------------------------------------

             Standard Nuclear Orientation (Angstroms)
    I     Atom           X                Y                Z
 ----------------------------------------------------------------
    1      C      -0.1304360000    -0.3817070000    -0.2102250000
    2      S       0.0746640000     0.3844930000     1.3702750000
    3      C       0.4984640000     1.9663930000     0.6946750000
    4      C       0.1276640000     0.5822930000    -1.1956250000
    5      C       0.4692640000     1.8575930000    -0.7037250000
    6      H       0.0667640000     0.3546930000    -2.2701250000
    7      H       0.6972640000     2.7084930000    -1.3628250000
    8      C      -0.1304360000    -1.8599070000    -0.2102250000
    9      H      -0.9574360000    -1.8605070000    -0.9048250000
   10      H       0.5037640000    -2.2992070000    -0.9660250000
   11      H      -0.6529360000    -2.5709070000     0.4126750000
   12      H       0.7263640000     2.8170930000     1.3457750000
 ----------------------------------------------------------------

   10    -590.3673850135      6.21e-07  Convergence criterion met
 Total energy in the final basis set =     -590.3673850135
        RIMP2         total energy =      -591.3701700418 a.u.

                    Orbital Energies (a.u.)
 --------------------------------------------------------------

 Alpha MOs
 -- Occupied --
-91.9757 -11.2880 -11.2648 -11.2432 -11.2369 -11.2249  -8.9757  -6.6566
 -6.6560  -6.6555  -1.1568  -1.0389  -0.9717  -0.9194  -0.7539  -0.7229
 -0.6710  -0.5979  -0.5641  -0.5608  -0.5447  -0.4999  -0.4665  -0.4457
 -0.3453  -0.3021

          Ground-State Mulliken Net Atomic Charges

     Atom                 Charge (a.u.)
  ----------------------------------------
      1 C                     0.033433
      2 S                    -0.001548
      3 C                    -0.241695
      4 C                    -0.246842
      5 C                    -0.182602
      6 H                     0.180516
      7 H                     0.186271
      8 C                    -0.370823
      9 H                     0.131090
     10 H                     0.136762
     11 H                     0.173088
     12 H                     0.202349
  ----------------------------------------
  Sum of atomic charges =     0.000000

                    Cartesian Multipole Moments
 -----------------------------------------------------------------
    Charge (ESU x 10^10)
                -0.0000
    Dipole Moment (Debye)
         X      -0.2512      Y      -0.6563      Z      -1.5676
       Tot       1.7179
    Quadrupole Moments (Debye-Ang)
        XX     -47.2355     XY       3.5371     YY     -36.6380
        XZ      -0.1074     YZ       1.4563     ZZ     -41.8236

 Total job time:  10.31s(wall), 540.90s(cpu)
        *  Thank you very much for using Q-Chem.  Have a nice day.  *
