 Q-Chem 5.4, Q-Chem, Inc., Pleasanton, CA (2021)
 Q-Chem 5.4.0 for Intel X86 EM64T Linux

User input:
--------------------------------------------------------------
$molecule
0 1
C	-0.253911	-0.329934	-0.216471
S	0.142489	0.357066	1.364029
C	0.961289	1.775366	0.688429
C	0.244889	0.534466	-1.201871
C	0.904989	1.677866	-0.709971
H	0.127089	0.330366	-2.276371
H	1.345389	2.440766	-1.369071
C	-0.253911	-1.808134	-0.216471
H	-1.189511	-1.808734	0.323029
H	-0.747211	-2.247434	-1.070971
H	0.152689	-2.519134	0.487529
H	1.401589	2.538166	1.339529
$end

$rem
JOBTYPE		SP
EXCHANGE	HF
CORRELATION	pRIMP2
BASIS		cc-pvtz
METHOD		rimp2
AUX_BASIS	rimp2-cc-pvtz
SOLVENT_METHOD	PCM
PURECART	11111
SYMMETRY	false
MEM_TOTAL	110000
SCF_CONVERGENCE = 6
THRESH=10
GUI = 2
$end

$solvent
dielectric 4.90
$end
--------------------------------------------------------------

             Standard Nuclear Orientation (Angstroms)
    I     Atom           X                Y                Z
 ----------------------------------------------------------------
    1      C      -0.2539110000    -0.3299340000    -0.2164710000
    2      S       0.1424890000     0.3570660000     1.3640290000
    3      C       0.9612890000     1.7753660000     0.6884290000
    4      C       0.2448890000     0.5344660000    -1.2018710000
    5      C       0.9049890000     1.6778660000    -0.7099710000
    6      H       0.1270890000     0.3303660000    -2.2763710000
    7      H       1.3453890000     2.4407660000    -1.3690710000
    8      C      -0.2539110000    -1.8081340000    -0.2164710000
    9      H      -1.1895110000    -1.8087340000     0.3230290000
   10      H      -0.7472110000    -2.2474340000    -1.0709710000
   11      H       0.1526890000    -2.5191340000     0.4875290000
   12      H       1.4015890000     2.5381660000     1.3395290000
 ----------------------------------------------------------------

   10    -590.3517406679      7.41e-07  Convergence criterion met
 Total energy in the final basis set =     -590.3517406679
        RIMP2         total energy =      -591.3573697036 a.u.

                    Orbital Energies (a.u.)
 --------------------------------------------------------------

 Alpha MOs
 -- Occupied --
-91.9777 -11.2780 -11.2725 -11.2434 -11.2391 -11.2209  -8.9778  -6.6587
 -6.6581  -6.6576  -1.1588  -1.0376  -0.9733  -0.9176  -0.7580  -0.7218
 -0.6702  -0.5956  -0.5639  -0.5597  -0.5473  -0.4859  -0.4651  -0.4541
 -0.3460  -0.3014

          Ground-State Mulliken Net Atomic Charges

     Atom                 Charge (a.u.)
  ----------------------------------------
      1 C                    -0.033820
      2 S                    -0.005865
      3 C                    -0.213628
      4 C                    -0.185887
      5 C                    -0.198193
      6 H                     0.184574
      7 H                     0.185450
      8 C                    -0.360291
      9 H                     0.127904
     10 H                     0.126903
     11 H                     0.167419
     12 H                     0.205434
  ----------------------------------------
  Sum of atomic charges =     0.000000

                    Cartesian Multipole Moments
 -----------------------------------------------------------------
    Charge (ESU x 10^10)
                 0.0000
    Dipole Moment (Debye)
         X       0.2083      Y      -0.2631      Z      -0.7858
       Tot       0.8545
    Quadrupole Moments (Debye-Ang)
        XX     -45.6670     XY       5.0356     YY     -38.4699
        XZ       0.7490     YZ      -0.0142     ZZ     -41.7459

 Total job time:  9.62s(wall), 529.44s(cpu)
        *  Thank you very much for using Q-Chem.  Have a nice day.  *
