 Q-Chem 5.4, Q-Chem, Inc., Pleasanton, CA (2021)
 Q-Chem 5.4.0 for Intel X86 EM64T Linux

User input:
--------------------------------------------------------------
$molecule
0 1
C	-0.001918	-0.399361	-0.219723
S	-0.002118	0.393839	1.360777
C	-0.002118	2.031539	0.685177
C	-0.002118	0.598639	-1.205123
C	-0.002218	1.918839	-0.713223
H	-0.002018	0.362939	-2.279623
H	-0.002218	2.799839	-1.372323
C	-0.001918	-1.877561	-0.219723
H	0.537582	-1.878161	0.715877
H	-0.856418	-2.316861	0.273577
H	0.702082	-2.588561	-0.626323
H	-0.002218	2.912239	1.336277
$end

$rem
JOBTYPE		SP
EXCHANGE	HF
CORRELATION	pRIMP2
BASIS		cc-pvtz
METHOD		rimp2
AUX_BASIS	rimp2-cc-pvtz
SOLVENT_METHOD	PCM
PURECART	11111
SYMMETRY	false
MEM_TOTAL	110000
SCF_CONVERGENCE = 6
THRESH=10
GUI = 2
$end

$solvent
dielectric 4.90
$end
--------------------------------------------------------------

             Standard Nuclear Orientation (Angstroms)
    I     Atom           X                Y                Z
 ----------------------------------------------------------------
    1      C      -0.0019180000    -0.3993610000    -0.2197230000
    2      S      -0.0021180000     0.3938390000     1.3607770000
    3      C      -0.0021180000     2.0315390000     0.6851770000
    4      C      -0.0021180000     0.5986390000    -1.2051230000
    5      C      -0.0022180000     1.9188390000    -0.7132230000
    6      H      -0.0020180000     0.3629390000    -2.2796230000
    7      H      -0.0022180000     2.7998390000    -1.3723230000
    8      C      -0.0019180000    -1.8775610000    -0.2197230000
    9      H       0.5375820000    -1.8781610000     0.7158770000
   10      H      -0.8564180000    -2.3168610000     0.2735770000
   11      H       0.7020820000    -2.5885610000    -0.6263230000
   12      H      -0.0022180000     2.9122390000     1.3362770000
 ----------------------------------------------------------------

   10    -590.3717973267      5.83e-07  Convergence criterion met
 Total energy in the final basis set =     -590.3717973267
        RIMP2         total energy =      -591.3728565236 a.u.

                    Orbital Energies (a.u.)
 --------------------------------------------------------------

 Alpha MOs
 -- Occupied --
-91.9800 -11.2853 -11.2682 -11.2429 -11.2348 -11.2245  -8.9800  -6.6608
 -6.6604  -6.6597  -1.1579  -1.0403  -0.9726  -0.9187  -0.7577  -0.7205
 -0.6718  -0.5971  -0.5678  -0.5631  -0.5345  -0.5007  -0.4651  -0.4534
 -0.3467  -0.3080

          Ground-State Mulliken Net Atomic Charges

     Atom                 Charge (a.u.)
  ----------------------------------------
      1 C                     0.023929
      2 S                    -0.004287
      3 C                    -0.235558
      4 C                    -0.223227
      5 C                    -0.189549
      6 H                     0.185223
      7 H                     0.185796
      8 C                    -0.351985
      9 H                     0.116097
     10 H                     0.129581
     11 H                     0.158138
     12 H                     0.205843
  ----------------------------------------
  Sum of atomic charges =     0.000000

                    Cartesian Multipole Moments
 -----------------------------------------------------------------
    Charge (ESU x 10^10)
                -0.0000
    Dipole Moment (Debye)
         X       0.3171      Y      -0.3429      Z      -0.4911
       Tot       0.6778
    Quadrupole Moments (Debye-Ang)
        XX     -47.6570     XY      -0.8862     YY     -35.9808
        XZ      -0.3976     YZ      -0.1503     ZZ     -42.3072

 Total job time:  10.51s(wall), 548.40s(cpu)
        *  Thank you very much for using Q-Chem.  Have a nice day.  *
