 Q-Chem 5.4, Q-Chem, Inc., Pleasanton, CA (2021)
 Q-Chem 5.4.0 for Intel X86 EM64T Linux

User input:
--------------------------------------------------------------
$molecule
0 1
C	-0.396229	-0.214208	-0.220018
S	0.211271	0.295792	1.360482
C	1.465771	1.348492	0.684882
C	0.368171	0.427392	-1.205418
C	1.379471	1.276092	-0.713518
H	0.187671	0.275892	-2.279918
H	2.054271	1.842392	-1.372618
C	-0.396229	-1.692408	-0.220018
H	-0.396729	-1.693008	0.859982
H	-1.382829	-2.131708	-0.220018
H	0.416771	-2.403408	-0.220118
H	2.140371	1.914692	1.335982
$end

$rem
JOBTYPE		SP
EXCHANGE	HF
CORRELATION	pRIMP2
BASIS		cc-pvtz
METHOD		rimp2
AUX_BASIS	rimp2-cc-pvtz
SOLVENT_METHOD	PCM
PURECART	11111
SYMMETRY	false
MEM_TOTAL	110000
SCF_CONVERGENCE = 6
THRESH=10
GUI = 2
$end

$solvent
dielectric 4.90
$end
--------------------------------------------------------------

             Standard Nuclear Orientation (Angstroms)
    I     Atom           X                Y                Z
 ----------------------------------------------------------------
    1      C      -0.3962290000    -0.2142080000    -0.2200180000
    2      S       0.2112710000     0.2957920000     1.3604820000
    3      C       1.4657710000     1.3484920000     0.6848820000
    4      C       0.3681710000     0.4273920000    -1.2054180000
    5      C       1.3794710000     1.2760920000    -0.7135180000
    6      H       0.1876710000     0.2758920000    -2.2799180000
    7      H       2.0542710000     1.8423920000    -1.3726180000
    8      C      -0.3962290000    -1.6924080000    -0.2200180000
    9      H      -0.3967290000    -1.6930080000     0.8599820000
   10      H      -1.3828290000    -2.1317080000    -0.2200180000
   11      H       0.4167710000    -2.4034080000    -0.2201180000
   12      H       2.1403710000     1.9146920000     1.3359820000
 ----------------------------------------------------------------

   11    -590.3150572112      4.46e-07  Convergence criterion met
 Total energy in the final basis set =     -590.3150572112
        RIMP2         total energy =      -591.3268610161 a.u.

                    Orbital Energies (a.u.)
 --------------------------------------------------------------

 Alpha MOs
 -- Occupied --
-91.9763 -11.2875 -11.2567 -11.2525 -11.2432 -11.2130  -8.9772  -6.6580
 -6.6571  -6.6568  -1.1661  -1.0376  -0.9786  -0.9085  -0.7659  -0.7244
 -0.6717  -0.5904  -0.5734  -0.5623  -0.5426  -0.4751  -0.4615  -0.4418
 -0.3395  -0.3137

          Ground-State Mulliken Net Atomic Charges

     Atom                 Charge (a.u.)
  ----------------------------------------
      1 C                    -0.088510
      2 S                     0.004070
      3 C                    -0.177873
      4 C                    -0.126099
      5 C                    -0.219283
      6 H                     0.185832
      7 H                     0.186242
      8 C                    -0.349208
      9 H                     0.115262
     10 H                     0.110934
     11 H                     0.150516
     12 H                     0.208118
  ----------------------------------------
  Sum of atomic charges =     0.000000

                    Cartesian Multipole Moments
 -----------------------------------------------------------------
    Charge (ESU x 10^10)
                 0.0000
    Dipole Moment (Debye)
         X       1.8788      Y       0.1949      Z      -0.5127
       Tot       1.9572
    Quadrupole Moments (Debye-Ang)
        XX     -42.4894     XY       4.4418     YY     -42.2177
        XZ       0.4246     YZ      -0.5538     ZZ     -41.6719

 Total job time:  23.89s(wall), 598.60s(cpu)
        *  Thank you very much for using Q-Chem.  Have a nice day.  *
