 Q-Chem 5.4, Q-Chem, Inc., Pleasanton, CA (2021)
 Q-Chem 5.4.0 for Intel X86 EM64T Linux

User input:
--------------------------------------------------------------
$molecule
0 1
C	-0.443422	-0.140188	-0.213580
S	0.243378	0.256612	1.366920
C	1.661678	1.075412	0.691320
C	0.420778	0.358912	-1.198980
C	1.564078	1.019112	-0.707080
H	0.216678	0.241112	-2.273480
H	2.326978	1.459712	-1.366180
C	-0.443422	-1.618388	-0.213580
H	-1.523422	-1.618988	-0.214080
H	-0.443422	-2.057688	-1.200180
H	-0.443322	-2.329388	0.599420
H	2.424278	1.515912	1.342420
$end

$rem
JOBTYPE		SP
EXCHANGE	HF
CORRELATION	pRIMP2
BASIS		cc-pvtz
METHOD		rimp2
AUX_BASIS	rimp2-cc-pvtz
SOLVENT_METHOD	PCM
PURECART	11111
SYMMETRY	false
MEM_TOTAL	110000
SCF_CONVERGENCE = 6
THRESH=10
GUI = 2
$end

$solvent
dielectric 4.90
$end
--------------------------------------------------------------

             Standard Nuclear Orientation (Angstroms)
    I     Atom           X                Y                Z
 ----------------------------------------------------------------
    1      C      -0.4434220000    -0.1401880000    -0.2135800000
    2      S       0.2433780000     0.2566120000     1.3669200000
    3      C       1.6616780000     1.0754120000     0.6913200000
    4      C       0.4207780000     0.3589120000    -1.1989800000
    5      C       1.5640780000     1.0191120000    -0.7070800000
    6      H       0.2166780000     0.2411120000    -2.2734800000
    7      H       2.3269780000     1.4597120000    -1.3661800000
    8      C      -0.4434220000    -1.6183880000    -0.2135800000
    9      H      -1.5234220000    -1.6189880000    -0.2140800000
   10      H      -0.4434220000    -2.0576880000    -1.2001800000
   11      H      -0.4433220000    -2.3293880000     0.5994200000
   12      H       2.4242780000     1.5159120000     1.3424200000
 ----------------------------------------------------------------

   11    -590.2895527585      8.08e-07  Convergence criterion met
 Total energy in the final basis set =     -590.2895527585
        RIMP2         total energy =      -591.3055085539 a.u.

                    Orbital Energies (a.u.)
 --------------------------------------------------------------

 Alpha MOs
 -- Occupied --
-91.9745 -11.2914 -11.2570 -11.2473 -11.2446 -11.2094  -8.9753  -6.6560
 -6.6551  -6.6550  -1.1671  -1.0350  -0.9784  -0.9087  -0.7636  -0.7280
 -0.6696  -0.5918  -0.5645  -0.5557  -0.5494  -0.4952  -0.4582  -0.4275
 -0.3434  -0.2927

          Ground-State Mulliken Net Atomic Charges

     Atom                 Charge (a.u.)
  ----------------------------------------
      1 C                    -0.121725
      2 S                     0.009871
      3 C                    -0.157236
      4 C                    -0.086563
      5 C                    -0.238206
      6 H                     0.189196
      7 H                     0.185046
      8 C                    -0.389308
      9 H                     0.125044
     10 H                     0.121343
     11 H                     0.154700
     12 H                     0.207838
  ----------------------------------------
  Sum of atomic charges =     0.000000

                    Cartesian Multipole Moments
 -----------------------------------------------------------------
    Charge (ESU x 10^10)
                 0.0000
    Dipole Moment (Debye)
         X       1.7424      Y      -0.0749      Z      -1.1572
       Tot       2.0930
    Quadrupole Moments (Debye-Ang)
        XX     -41.3428     XY       5.4300     YY     -43.8960
        XZ       0.8383     YZ       0.1998     ZZ     -40.6145

 Total job time:  11.18s(wall), 597.96s(cpu)
        *  Thank you very much for using Q-Chem.  Have a nice day.  *
