 Q-Chem 5.4, Q-Chem, Inc., Pleasanton, CA (2021)
 Q-Chem 5.4.0 for Intel X86 EM64T Linux

User input:
--------------------------------------------------------------
$molecule
0 1
C	-0.049926	-0.397395	-0.211595
S	0.018974	0.392805	1.368905
C	0.161674	2.024305	0.693305
C	0.036874	0.596805	-1.196995
C	0.151874	1.912005	-0.705095
H	0.016374	0.362105	-2.271495
H	0.228574	2.789605	-1.364195
C	-0.049926	-1.875595	-0.211595
H	0.777774	-1.876195	-0.905395
H	0.584274	-2.314895	0.544205
H	-0.572626	-2.586595	-0.834295
H	0.238374	2.901605	1.344405
$end

$rem
JOBTYPE		SP
EXCHANGE	HF
CORRELATION	pRIMP2
BASIS		cc-pvtz
METHOD		rimp2
AUX_BASIS	rimp2-cc-pvtz
SOLVENT_METHOD	PCM
PURECART	11111
SYMMETRY	false
MEM_TOTAL	110000
SCF_CONVERGENCE = 6
THRESH=10
GUI = 2
$end

$solvent
dielectric 4.90
$end
--------------------------------------------------------------

             Standard Nuclear Orientation (Angstroms)
    I     Atom           X                Y                Z
 ----------------------------------------------------------------
    1      C      -0.0499260000    -0.3973950000    -0.2115950000
    2      S       0.0189740000     0.3928050000     1.3689050000
    3      C       0.1616740000     2.0243050000     0.6933050000
    4      C       0.0368740000     0.5968050000    -1.1969950000
    5      C       0.1518740000     1.9120050000    -0.7050950000
    6      H       0.0163740000     0.3621050000    -2.2714950000
    7      H       0.2285740000     2.7896050000    -1.3641950000
    8      C      -0.0499260000    -1.8755950000    -0.2115950000
    9      H       0.7777740000    -1.8761950000    -0.9053950000
   10      H       0.5842740000    -2.3148950000     0.5442050000
   11      H      -0.5726260000    -2.5865950000    -0.8342950000
   12      H       0.2383740000     2.9016050000     1.3444050000
 ----------------------------------------------------------------

   10    -590.3732972995      5.99e-07  Convergence criterion met
 Total energy in the final basis set =     -590.3732972995
        RIMP2         total energy =      -591.3744943061 a.u.

                    Orbital Energies (a.u.)
 --------------------------------------------------------------

 Alpha MOs
 -- Occupied --
-91.9782 -11.2894 -11.2639 -11.2430 -11.2341 -11.2260  -8.9780  -6.6589
 -6.6584  -6.6578  -1.1569  -1.0394  -0.9719  -0.9192  -0.7542  -0.7231
 -0.6718  -0.5974  -0.5669  -0.5561  -0.5435  -0.4986  -0.4702  -0.4507
 -0.3456  -0.3028

          Ground-State Mulliken Net Atomic Charges

     Atom                 Charge (a.u.)
  ----------------------------------------
      1 C                     0.036360
      2 S                    -0.002353
      3 C                    -0.242514
      4 C                    -0.237255
      5 C                    -0.190374
      6 H                     0.181268
      7 H                     0.185593
      8 C                    -0.364368
      9 H                     0.134241
     10 H                     0.138282
     11 H                     0.157681
     12 H                     0.203440
  ----------------------------------------
  Sum of atomic charges =     0.000000

                    Cartesian Multipole Moments
 -----------------------------------------------------------------
    Charge (ESU x 10^10)
                -0.0000
    Dipole Moment (Debye)
         X       0.6611      Y      -0.6610      Z      -1.5187
       Tot       1.7834
    Quadrupole Moments (Debye-Ang)
        XX     -47.9588     XY      -0.2733     YY     -36.1236
        XZ       0.3066     YZ       1.8784     ZZ     -41.7548

 Total job time:  10.15s(wall), 547.00s(cpu)
        *  Thank you very much for using Q-Chem.  Have a nice day.  *
