 Q-Chem 5.4, Q-Chem, Inc., Pleasanton, CA (2021)
 Q-Chem 5.4.0 for Intel X86 EM64T Linux

User input:
--------------------------------------------------------------
$molecule
0 1
C	-0.402739	-0.214208	-0.214392
S	0.204761	0.295792	1.366108
C	1.459261	1.348492	0.690508
C	0.361661	0.427392	-1.199792
C	1.372961	1.276092	-0.707892
H	0.181161	0.275892	-2.274292
H	2.047761	1.842392	-1.366992
C	-0.402739	-1.692408	-0.214392
H	0.660961	-1.693008	-0.401392
H	-0.231439	-2.131708	0.757208
H	-0.544039	-2.403408	-1.014992
H	2.133861	1.914692	1.341608
$end

$rem
JOBTYPE		SP
EXCHANGE	HF
CORRELATION	pRIMP2
BASIS		cc-pvtz
METHOD		rimp2
AUX_BASIS	rimp2-cc-pvtz
SOLVENT_METHOD	PCM
PURECART	11111
SYMMETRY	false
MEM_TOTAL	110000
SCF_CONVERGENCE = 6
THRESH=10
GUI = 2
$end

$solvent
dielectric 4.90
$end
--------------------------------------------------------------

             Standard Nuclear Orientation (Angstroms)
    I     Atom           X                Y                Z
 ----------------------------------------------------------------
    1      C      -0.4027390000    -0.2142080000    -0.2143920000
    2      S       0.2047610000     0.2957920000     1.3661080000
    3      C       1.4592610000     1.3484920000     0.6905080000
    4      C       0.3616610000     0.4273920000    -1.1997920000
    5      C       1.3729610000     1.2760920000    -0.7078920000
    6      H       0.1811610000     0.2758920000    -2.2742920000
    7      H       2.0477610000     1.8423920000    -1.3669920000
    8      C      -0.4027390000    -1.6924080000    -0.2143920000
    9      H       0.6609610000    -1.6930080000    -0.4013920000
   10      H      -0.2314390000    -2.1317080000     0.7572080000
   11      H      -0.5440390000    -2.4034080000    -1.0149920000
   12      H       2.1338610000     1.9146920000     1.3416080000
 ----------------------------------------------------------------

   11    -590.3242555038      5.32e-07  Convergence criterion met
 Total energy in the final basis set =     -590.3242555038
        RIMP2         total energy =      -591.3358092665 a.u.

                    Orbital Energies (a.u.)
 --------------------------------------------------------------

 Alpha MOs
 -- Occupied --
-91.9790 -11.2791 -11.2731 -11.2453 -11.2411 -11.2212  -8.9793  -6.6601
 -6.6594  -6.6590  -1.1677  -1.0393  -0.9768  -0.9086  -0.7612  -0.7259
 -0.6725  -0.5957  -0.5675  -0.5615  -0.5382  -0.4899  -0.4653  -0.4565
 -0.3460  -0.2958

          Ground-State Mulliken Net Atomic Charges

     Atom                 Charge (a.u.)
  ----------------------------------------
      1 C                    -0.059594
      2 S                     0.014205
      3 C                    -0.204110
      4 C                    -0.153151
      5 C                    -0.218288
      6 H                     0.180241
      7 H                     0.187485
      8 C                    -0.356457
      9 H                     0.132783
     10 H                     0.126385
     11 H                     0.143778
     12 H                     0.206722
  ----------------------------------------
  Sum of atomic charges =     0.000000

                    Cartesian Multipole Moments
 -----------------------------------------------------------------
    Charge (ESU x 10^10)
                 0.0000
    Dipole Moment (Debye)
         X       2.0584      Y      -0.3958      Z      -1.1430
       Tot       2.3875
    Quadrupole Moments (Debye-Ang)
        XX     -43.7907     XY       3.7730     YY     -41.9889
        XZ       0.5360     YZ       1.1667     ZZ     -41.0744

 Total job time:  11.60s(wall), 603.47s(cpu)
        *  Thank you very much for using Q-Chem.  Have a nice day.  *
