 Q-Chem 5.4, Q-Chem, Inc., Pleasanton, CA (2021)
 Q-Chem 5.4.0 for Intel X86 EM64T Linux

User input:
--------------------------------------------------------------
$molecule
0 1
C	-0.328388	-0.278098	-0.217353
S	0.181312	0.329602	1.363147
C	1.234012	1.584202	0.687547
C	0.313012	0.486502	-1.202753
C	1.161512	1.497902	-0.710853
H	0.161512	0.306002	-2.277253
H	1.727712	2.172802	-1.369953
C	-0.328388	-1.756298	-0.217353
H	-1.156088	-1.756898	0.476447
H	-0.962588	-2.195598	-0.973153
H	0.194312	-2.467298	0.405347
H	1.800012	2.258902	1.338647
$end

$rem
JOBTYPE		SP
EXCHANGE	HF
CORRELATION	pRIMP2
BASIS		cc-pvtz
METHOD		rimp2
AUX_BASIS	rimp2-cc-pvtz
SOLVENT_METHOD	PCM
PURECART	11111
SYMMETRY	false
MEM_TOTAL	110000
SCF_CONVERGENCE = 6
THRESH=10
GUI = 2
$end

$solvent
dielectric 4.90
$end
--------------------------------------------------------------

             Standard Nuclear Orientation (Angstroms)
    I     Atom           X                Y                Z
 ----------------------------------------------------------------
    1      C      -0.3283880000    -0.2780980000    -0.2173530000
    2      S       0.1813120000     0.3296020000     1.3631470000
    3      C       1.2340120000     1.5842020000     0.6875470000
    4      C       0.3130120000     0.4865020000    -1.2027530000
    5      C       1.1615120000     1.4979020000    -0.7108530000
    6      H       0.1615120000     0.3060020000    -2.2772530000
    7      H       1.7277120000     2.1728020000    -1.3699530000
    8      C      -0.3283880000    -1.7562980000    -0.2173530000
    9      H      -1.1560880000    -1.7568980000     0.4764470000
   10      H      -0.9625880000    -2.1955980000    -0.9731530000
   11      H       0.1943120000    -2.4672980000     0.4053470000
   12      H       1.8000120000     2.2589020000     1.3386470000
 ----------------------------------------------------------------

   10    -590.3378037694      8.44e-07  Convergence criterion met
 Total energy in the final basis set =     -590.3378037694
        RIMP2         total energy =      -591.3463985052 a.u.

                    Orbital Energies (a.u.)
 --------------------------------------------------------------

 Alpha MOs
 -- Occupied --
-91.9780 -11.2795 -11.2680 -11.2447 -11.2435 -11.2175  -8.9782  -6.6591
 -6.6585  -6.6580  -1.1611  -1.0364  -0.9752  -0.9149  -0.7605  -0.7229
 -0.6703  -0.5940  -0.5646  -0.5609  -0.5479  -0.4809  -0.4585  -0.4529
 -0.3459  -0.3043

          Ground-State Mulliken Net Atomic Charges

     Atom                 Charge (a.u.)
  ----------------------------------------
      1 C                    -0.062874
      2 S                     0.000977
      3 C                    -0.195888
      4 C                    -0.156816
      5 C                    -0.205329
      6 H                     0.184895
      7 H                     0.185876
      8 C                    -0.362999
      9 H                     0.120401
     10 H                     0.122645
     11 H                     0.162916
     12 H                     0.206196
  ----------------------------------------
  Sum of atomic charges =     0.000000

                    Cartesian Multipole Moments
 -----------------------------------------------------------------
    Charge (ESU x 10^10)
                 0.0000
    Dipole Moment (Debye)
         X       0.7999      Y       0.0253      Z      -0.7365
       Tot       1.0876
    Quadrupole Moments (Debye-Ang)
        XX     -44.0783     XY       5.4469     YY     -40.1966
        XZ       0.8829     YZ      -0.1159     ZZ     -41.6438

 Total job time:  10.15s(wall), 552.48s(cpu)
        *  Thank you very much for using Q-Chem.  Have a nice day.  *
