 Q-Chem 5.4, Q-Chem, Inc., Pleasanton, CA (2021)
 Q-Chem 5.4.0 for Intel X86 EM64T Linux

User input:
--------------------------------------------------------------
$molecule
0 1
C	-0.180928	-0.368118	-0.218722
S	0.090172	0.377282	1.361778
C	0.650272	1.916282	0.686178
C	0.160272	0.569782	-1.204122
C	0.611672	1.810382	-0.712222
H	0.079672	0.348282	-2.278622
H	0.912972	2.638182	-1.371322
C	-0.180928	-1.846318	-0.218722
H	0.646072	-1.846918	0.475878
H	-0.815128	-2.285618	0.537078
H	0.341572	-2.557318	-0.841622
H	0.951372	2.743882	1.337278
$end

$rem
JOBTYPE		SP
EXCHANGE	HF
CORRELATION	pRIMP2
BASIS		cc-pvtz
METHOD		rimp2
AUX_BASIS	rimp2-cc-pvtz
SOLVENT_METHOD	PCM
PURECART	11111
SYMMETRY	false
MEM_TOTAL	110000
SCF_CONVERGENCE = 6
THRESH=10
GUI = 2
$end

$solvent
dielectric 4.90
$end
--------------------------------------------------------------

             Standard Nuclear Orientation (Angstroms)
    I     Atom           X                Y                Z
 ----------------------------------------------------------------
    1      C      -0.1809280000    -0.3681180000    -0.2187220000
    2      S       0.0901720000     0.3772820000     1.3617780000
    3      C       0.6502720000     1.9162820000     0.6861780000
    4      C       0.1602720000     0.5697820000    -1.2041220000
    5      C       0.6116720000     1.8103820000    -0.7122220000
    6      H       0.0796720000     0.3482820000    -2.2786220000
    7      H       0.9129720000     2.6381820000    -1.3713220000
    8      C      -0.1809280000    -1.8463180000    -0.2187220000
    9      H       0.6460720000    -1.8469180000     0.4758780000
   10      H      -0.8151280000    -2.2856180000     0.5370780000
   11      H       0.3415720000    -2.5573180000    -0.8416220000
   12      H       0.9513720000     2.7438820000     1.3372780000
 ----------------------------------------------------------------

   10    -590.3650882542      6.31e-07  Convergence criterion met
 Total energy in the final basis set =     -590.3650882542
        RIMP2         total energy =      -591.3667490083 a.u.

                    Orbital Energies (a.u.)
 --------------------------------------------------------------

 Alpha MOs
 -- Occupied --
-91.9773 -11.2860 -11.2683 -11.2428 -11.2351 -11.2248  -8.9776  -6.6585
 -6.6580  -6.6574  -1.1592  -1.0403  -0.9725  -0.9172  -0.7574  -0.7212
 -0.6717  -0.5958  -0.5678  -0.5630  -0.5329  -0.5015  -0.4686  -0.4546
 -0.3468  -0.3021

          Ground-State Mulliken Net Atomic Charges

     Atom                 Charge (a.u.)
  ----------------------------------------
      1 C                     0.023919
      2 S                    -0.004818
      3 C                    -0.236193
      4 C                    -0.249442
      5 C                    -0.180106
      6 H                     0.183728
      7 H                     0.186519
      8 C                    -0.359419
      9 H                     0.133104
     10 H                     0.133084
     11 H                     0.164669
     12 H                     0.204955
  ----------------------------------------
  Sum of atomic charges =     0.000000

                    Cartesian Multipole Moments
 -----------------------------------------------------------------
    Charge (ESU x 10^10)
                -0.0000
    Dipole Moment (Debye)
         X       0.9802      Y      -0.5076      Z      -0.6475
       Tot       1.2798
    Quadrupole Moments (Debye-Ang)
        XX     -47.1202     XY       1.7131     YY     -37.1017
        XZ      -0.3020     YZ       0.1239     ZZ     -42.0751

 Total job time:  10.87s(wall), 548.39s(cpu)
        *  Thank you very much for using Q-Chem.  Have a nice day.  *
