 Q-Chem 5.4, Q-Chem, Inc., Pleasanton, CA (2021)
 Q-Chem 5.4.0 for Intel X86 EM64T Linux

User input:
--------------------------------------------------------------
$molecule
0 1
C	-0.139624	-0.381707	-0.213418
S	0.065476	0.384493	1.367082
C	0.489276	1.966393	0.691482
C	0.118476	0.582293	-1.198818
C	0.460076	1.857593	-0.706918
H	0.057576	0.354693	-2.273318
H	0.688076	2.708493	-1.366018
C	-0.139624	-1.859907	-0.213418
H	0.875376	-1.860507	-0.582318
H	0.197776	-2.299207	0.713682
H	-0.417824	-2.570907	-0.977318
H	0.717176	2.817093	1.342582
$end

$rem
JOBTYPE		SP
EXCHANGE	HF
CORRELATION	pRIMP2
BASIS		cc-pvtz
METHOD		rimp2
AUX_BASIS	rimp2-cc-pvtz
SOLVENT_METHOD	PCM
PURECART	11111
SYMMETRY	false
MEM_TOTAL	110000
SCF_CONVERGENCE = 6
THRESH=10
GUI = 2
$end

$solvent
dielectric 4.90
$end
--------------------------------------------------------------

             Standard Nuclear Orientation (Angstroms)
    I     Atom           X                Y                Z
 ----------------------------------------------------------------
    1      C      -0.1396240000    -0.3817070000    -0.2134180000
    2      S       0.0654760000     0.3844930000     1.3670820000
    3      C       0.4892760000     1.9663930000     0.6914820000
    4      C       0.1184760000     0.5822930000    -1.1988180000
    5      C       0.4600760000     1.8575930000    -0.7069180000
    6      H       0.0575760000     0.3546930000    -2.2733180000
    7      H       0.6880760000     2.7084930000    -1.3660180000
    8      C      -0.1396240000    -1.8599070000    -0.2134180000
    9      H       0.8753760000    -1.8605070000    -0.5823180000
   10      H       0.1977760000    -2.2992070000     0.7136820000
   11      H      -0.4178240000    -2.5709070000    -0.9773180000
   12      H       0.7171760000     2.8170930000     1.3425820000
 ----------------------------------------------------------------

   10    -590.3708695804      6.32e-07  Convergence criterion met
 Total energy in the final basis set =     -590.3708695804
        RIMP2         total energy =      -591.3718642000 a.u.

                    Orbital Energies (a.u.)
 --------------------------------------------------------------

 Alpha MOs
 -- Occupied --
-91.9796 -11.2910 -11.2625 -11.2431 -11.2308 -11.2278  -8.9793  -6.6602
 -6.6597  -6.6591  -1.1578  -1.0403  -0.9717  -0.9182  -0.7546  -0.7226
 -0.6714  -0.5974  -0.5661  -0.5544  -0.5450  -0.4948  -0.4755  -0.4559
 -0.3463  -0.2984

          Ground-State Mulliken Net Atomic Charges

     Atom                 Charge (a.u.)
  ----------------------------------------
      1 C                     0.026389
      2 S                     0.001931
      3 C                    -0.247162
      4 C                    -0.237770
      5 C                    -0.189247
      6 H                     0.178895
      7 H                     0.185876
      8 C                    -0.366610
      9 H                     0.145518
     10 H                     0.135926
     11 H                     0.162572
     12 H                     0.203683
  ----------------------------------------
  Sum of atomic charges =     0.000000

                    Cartesian Multipole Moments
 -----------------------------------------------------------------
    Charge (ESU x 10^10)
                 0.0000
    Dipole Moment (Debye)
         X       0.9652      Y      -0.8237      Z      -1.2882
       Tot       1.8082
    Quadrupole Moments (Debye-Ang)
        XX     -47.8316     XY       0.9156     YY     -36.6568
        XZ       0.2074     YZ       1.5282     ZZ     -41.6493

 Total job time:  10.50s(wall), 545.83s(cpu)
        *  Thank you very much for using Q-Chem.  Have a nice day.  *
