 Q-Chem 5.4, Q-Chem, Inc., Pleasanton, CA (2021)
 Q-Chem 5.4.0 for Intel X86 EM64T Linux

User input:
--------------------------------------------------------------
$molecule
0 1
C	-0.045997	-0.397395	-0.208929
S	0.022903	0.392805	1.371571
C	0.165603	2.024305	0.695971
C	0.040803	0.596805	-1.194329
C	0.155803	1.912005	-0.702429
H	0.020303	0.362105	-2.268829
H	0.232503	2.789605	-1.361529
C	-0.045997	-1.875595	-0.208929
H	-0.045497	-1.876195	-1.288929
H	0.940603	-2.314895	-0.208929
H	-0.858997	-2.586595	-0.208829
H	0.242303	2.901605	1.347071
$end

$rem
JOBTYPE		SP
EXCHANGE	HF
CORRELATION	pRIMP2
BASIS		cc-pvtz
METHOD		rimp2
AUX_BASIS	rimp2-cc-pvtz
SOLVENT_METHOD	PCM
PURECART	11111
SYMMETRY	false
MEM_TOTAL	110000
SCF_CONVERGENCE = 6
THRESH=10
GUI = 2
$end

$solvent
dielectric 4.90
$end
--------------------------------------------------------------

             Standard Nuclear Orientation (Angstroms)
    I     Atom           X                Y                Z
 ----------------------------------------------------------------
    1      C      -0.0459970000    -0.3973950000    -0.2089290000
    2      S       0.0229030000     0.3928050000     1.3715710000
    3      C       0.1656030000     2.0243050000     0.6959710000
    4      C       0.0408030000     0.5968050000    -1.1943290000
    5      C       0.1558030000     1.9120050000    -0.7024290000
    6      H       0.0203030000     0.3621050000    -2.2688290000
    7      H       0.2325030000     2.7896050000    -1.3615290000
    8      C      -0.0459970000    -1.8755950000    -0.2089290000
    9      H      -0.0454970000    -1.8761950000    -1.2889290000
   10      H       0.9406030000    -2.3148950000    -0.2089290000
   11      H      -0.8589970000    -2.5865950000    -0.2088290000
   12      H       0.2423030000     2.9016050000     1.3470710000
 ----------------------------------------------------------------

   10    -590.3736500668      5.74e-07  Convergence criterion met
 Total energy in the final basis set =     -590.3736500668
        RIMP2         total energy =      -591.3757631588 a.u.

                    Orbital Energies (a.u.)
 --------------------------------------------------------------

 Alpha MOs
 -- Occupied --
-91.9747 -11.2853 -11.2689 -11.2430 -11.2413 -11.2236  -8.9748  -6.6557
 -6.6551  -6.6547  -1.1571  -1.0380  -0.9729  -0.9193  -0.7545  -0.7244
 -0.6726  -0.5974  -0.5711  -0.5600  -0.5389  -0.5004  -0.4675  -0.4365
 -0.3449  -0.3130

          Ground-State Mulliken Net Atomic Charges

     Atom                 Charge (a.u.)
  ----------------------------------------
      1 C                     0.035104
      2 S                    -0.008995
      3 C                    -0.227686
      4 C                    -0.221092
      5 C                    -0.202168
      6 H                     0.183444
      7 H                     0.186876
      8 C                    -0.355398
      9 H                     0.117509
     10 H                     0.131305
     11 H                     0.156697
     12 H                     0.204403
  ----------------------------------------
  Sum of atomic charges =     0.000000

                    Cartesian Multipole Moments
 -----------------------------------------------------------------
    Charge (ESU x 10^10)
                -0.0000
    Dipole Moment (Debye)
         X       0.1363      Y      -0.3245      Z      -1.7882
       Tot       1.8225
    Quadrupole Moments (Debye-Ang)
        XX     -47.3869     XY       0.9811     YY     -36.0553
        XZ       0.0814     YZ       2.1228     ZZ     -42.1311

 Total job time:  10.03s(wall), 543.64s(cpu)
        *  Thank you very much for using Q-Chem.  Have a nice day.  *
