 Q-Chem 5.4, Q-Chem, Inc., Pleasanton, CA (2021)
 Q-Chem 5.4.0 for Intel X86 EM64T Linux

User input:
--------------------------------------------------------------
$molecule
0 1
C	-0.254256	-0.329934	-0.211737
S	0.142144	0.357066	1.368763
C	0.960944	1.775366	0.693163
C	0.244544	0.534466	-1.197137
C	0.904644	1.677866	-0.705237
H	0.126744	0.330366	-2.271637
H	1.345044	2.440766	-1.364337
C	-0.254256	-1.808134	-0.211737
H	-1.268956	-1.808734	-0.581637
H	0.083244	-2.247434	-1.138837
H	-0.532156	-2.519134	0.552263
H	1.401244	2.538166	1.344263
$end

$rem
JOBTYPE		SP
EXCHANGE	HF
CORRELATION	pRIMP2
BASIS		cc-pvtz
METHOD		rimp2
AUX_BASIS	rimp2-cc-pvtz
SOLVENT_METHOD	PCM
PURECART	11111
SYMMETRY	false
MEM_TOTAL	110000
SCF_CONVERGENCE = 6
THRESH=10
GUI = 2
$end

$solvent
dielectric 4.90
$end
--------------------------------------------------------------

             Standard Nuclear Orientation (Angstroms)
    I     Atom           X                Y                Z
 ----------------------------------------------------------------
    1      C      -0.2542560000    -0.3299340000    -0.2117370000
    2      S       0.1421440000     0.3570660000     1.3687630000
    3      C       0.9609440000     1.7753660000     0.6931630000
    4      C       0.2445440000     0.5344660000    -1.1971370000
    5      C       0.9046440000     1.6778660000    -0.7052370000
    6      H       0.1267440000     0.3303660000    -2.2716370000
    7      H       1.3450440000     2.4407660000    -1.3643370000
    8      C      -0.2542560000    -1.8081340000    -0.2117370000
    9      H      -1.2689560000    -1.8087340000    -0.5816370000
   10      H       0.0832440000    -2.2474340000    -1.1388370000
   11      H      -0.5321560000    -2.5191340000     0.5522630000
   12      H       1.4012440000     2.5381660000     1.3442630000
 ----------------------------------------------------------------

   10    -590.3507350305      7.16e-07  Convergence criterion met
 Total energy in the final basis set =     -590.3507350305
        RIMP2         total energy =      -591.3569054238 a.u.

                    Orbital Energies (a.u.)
 --------------------------------------------------------------

 Alpha MOs
 -- Occupied --
-91.9753 -11.2823 -11.2680 -11.2433 -11.2384 -11.2219  -8.9755  -6.6563
 -6.6557  -6.6552  -1.1580  -1.0378  -0.9721  -0.9178  -0.7554  -0.7228
 -0.6697  -0.5958  -0.5615  -0.5585  -0.5482  -0.4995  -0.4631  -0.4470
 -0.3451  -0.2970

          Ground-State Mulliken Net Atomic Charges

     Atom                 Charge (a.u.)
  ----------------------------------------
      1 C                     0.008343
      2 S                     0.001800
      3 C                    -0.232962
      4 C                    -0.228633
      5 C                    -0.185852
      6 H                     0.180326
      7 H                     0.187316
      8 C                    -0.372720
      9 H                     0.131222
     10 H                     0.139918
     11 H                     0.168330
     12 H                     0.202912
  ----------------------------------------
  Sum of atomic charges =     0.000000

                    Cartesian Multipole Moments
 -----------------------------------------------------------------
    Charge (ESU x 10^10)
                 0.0000
    Dipole Moment (Debye)
         X       0.0001      Y      -0.5727      Z      -1.3623
       Tot       1.4778
    Quadrupole Moments (Debye-Ang)
        XX     -45.7646     XY       5.3151     YY     -38.4866
        XZ       0.1910     YZ       0.9243     ZZ     -41.5504

 Total job time:  10.17s(wall), 552.23s(cpu)
        *  Thank you very much for using Q-Chem.  Have a nice day.  *
