 Q-Chem 5.4, Q-Chem, Inc., Pleasanton, CA (2021)
 Q-Chem 5.4.0 for Intel X86 EM64T Linux

User input:
--------------------------------------------------------------
$molecule
0 1
C	-0.221034	-0.350804	-0.219723
S	0.113966	0.368096	1.360777
C	0.806066	1.852396	0.685177
C	0.200566	0.553796	-1.205123
C	0.758466	1.750296	-0.713223
H	0.100966	0.340196	-2.279623
H	1.130666	2.548796	-1.372323
C	-0.221034	-1.829004	-0.219723
H	0.318466	-1.829604	0.715877
H	-1.075534	-2.268304	0.273577
H	0.482966	-2.540004	-0.626323
H	1.178166	2.650596	1.336277
$end

$rem
JOBTYPE		SP
EXCHANGE	HF
CORRELATION	pRIMP2
BASIS		cc-pvtz
METHOD		rimp2
AUX_BASIS	rimp2-cc-pvtz
SOLVENT_METHOD	PCM
PURECART	11111
SYMMETRY	false
MEM_TOTAL	110000
SCF_CONVERGENCE = 6
THRESH=10
GUI = 2
$end

$solvent
dielectric 4.90
$end
--------------------------------------------------------------

             Standard Nuclear Orientation (Angstroms)
    I     Atom           X                Y                Z
 ----------------------------------------------------------------
    1      C      -0.2210340000    -0.3508040000    -0.2197230000
    2      S       0.1139660000     0.3680960000     1.3607770000
    3      C       0.8060660000     1.8523960000     0.6851770000
    4      C       0.2005660000     0.5537960000    -1.2051230000
    5      C       0.7584660000     1.7502960000    -0.7132230000
    6      H       0.1009660000     0.3401960000    -2.2796230000
    7      H       1.1306660000     2.5487960000    -1.3723230000
    8      C      -0.2210340000    -1.8290040000    -0.2197230000
    9      H       0.3184660000    -1.8296040000     0.7158770000
   10      H      -1.0755340000    -2.2683040000     0.2735770000
   11      H       0.4829660000    -2.5400040000    -0.6263230000
   12      H       1.1781660000     2.6505960000     1.3362770000
 ----------------------------------------------------------------

   10    -590.3567979599      6.21e-07  Convergence criterion met
 Total energy in the final basis set =     -590.3567979599
        RIMP2         total energy =      -591.3607091678 a.u.

                    Orbital Energies (a.u.)
 --------------------------------------------------------------

 Alpha MOs
 -- Occupied --
-91.9775 -11.2801 -11.2721 -11.2429 -11.2388 -11.2209  -8.9779  -6.6588
 -6.6582  -6.6576  -1.1600  -1.0393  -0.9737  -0.9157  -0.7594  -0.7211
 -0.6717  -0.5944  -0.5695  -0.5634  -0.5339  -0.4985  -0.4634  -0.4511
 -0.3455  -0.3069

          Ground-State Mulliken Net Atomic Charges

     Atom                 Charge (a.u.)
  ----------------------------------------
      1 C                     0.009071
      2 S                    -0.004863
      3 C                    -0.224269
      4 C                    -0.225448
      5 C                    -0.187343
      6 H                     0.184345
      7 H                     0.186395
      8 C                    -0.358590
      9 H                     0.124773
     10 H                     0.127766
     11 H                     0.162573
     12 H                     0.205589
  ----------------------------------------
  Sum of atomic charges =     0.000000

                    Cartesian Multipole Moments
 -----------------------------------------------------------------
    Charge (ESU x 10^10)
                -0.0000
    Dipole Moment (Debye)
         X       0.9834      Y      -0.2209      Z      -0.5189
       Tot       1.1336
    Quadrupole Moments (Debye-Ang)
        XX     -46.2708     XY       2.5918     YY     -37.8994
        XZ      -0.1828     YZ      -0.2377     ZZ     -42.1514

 Total job time:  10.54s(wall), 560.03s(cpu)
        *  Thank you very much for using Q-Chem.  Have a nice day.  *
