 Q-Chem 5.4, Q-Chem, Inc., Pleasanton, CA (2021)
 Q-Chem 5.4.0 for Intel X86 EM64T Linux

User input:
--------------------------------------------------------------
$molecule
0 1
C	-0.453215	-0.140188	-0.210801
S	0.233585	0.256612	1.369699
C	1.651885	1.075412	0.694099
C	0.410985	0.358912	-1.196201
C	1.554285	1.019112	-0.704301
H	0.206885	0.241112	-2.270701
H	2.317185	1.459712	-1.363401
C	-0.453215	-1.618388	-0.210801
H	0.241385	-1.618988	-1.037801
H	0.302585	-2.057688	0.423399
H	-1.076115	-2.329388	-0.733301
H	2.414485	1.515912	1.345199
$end

$rem
JOBTYPE		SP
EXCHANGE	HF
CORRELATION	pRIMP2
BASIS		cc-pvtz
METHOD		rimp2
AUX_BASIS	rimp2-cc-pvtz
SOLVENT_METHOD	PCM
PURECART	11111
SYMMETRY	false
MEM_TOTAL	110000
SCF_CONVERGENCE = 6
THRESH=10
GUI = 2
$end

$solvent
dielectric 4.90
$end
--------------------------------------------------------------

             Standard Nuclear Orientation (Angstroms)
    I     Atom           X                Y                Z
 ----------------------------------------------------------------
    1      C      -0.4532150000    -0.1401880000    -0.2108010000
    2      S       0.2335850000     0.2566120000     1.3696990000
    3      C       1.6518850000     1.0754120000     0.6940990000
    4      C       0.4109850000     0.3589120000    -1.1962010000
    5      C       1.5542850000     1.0191120000    -0.7043010000
    6      H       0.2068850000     0.2411120000    -2.2707010000
    7      H       2.3171850000     1.4597120000    -1.3634010000
    8      C      -0.4532150000    -1.6183880000    -0.2108010000
    9      H       0.2413850000    -1.6189880000    -1.0378010000
   10      H       0.3025850000    -2.0576880000     0.4233990000
   11      H      -1.0761150000    -2.3293880000    -0.7333010000
   12      H       2.4144850000     1.5159120000     1.3451990000
 ----------------------------------------------------------------

   11    -590.2923494563      7.80e-07  Convergence criterion met
 Total energy in the final basis set =     -590.2923494563
        RIMP2         total energy =      -591.3091571928 a.u.

                    Orbital Energies (a.u.)
 --------------------------------------------------------------

 Alpha MOs
 -- Occupied --
-91.9778 -11.2908 -11.2557 -11.2545 -11.2446 -11.2116  -8.9782  -6.6589
 -6.6581  -6.6579  -1.1726  -1.0387  -0.9809  -0.9031  -0.7641  -0.7312
 -0.6726  -0.5974  -0.5741  -0.5551  -0.5438  -0.4757  -0.4642  -0.4464
 -0.3377  -0.3022

          Ground-State Mulliken Net Atomic Charges

     Atom                 Charge (a.u.)
  ----------------------------------------
      1 C                    -0.118618
      2 S                     0.018934
      3 C                    -0.162736
      4 C                    -0.079853
      5 C                    -0.252739
      6 H                     0.186752
      7 H                     0.187005
      8 C                    -0.358771
      9 H                     0.120010
     10 H                     0.124954
     11 H                     0.126462
     12 H                     0.208601
  ----------------------------------------
  Sum of atomic charges =     0.000000

                    Cartesian Multipole Moments
 -----------------------------------------------------------------
    Charge (ESU x 10^10)
                 0.0000
    Dipole Moment (Debye)
         X       2.6711      Y      -0.1244      Z      -1.5320
       Tot       3.0817
    Quadrupole Moments (Debye-Ang)
        XX     -41.7916     XY       3.7563     YY     -44.1644
        XZ       1.2022     YZ       1.3606     ZZ     -40.6839

 Total job time:  11.09s(wall), 610.96s(cpu)
        *  Thank you very much for using Q-Chem.  Have a nice day.  *
