 Q-Chem 5.4, Q-Chem, Inc., Pleasanton, CA (2021)
 Q-Chem 5.4.0 for Intel X86 EM64T Linux

User input:
--------------------------------------------------------------
$molecule
0 1
C	-0.095252	-0.391505	-0.216317
S	0.042248	0.389695	1.364183
C	0.326648	2.002495	0.688583
C	0.077848	0.591395	-1.201717
C	0.307048	1.891595	-0.709817
H	0.036948	0.359295	-2.276217
H	0.459948	2.759095	-1.368917
C	-0.095252	-1.869705	-0.216317
H	0.968248	-1.870305	-0.028217
H	-0.266652	-2.309005	0.755283
H	0.045748	-2.580705	-1.017017
H	0.479448	2.869795	1.339683
$end

$rem
JOBTYPE		SP
EXCHANGE	HF
CORRELATION	pRIMP2
BASIS		cc-pvtz
METHOD		rimp2
AUX_BASIS	rimp2-cc-pvtz
SOLVENT_METHOD	PCM
PURECART	11111
SYMMETRY	false
MEM_TOTAL	110000
SCF_CONVERGENCE = 6
THRESH=10
GUI = 2
$end

$solvent
dielectric 4.90
$end
--------------------------------------------------------------

             Standard Nuclear Orientation (Angstroms)
    I     Atom           X                Y                Z
 ----------------------------------------------------------------
    1      C      -0.0952520000    -0.3915050000    -0.2163170000
    2      S       0.0422480000     0.3896950000     1.3641830000
    3      C       0.3266480000     2.0024950000     0.6885830000
    4      C       0.0778480000     0.5913950000    -1.2017170000
    5      C       0.3070480000     1.8915950000    -0.7098170000
    6      H       0.0369480000     0.3592950000    -2.2762170000
    7      H       0.4599480000     2.7590950000    -1.3689170000
    8      C      -0.0952520000    -1.8697050000    -0.2163170000
    9      H       0.9682480000    -1.8703050000    -0.0282170000
   10      H      -0.2666520000    -2.3090050000     0.7552830000
   11      H       0.0457480000    -2.5807050000    -1.0170170000
   12      H       0.4794480000     2.8697950000     1.3396830000
 ----------------------------------------------------------------

   10    -590.3737798031      6.56e-07  Convergence criterion met
 Total energy in the final basis set =     -590.3737798031
        RIMP2         total energy =      -591.3733396770 a.u.

                    Orbital Energies (a.u.)
 --------------------------------------------------------------

 Alpha MOs
 -- Occupied --
-91.9790 -11.2920 -11.2628 -11.2428 -11.2300 -11.2291  -8.9789  -6.6598
 -6.6594  -6.6587  -1.1577  -1.0413  -0.9712  -0.9191  -0.7551  -0.7217
 -0.6715  -0.5973  -0.5661  -0.5585  -0.5391  -0.4978  -0.4780  -0.4567
 -0.3470  -0.2978

          Ground-State Mulliken Net Atomic Charges

     Atom                 Charge (a.u.)
  ----------------------------------------
      1 C                     0.026304
      2 S                    -0.002771
      3 C                    -0.251049
      4 C                    -0.248839
      5 C                    -0.181802
      6 H                     0.181121
      7 H                     0.185612
      8 C                    -0.361240
      9 H                     0.144156
     10 H                     0.135996
     11 H                     0.167979
     12 H                     0.204532
  ----------------------------------------
  Sum of atomic charges =     0.000000

                    Cartesian Multipole Moments
 -----------------------------------------------------------------
    Charge (ESU x 10^10)
                 0.0000
    Dipole Moment (Debye)
         X       0.9050      Y      -0.8594      Z      -0.9273
       Tot       1.5549
    Quadrupole Moments (Debye-Ang)
        XX     -48.1486     XY       0.0775     YY     -36.1061
        XZ      -0.2225     YZ       0.8431     ZZ     -41.8361

 Total job time:  12.39s(wall), 601.71s(cpu)
        *  Thank you very much for using Q-Chem.  Have a nice day.  *
