 Q-Chem 5.4, Q-Chem, Inc., Pleasanton, CA (2021)
 Q-Chem 5.4.0 for Intel X86 EM64T Linux

User input:
--------------------------------------------------------------
$molecule
0 1
C	-0.061006	-0.398330	-0.215368
S	0.007894	0.391870	1.365132
C	0.150594	2.023370	0.689532
C	0.025794	0.595870	-1.200768
C	0.140794	1.911070	-0.708868
H	0.005294	0.361170	-2.275268
H	0.217494	2.788670	-1.367968
C	0.067794	-1.870930	-0.215368
H	1.143794	-1.777430	-0.214868
H	0.106094	-2.308530	0.771232
H	0.129694	-2.579130	-1.028368
H	0.227294	2.900670	1.340632
$end

$rem
JOBTYPE		SP
EXCHANGE	HF
CORRELATION	pRIMP2
BASIS		cc-pvtz
METHOD		rimp2
AUX_BASIS	rimp2-cc-pvtz
SOLVENT_METHOD	PCM
PURECART	11111
SYMMETRY	false
MEM_TOTAL	110000
SCF_CONVERGENCE = 6
THRESH=10
GUI = 2
$end

$solvent
dielectric 4.90
$end
--------------------------------------------------------------

             Standard Nuclear Orientation (Angstroms)
    I     Atom           X                Y                Z
 ----------------------------------------------------------------
    1      C      -0.0610060000    -0.3983300000    -0.2153680000
    2      S       0.0078940000     0.3918700000     1.3651320000
    3      C       0.1505940000     2.0233700000     0.6895320000
    4      C       0.0257940000     0.5958700000    -1.2007680000
    5      C       0.1407940000     1.9110700000    -0.7088680000
    6      H       0.0052940000     0.3611700000    -2.2752680000
    7      H       0.2174940000     2.7886700000    -1.3679680000
    8      C       0.0677940000    -1.8709300000    -0.2153680000
    9      H       1.1437940000    -1.7774300000    -0.2148680000
   10      H       0.1060940000    -2.3085300000     0.7712320000
   11      H       0.1296940000    -2.5791300000    -1.0283680000
   12      H       0.2272940000     2.9006700000     1.3406320000
 ----------------------------------------------------------------

   10    -590.3738012503      6.56e-07  Convergence criterion met
 Total energy in the final basis set =     -590.3738012503
        RIMP2         total energy =      -591.3735057103 a.u.

                    Orbital Energies (a.u.)
 --------------------------------------------------------------

 Alpha MOs
 -- Occupied --
-91.9794 -11.2924 -11.2620 -11.2429 -11.2296 -11.2293  -8.9792  -6.6601
 -6.6597  -6.6590  -1.1576  -1.0412  -0.9712  -0.9191  -0.7548  -0.7220
 -0.6714  -0.5974  -0.5659  -0.5567  -0.5416  -0.4967  -0.4783  -0.4568
 -0.3469  -0.2974

          Ground-State Mulliken Net Atomic Charges

     Atom                 Charge (a.u.)
  ----------------------------------------
      1 C                     0.026227
      2 S                    -0.000462
      3 C                    -0.252263
      4 C                    -0.246359
      5 C                    -0.183817
      6 H                     0.179925
      7 H                     0.185588
      8 C                    -0.362911
      9 H                     0.145929
     10 H                     0.136160
     11 H                     0.167679
     12 H                     0.204305
  ----------------------------------------
  Sum of atomic charges =     0.000000

                    Cartesian Multipole Moments
 -----------------------------------------------------------------
    Charge (ESU x 10^10)
                 0.0000
    Dipole Moment (Debye)
         X       0.9931      Y      -0.8110      Z      -1.0459
       Tot       1.6546
    Quadrupole Moments (Debye-Ang)
        XX     -48.1037     XY      -0.9754     YY     -36.2162
        XZ      -0.1979     YZ       1.0768     ZZ     -41.7540

 Total job time:  14.05s(wall), 579.93s(cpu)
        *  Thank you very much for using Q-Chem.  Have a nice day.  *
