 Q-Chem 5.4, Q-Chem, Inc., Pleasanton, CA (2021)
 Q-Chem 5.4.0 for Intel X86 EM64T Linux

User input:
--------------------------------------------------------------
$molecule
0 1
C	-0.003593	-0.399361	-0.218722
S	-0.003793	0.393839	1.361778
C	-0.003793	2.031539	0.686178
C	-0.003793	0.598639	-1.204122
C	-0.003893	1.918839	-0.712222
H	-0.003693	0.362939	-2.278622
H	-0.003893	2.799839	-1.371322
C	-0.003593	-1.877561	-0.218722
H	0.823407	-1.878161	0.475878
H	-0.637793	-2.316861	0.537078
H	0.518907	-2.588561	-0.841622
H	-0.003893	2.912239	1.337278
$end

$rem
JOBTYPE		SP
EXCHANGE	HF
CORRELATION	pRIMP2
BASIS		cc-pvtz
METHOD		rimp2
AUX_BASIS	rimp2-cc-pvtz
SOLVENT_METHOD	PCM
PURECART	11111
SYMMETRY	false
MEM_TOTAL	110000
SCF_CONVERGENCE = 6
THRESH=10
GUI = 2
$end

$solvent
dielectric 4.90
$end
--------------------------------------------------------------

             Standard Nuclear Orientation (Angstroms)
    I     Atom           X                Y                Z
 ----------------------------------------------------------------
    1      C      -0.0035930000    -0.3993610000    -0.2187220000
    2      S      -0.0037930000     0.3938390000     1.3617780000
    3      C      -0.0037930000     2.0315390000     0.6861780000
    4      C      -0.0037930000     0.5986390000    -1.2041220000
    5      C      -0.0038930000     1.9188390000    -0.7122220000
    6      H      -0.0036930000     0.3629390000    -2.2786220000
    7      H      -0.0038930000     2.7998390000    -1.3713220000
    8      C      -0.0035930000    -1.8775610000    -0.2187220000
    9      H       0.8234070000    -1.8781610000     0.4758780000
   10      H      -0.6377930000    -2.3168610000     0.5370780000
   11      H       0.5189070000    -2.5885610000    -0.8416220000
   12      H      -0.0038930000     2.9122390000     1.3372780000
 ----------------------------------------------------------------

   10    -590.3732098630      6.02e-07  Convergence criterion met
 Total energy in the final basis set =     -590.3732098630
        RIMP2         total energy =      -591.3733088625 a.u.

                    Orbital Energies (a.u.)
 --------------------------------------------------------------

 Alpha MOs
 -- Occupied --
-91.9791 -11.2884 -11.2661 -11.2427 -11.2328 -11.2262  -8.9791  -6.6600
 -6.6596  -6.6589  -1.1576  -1.0407  -0.9719  -0.9193  -0.7564  -0.7208
 -0.6716  -0.5973  -0.5661  -0.5627  -0.5355  -0.4993  -0.4710  -0.4555
 -0.3469  -0.3030

          Ground-State Mulliken Net Atomic Charges

     Atom                 Charge (a.u.)
  ----------------------------------------
      1 C                     0.021990
      2 S                    -0.005223
      3 C                    -0.238810
      4 C                    -0.232429
      5 C                    -0.188493
      6 H                     0.184830
      7 H                     0.185375
      8 C                    -0.355692
      9 H                     0.125601
     10 H                     0.134750
     11 H                     0.162830
     12 H                     0.205270
  ----------------------------------------
  Sum of atomic charges =     0.000000

                    Cartesian Multipole Moments
 -----------------------------------------------------------------
    Charge (ESU x 10^10)
                -0.0000
    Dipole Moment (Debye)
         X       0.5286      Y      -0.5620      Z      -0.6170
       Tot       0.9879
    Quadrupole Moments (Debye-Ang)
        XX     -47.9497     XY      -1.2369     YY     -35.8786
        XZ      -0.4989     YZ       0.1657     ZZ     -42.1243

 Total job time:  19.53s(wall), 561.77s(cpu)
        *  Thank you very much for using Q-Chem.  Have a nice day.  *
