 Q-Chem 5.4, Q-Chem, Inc., Pleasanton, CA (2021)
 Q-Chem 5.4.0 for Intel X86 EM64T Linux

User input:
--------------------------------------------------------------
$molecule
0 1
C	-0.039588	-0.397395	-0.215530
S	0.029312	0.392805	1.364970
C	0.172012	2.024305	0.689370
C	0.047212	0.596805	-1.200930
C	0.162212	1.912005	-0.709030
H	0.026712	0.362105	-2.275430
H	0.238912	2.789605	-1.368130
C	-0.039588	-1.875595	-0.215530
H	-1.054588	-1.876195	0.153370
H	-0.376988	-2.314895	-1.142630
H	0.238612	-2.586595	0.548370
H	0.248712	2.901605	1.340470
$end

$rem
JOBTYPE		SP
EXCHANGE	HF
CORRELATION	pRIMP2
BASIS		cc-pvtz
METHOD		rimp2
AUX_BASIS	rimp2-cc-pvtz
SOLVENT_METHOD	PCM
PURECART	11111
SYMMETRY	false
MEM_TOTAL	110000
SCF_CONVERGENCE = 6
THRESH=10
GUI = 2
$end

$solvent
dielectric 4.90
$end
--------------------------------------------------------------

             Standard Nuclear Orientation (Angstroms)
    I     Atom           X                Y                Z
 ----------------------------------------------------------------
    1      C      -0.0395880000    -0.3973950000    -0.2155300000
    2      S       0.0293120000     0.3928050000     1.3649700000
    3      C       0.1720120000     2.0243050000     0.6893700000
    4      C       0.0472120000     0.5968050000    -1.2009300000
    5      C       0.1622120000     1.9120050000    -0.7090300000
    6      H       0.0267120000     0.3621050000    -2.2754300000
    7      H       0.2389120000     2.7896050000    -1.3681300000
    8      C      -0.0395880000    -1.8755950000    -0.2155300000
    9      H      -1.0545880000    -1.8761950000     0.1533700000
   10      H      -0.3769880000    -2.3148950000    -1.1426300000
   11      H       0.2386120000    -2.5865950000     0.5483700000
   12      H       0.2487120000     2.9016050000     1.3404700000
 ----------------------------------------------------------------

   10    -590.3726838019      6.15e-07  Convergence criterion met
 Total energy in the final basis set =     -590.3726838019
        RIMP2         total energy =      -591.3729669831 a.u.

                    Orbital Energies (a.u.)
 --------------------------------------------------------------

 Alpha MOs
 -- Occupied --
-91.9773 -11.2907 -11.2639 -11.2428 -11.2332 -11.2275  -8.9773  -6.6582
 -6.6577  -6.6571  -1.1570  -1.0405  -0.9713  -0.9200  -0.7554  -0.7212
 -0.6707  -0.5987  -0.5663  -0.5578  -0.5447  -0.4918  -0.4759  -0.4545
 -0.3465  -0.2997

          Ground-State Mulliken Net Atomic Charges

     Atom                 Charge (a.u.)
  ----------------------------------------
      1 C                     0.014358
      2 S                    -0.011755
      3 C                    -0.240822
      4 C                    -0.226314
      5 C                    -0.191979
      6 H                     0.184342
      7 H                     0.184949
      8 C                    -0.357960
      9 H                     0.137248
     10 H                     0.133616
     11 H                     0.169806
     12 H                     0.204511
  ----------------------------------------
  Sum of atomic charges =     0.000000

                    Cartesian Multipole Moments
 -----------------------------------------------------------------
    Charge (ESU x 10^10)
                -0.0000
    Dipole Moment (Debye)
         X      -0.5905      Y      -0.7508      Z      -0.8457
       Tot       1.2758
    Quadrupole Moments (Debye-Ang)
        XX     -48.1080     XY       2.0890     YY     -35.8895
        XZ       0.4414     YZ       0.1211     ZZ     -41.9274

 Total job time:  10.22s(wall), 544.54s(cpu)
        *  Thank you very much for using Q-Chem.  Have a nice day.  *
