 Q-Chem 5.4, Q-Chem, Inc., Pleasanton, CA (2021)
 Q-Chem 5.4.0 for Intel X86 EM64T Linux

User input:
--------------------------------------------------------------
$molecule
0 1
C	-0.091004	-0.391505	-0.219989
S	0.046496	0.389695	1.360511
C	0.330896	2.002495	0.684911
C	0.082096	0.591395	-1.205389
C	0.311296	1.891595	-0.713489
H	0.041196	0.359295	-2.279889
H	0.464196	2.759095	-1.372589
C	-0.091004	-1.869705	-0.219989
H	0.277896	-1.870305	0.795011
H	-1.018104	-2.309005	0.117411
H	0.672896	-2.580705	-0.498189
H	0.483696	2.869795	1.336011
$end

$rem
JOBTYPE		SP
EXCHANGE	HF
CORRELATION	pRIMP2
BASIS		cc-pvtz
METHOD		rimp2
AUX_BASIS	rimp2-cc-pvtz
SOLVENT_METHOD	PCM
PURECART	11111
SYMMETRY	false
MEM_TOTAL	110000
SCF_CONVERGENCE = 6
THRESH=10
GUI = 2
$end

$solvent
dielectric 4.90
$end
--------------------------------------------------------------

             Standard Nuclear Orientation (Angstroms)
    I     Atom           X                Y                Z
 ----------------------------------------------------------------
    1      C      -0.0910040000    -0.3915050000    -0.2199890000
    2      S       0.0464960000     0.3896950000     1.3605110000
    3      C       0.3308960000     2.0024950000     0.6849110000
    4      C       0.0820960000     0.5913950000    -1.2053890000
    5      C       0.3112960000     1.8915950000    -0.7134890000
    6      H       0.0411960000     0.3592950000    -2.2798890000
    7      H       0.4641960000     2.7590950000    -1.3725890000
    8      C      -0.0910040000    -1.8697050000    -0.2199890000
    9      H       0.2778960000    -1.8703050000     0.7950110000
   10      H      -1.0181040000    -2.3090050000     0.1174110000
   11      H       0.6728960000    -2.5807050000    -0.4981890000
   12      H       0.4836960000     2.8697950000     1.3360110000
 ----------------------------------------------------------------

   10    -590.3682961941      5.91e-07  Convergence criterion met
 Total energy in the final basis set =     -590.3682961941
        RIMP2         total energy =      -591.3702911363 a.u.

                    Orbital Energies (a.u.)
 --------------------------------------------------------------

 Alpha MOs
 -- Occupied --
-91.9799 -11.2831 -11.2695 -11.2429 -11.2362 -11.2232  -8.9799  -6.6608
 -6.6602  -6.6597  -1.1583  -1.0399  -0.9731  -0.9180  -0.7586  -0.7205
 -0.6719  -0.5964  -0.5689  -0.5631  -0.5344  -0.5006  -0.4632  -0.4511
 -0.3463  -0.3100

          Ground-State Mulliken Net Atomic Charges

     Atom                 Charge (a.u.)
  ----------------------------------------
      1 C                     0.022238
      2 S                    -0.004947
      3 C                    -0.233489
      4 C                    -0.220518
      5 C                    -0.188799
      6 H                     0.185209
      7 H                     0.185897
      8 C                    -0.350787
      9 H                     0.115682
     10 H                     0.128116
     11 H                     0.155216
     12 H                     0.206184
  ----------------------------------------
  Sum of atomic charges =     0.000000

                    Cartesian Multipole Moments
 -----------------------------------------------------------------
    Charge (ESU x 10^10)
                -0.0000
    Dipole Moment (Debye)
         X       0.4529      Y      -0.2407      Z      -0.4556
       Tot       0.6860
    Quadrupole Moments (Debye-Ang)
        XX     -47.3235     XY       0.8730     YY     -36.3640
        XZ      -0.2116     YZ      -0.2850     ZZ     -42.3410

 Total job time:  42.42s(wall), 560.47s(cpu)
        *  Thank you very much for using Q-Chem.  Have a nice day.  *
