 Q-Chem 5.4, Q-Chem, Inc., Pleasanton, CA (2021)
 Q-Chem 5.4.0 for Intel X86 EM64T Linux

User input:
--------------------------------------------------------------
$molecule
0 1
C	-0.392220	-0.214208	-0.211737
S	0.215280	0.295792	1.368763
C	1.469780	1.348492	0.693163
C	0.372180	0.427392	-1.197137
C	1.383480	1.276092	-0.705237
H	0.191680	0.275892	-2.271637
H	2.058280	1.842392	-1.364337
C	-0.392220	-1.692408	-0.211737
H	-1.406920	-1.693008	-0.581637
H	-0.054720	-2.131708	-1.138837
H	-0.670120	-2.403408	0.552263
H	2.144380	1.914692	1.344263
$end

$rem
JOBTYPE		SP
EXCHANGE	HF
CORRELATION	pRIMP2
BASIS		cc-pvtz
METHOD		rimp2
AUX_BASIS	rimp2-cc-pvtz
SOLVENT_METHOD	PCM
PURECART	11111
SYMMETRY	false
MEM_TOTAL	110000
SCF_CONVERGENCE = 6
THRESH=10
GUI = 2
$end

$solvent
dielectric 4.90
$end
--------------------------------------------------------------

             Standard Nuclear Orientation (Angstroms)
    I     Atom           X                Y                Z
 ----------------------------------------------------------------
    1      C      -0.3922200000    -0.2142080000    -0.2117370000
    2      S       0.2152800000     0.2957920000     1.3687630000
    3      C       1.4697800000     1.3484920000     0.6931630000
    4      C       0.3721800000     0.4273920000    -1.1971370000
    5      C       1.3834800000     1.2760920000    -0.7052370000
    6      H       0.1916800000     0.2758920000    -2.2716370000
    7      H       2.0582800000     1.8423920000    -1.3643370000
    8      C      -0.3922200000    -1.6924080000    -0.2117370000
    9      H      -1.4069200000    -1.6930080000    -0.5816370000
   10      H      -0.0547200000    -2.1317080000    -1.1388370000
   11      H      -0.6701200000    -2.4034080000     0.5522630000
   12      H       2.1443800000     1.9146920000     1.3442630000
 ----------------------------------------------------------------

   11    -590.3149335961      5.50e-07  Convergence criterion met
 Total energy in the final basis set =     -590.3149335961
        RIMP2         total energy =      -591.3284063042 a.u.

                    Orbital Energies (a.u.)
 --------------------------------------------------------------

 Alpha MOs
 -- Occupied --
-91.9736 -11.2808 -11.2634 -11.2491 -11.2442 -11.2140  -8.9742  -6.6550
 -6.6542  -6.6539  -1.1627  -1.0355  -0.9753  -0.9125  -0.7593  -0.7255
 -0.6694  -0.5924  -0.5640  -0.5579  -0.5454  -0.4998  -0.4602  -0.4334
 -0.3439  -0.2947

          Ground-State Mulliken Net Atomic Charges

     Atom                 Charge (a.u.)
  ----------------------------------------
      1 C                    -0.056545
      2 S                     0.007349
      3 C                    -0.190182
      4 C                    -0.157121
      5 C                    -0.212528
      6 H                     0.183666
      7 H                     0.186793
      8 C                    -0.383596
      9 H                     0.124244
     10 H                     0.133436
     11 H                     0.160185
     12 H                     0.204298
  ----------------------------------------
  Sum of atomic charges =     0.000000

                    Cartesian Multipole Moments
 -----------------------------------------------------------------
    Charge (ESU x 10^10)
                -0.0000
    Dipole Moment (Debye)
         X       0.9859      Y      -0.2201      Z      -1.3761
       Tot       1.7071
    Quadrupole Moments (Debye-Ang)
        XX     -42.7351     XY       5.8853     YY     -42.0520
        XZ       0.4215     YZ       0.6887     ZZ     -41.0856

 Total job time:  11.23s(wall), 596.37s(cpu)
        *  Thank you very much for using Q-Chem.  Have a nice day.  *
