 Q-Chem 5.4, Q-Chem, Inc., Pleasanton, CA (2021)
 Q-Chem 5.4.0 for Intel X86 EM64T Linux

User input:
--------------------------------------------------------------
$molecule
0 1
C	-0.399860	-0.214208	-0.209570
S	0.207640	0.295792	1.370930
C	1.462140	1.348492	0.695330
C	0.364540	0.427392	-1.194970
C	1.375840	1.276092	-0.703070
H	0.184040	0.275892	-2.269470
H	2.050640	1.842392	-1.362170
C	-0.399860	-1.692408	-0.209570
H	-0.029960	-1.693008	-1.224270
H	0.527240	-2.131708	0.127930
H	-1.163860	-2.403408	-0.487470
H	2.136740	1.914692	1.346430
$end

$rem
JOBTYPE		SP
EXCHANGE	HF
CORRELATION	pRIMP2
BASIS		cc-pvtz
METHOD		rimp2
AUX_BASIS	rimp2-cc-pvtz
SOLVENT_METHOD	PCM
PURECART	11111
SYMMETRY	false
MEM_TOTAL	110000
SCF_CONVERGENCE = 6
THRESH=10
GUI = 2
$end

$solvent
dielectric 4.90
$end
--------------------------------------------------------------

             Standard Nuclear Orientation (Angstroms)
    I     Atom           X                Y                Z
 ----------------------------------------------------------------
    1      C      -0.3998600000    -0.2142080000    -0.2095700000
    2      S       0.2076400000     0.2957920000     1.3709300000
    3      C       1.4621400000     1.3484920000     0.6953300000
    4      C       0.3645400000     0.4273920000    -1.1949700000
    5      C       1.3758400000     1.2760920000    -0.7030700000
    6      H       0.1840400000     0.2758920000    -2.2694700000
    7      H       2.0506400000     1.8423920000    -1.3621700000
    8      C      -0.3998600000    -1.6924080000    -0.2095700000
    9      H      -0.0299600000    -1.6930080000    -1.2242700000
   10      H       0.5272400000    -2.1317080000     0.1279300000
   11      H      -1.1638600000    -2.4034080000    -0.4874700000
   12      H       2.1367400000     1.9146920000     1.3464300000
 ----------------------------------------------------------------

   11    -590.3235745760      4.88e-07  Convergence criterion met
 Total energy in the final basis set =     -590.3235745760
        RIMP2         total energy =      -591.3355899975 a.u.

                    Orbital Energies (a.u.)
 --------------------------------------------------------------

 Alpha MOs
 -- Occupied --
-91.9752 -11.2835 -11.2648 -11.2506 -11.2440 -11.2156  -8.9757  -6.6564
 -6.6557  -6.6554  -1.1661  -1.0373  -0.9774  -0.9085  -0.7601  -0.7283
 -0.6716  -0.5961  -0.5748  -0.5539  -0.5432  -0.4791  -0.4699  -0.4368
 -0.3402  -0.3106

          Ground-State Mulliken Net Atomic Charges

     Atom                 Charge (a.u.)
  ----------------------------------------
      1 C                    -0.060579
      2 S                     0.006686
      3 C                    -0.184839
      4 C                    -0.140728
      5 C                    -0.224629
      6 H                     0.181619
      7 H                     0.187587
      8 C                    -0.354181
      9 H                     0.118229
     10 H                     0.131249
     11 H                     0.133696
     12 H                     0.205891
  ----------------------------------------
  Sum of atomic charges =     0.000000

                    Cartesian Multipole Moments
 -----------------------------------------------------------------
    Charge (ESU x 10^10)
                 0.0000
    Dipole Moment (Debye)
         X       1.9278      Y      -0.0696      Z      -1.7082
       Tot       2.5767
    Quadrupole Moments (Debye-Ang)
        XX     -42.7493     XY       4.4360     YY     -42.2011
        XZ       1.0054     YZ       1.6737     ZZ     -41.3719

 Total job time:  20.66s(wall), 622.87s(cpu)
        *  Thank you very much for using Q-Chem.  Have a nice day.  *
