 Q-Chem 5.4, Q-Chem, Inc., Pleasanton, CA (2021)
 Q-Chem 5.4.0 for Intel X86 EM64T Linux

User input:
--------------------------------------------------------------
$molecule
0 1
C	-0.329663	-0.278098	-0.218828
S	0.180037	0.329602	1.361672
C	1.232737	1.584202	0.686072
C	0.311737	0.486502	-1.204228
C	1.160237	1.497902	-0.712328
H	0.160237	0.306002	-2.278728
H	1.726437	2.172802	-1.371428
C	-0.329663	-1.756298	-0.218828
H	-0.870163	-1.756898	0.716172
H	-1.184063	-2.195598	-0.712128
H	0.374437	-2.467298	0.187572
H	1.798737	2.258902	1.337172
$end

$rem
JOBTYPE		SP
EXCHANGE	HF
CORRELATION	pRIMP2
BASIS		cc-pvtz
METHOD		rimp2
AUX_BASIS	rimp2-cc-pvtz
SOLVENT_METHOD	PCM
PURECART	11111
SYMMETRY	false
MEM_TOTAL	110000
SCF_CONVERGENCE = 6
THRESH=10
GUI = 2
$end

$solvent
dielectric 4.90
$end
--------------------------------------------------------------

             Standard Nuclear Orientation (Angstroms)
    I     Atom           X                Y                Z
 ----------------------------------------------------------------
    1      C      -0.3296630000    -0.2780980000    -0.2188280000
    2      S       0.1800370000     0.3296020000     1.3616720000
    3      C       1.2327370000     1.5842020000     0.6860720000
    4      C       0.3117370000     0.4865020000    -1.2042280000
    5      C       1.1602370000     1.4979020000    -0.7123280000
    6      H       0.1602370000     0.3060020000    -2.2787280000
    7      H       1.7264370000     2.1728020000    -1.3714280000
    8      C      -0.3296630000    -1.7562980000    -0.2188280000
    9      H      -0.8701630000    -1.7568980000     0.7161720000
   10      H      -1.1840630000    -2.1955980000    -0.7121280000
   11      H       0.3744370000    -2.4672980000     0.1875720000
   12      H       1.7987370000     2.2589020000     1.3371720000
 ----------------------------------------------------------------

   11    -590.3386968968      3.82e-07  Convergence criterion met
 Total energy in the final basis set =     -590.3386968968
        RIMP2         total energy =      -591.3472579852 a.u.

                    Orbital Energies (a.u.)
 --------------------------------------------------------------

 Alpha MOs
 -- Occupied --
-91.9788 -11.2810 -11.2657 -11.2458 -11.2437 -11.2175  -8.9790  -6.6598
 -6.6591  -6.6587  -1.1618  -1.0367  -0.9760  -0.9139  -0.7619  -0.7228
 -0.6710  -0.5935  -0.5683  -0.5615  -0.5453  -0.4777  -0.4605  -0.4489
 -0.3455  -0.3103

          Ground-State Mulliken Net Atomic Charges

     Atom                 Charge (a.u.)
  ----------------------------------------
      1 C                    -0.059157
      2 S                     0.003759
      3 C                    -0.197335
      4 C                    -0.160514
      5 C                    -0.204369
      6 H                     0.184699
      7 H                     0.186451
      8 C                    -0.348782
      9 H                     0.110285
     10 H                     0.120641
     11 H                     0.157457
     12 H                     0.206866
  ----------------------------------------
  Sum of atomic charges =     0.000000

                    Cartesian Multipole Moments
 -----------------------------------------------------------------
    Charge (ESU x 10^10)
                 0.0000
    Dipole Moment (Debye)
         X       1.0339      Y       0.1497      Z      -0.6094
       Tot       1.2094
    Quadrupole Moments (Debye-Ang)
        XX     -43.9104     XY       5.0790     YY     -40.2297
        XZ       0.7492     YZ      -0.2888     ZZ     -41.8471

 Total job time:  12.34s(wall), 609.98s(cpu)
        *  Thank you very much for using Q-Chem.  Have a nice day.  *
