 Q-Chem 5.4, Q-Chem, Inc., Pleasanton, CA (2021)
 Q-Chem 5.4.0 for Intel X86 EM64T Linux

User input:
--------------------------------------------------------------
$molecule
0 1
C	-0.402428	-0.214208	-0.216317
S	0.205072	0.295792	1.364183
C	1.459572	1.348492	0.688583
C	0.361972	0.427392	-1.201717
C	1.373272	1.276092	-0.709817
H	0.181472	0.275892	-2.276217
H	2.048072	1.842392	-1.368917
C	-0.402428	-1.692408	-0.216317
H	0.661072	-1.693008	-0.028217
H	-0.573828	-2.131708	0.755283
H	-0.261428	-2.403408	-1.017017
H	2.134172	1.914692	1.339683
$end

$rem
JOBTYPE		SP
EXCHANGE	HF
CORRELATION	pRIMP2
BASIS		cc-pvtz
METHOD		rimp2
AUX_BASIS	rimp2-cc-pvtz
SOLVENT_METHOD	PCM
PURECART	11111
SYMMETRY	false
MEM_TOTAL	110000
SCF_CONVERGENCE = 6
THRESH=10
GUI = 2
$end

$solvent
dielectric 4.90
$end
--------------------------------------------------------------

             Standard Nuclear Orientation (Angstroms)
    I     Atom           X                Y                Z
 ----------------------------------------------------------------
    1      C      -0.4024280000    -0.2142080000    -0.2163170000
    2      S       0.2050720000     0.2957920000     1.3641830000
    3      C       1.4595720000     1.3484920000     0.6885830000
    4      C       0.3619720000     0.4273920000    -1.2017170000
    5      C       1.3732720000     1.2760920000    -0.7098170000
    6      H       0.1814720000     0.2758920000    -2.2762170000
    7      H       2.0480720000     1.8423920000    -1.3689170000
    8      C      -0.4024280000    -1.6924080000    -0.2163170000
    9      H       0.6610720000    -1.6930080000    -0.0282170000
   10      H      -0.5738280000    -2.1317080000     0.7552830000
   11      H      -0.2614280000    -2.4034080000    -1.0170170000
   12      H       2.1341720000     1.9146920000     1.3396830000
 ----------------------------------------------------------------

   10    -590.3263476577      8.54e-07  Convergence criterion met
 Total energy in the final basis set =     -590.3263476577
        RIMP2         total energy =      -591.3367113383 a.u.

                    Orbital Energies (a.u.)
 --------------------------------------------------------------

 Alpha MOs
 -- Occupied --
-91.9762 -11.2807 -11.2732 -11.2456 -11.2428 -11.2226  -8.9770  -6.6578
 -6.6571  -6.6567  -1.1681  -1.0399  -0.9767  -0.9090  -0.7620  -0.7256
 -0.6730  -0.5946  -0.5694  -0.5644  -0.5314  -0.4986  -0.4653  -0.4520
 -0.3473  -0.2967

          Ground-State Mulliken Net Atomic Charges

     Atom                 Charge (a.u.)
  ----------------------------------------
      1 C                    -0.046561
      2 S                     0.002938
      3 C                    -0.202234
      4 C                    -0.169529
      5 C                    -0.209066
      6 H                     0.181640
      7 H                     0.187775
      8 C                    -0.353507
      9 H                     0.130205
     10 H                     0.120747
     11 H                     0.150645
     12 H                     0.206947
  ----------------------------------------
  Sum of atomic charges =     0.000000

                    Cartesian Multipole Moments
 -----------------------------------------------------------------
    Charge (ESU x 10^10)
                 0.0000
    Dipole Moment (Debye)
         X       2.0907      Y      -0.3873      Z      -1.0189
       Tot       2.3578
    Quadrupole Moments (Debye-Ang)
        XX     -43.7075     XY       3.8230     YY     -41.8163
        XZ       0.3001     YZ       0.7748     ZZ     -41.3134

 Total job time:  40.92s(wall), 590.35s(cpu)
        *  Thank you very much for using Q-Chem.  Have a nice day.  *
