 Q-Chem 5.4, Q-Chem, Inc., Pleasanton, CA (2021)
 Q-Chem 5.4.0 for Intel X86 EM64T Linux

User input:
--------------------------------------------------------------
$molecule
0 1
C	-0.446087	-0.140188	-0.209652
S	0.240713	0.256612	1.370848
C	1.659013	1.075412	0.695248
C	0.418113	0.358912	-1.195052
C	1.561413	1.019112	-0.703152
H	0.214013	0.241112	-2.269552
H	2.324313	1.459712	-1.362252
C	-0.446087	-1.618388	-0.209652
H	-1.139887	-1.618988	-1.037352
H	0.309713	-2.057688	-0.843852
H	-1.068787	-2.329388	0.313048
H	2.421613	1.515912	1.346348
$end

$rem
JOBTYPE		SP
EXCHANGE	HF
CORRELATION	pRIMP2
BASIS		cc-pvtz
METHOD		rimp2
AUX_BASIS	rimp2-cc-pvtz
SOLVENT_METHOD	PCM
PURECART	11111
SYMMETRY	false
MEM_TOTAL	110000
SCF_CONVERGENCE = 6
THRESH=10
GUI = 2
$end

$solvent
dielectric 4.90
$end
--------------------------------------------------------------

             Standard Nuclear Orientation (Angstroms)
    I     Atom           X                Y                Z
 ----------------------------------------------------------------
    1      C      -0.4460870000    -0.1401880000    -0.2096520000
    2      S       0.2407130000     0.2566120000     1.3708480000
    3      C       1.6590130000     1.0754120000     0.6952480000
    4      C       0.4181130000     0.3589120000    -1.1950520000
    5      C       1.5614130000     1.0191120000    -0.7031520000
    6      H       0.2140130000     0.2411120000    -2.2695520000
    7      H       2.3243130000     1.4597120000    -1.3622520000
    8      C      -0.4460870000    -1.6183880000    -0.2096520000
    9      H      -1.1398870000    -1.6189880000    -1.0373520000
   10      H       0.3097130000    -2.0576880000    -0.8438520000
   11      H      -1.0687870000    -2.3293880000     0.3130480000
   12      H       2.4216130000     1.5159120000     1.3463480000
 ----------------------------------------------------------------

   11    -590.3012715288      6.43e-07  Convergence criterion met
 Total energy in the final basis set =     -590.3012715288
        RIMP2         total energy =      -591.3166559296 a.u.

                    Orbital Energies (a.u.)
 --------------------------------------------------------------

 Alpha MOs
 -- Occupied --
-91.9731 -11.2920 -11.2590 -11.2510 -11.2462 -11.2135  -8.9740  -6.6547
 -6.6537  -6.6536  -1.1686  -1.0368  -0.9788  -0.9081  -0.7622  -0.7298
 -0.6717  -0.5929  -0.5767  -0.5563  -0.5385  -0.4961  -0.4635  -0.4199
 -0.3427  -0.3041

          Ground-State Mulliken Net Atomic Charges

     Atom                 Charge (a.u.)
  ----------------------------------------
      1 C                    -0.109848
      2 S                     0.014317
      3 C                    -0.152718
      4 C                    -0.098711
      5 C                    -0.240976
      6 H                     0.189069
      7 H                     0.187136
      8 C                    -0.379462
      9 H                     0.108959
     10 H                     0.126779
     11 H                     0.148676
     12 H                     0.206779
  ----------------------------------------
  Sum of atomic charges =     0.000000

                    Cartesian Multipole Moments
 -----------------------------------------------------------------
    Charge (ESU x 10^10)
                 0.0000
    Dipole Moment (Debye)
         X       1.9521      Y      -0.0495      Z      -1.5910
       Tot       2.5189
    Quadrupole Moments (Debye-Ang)
        XX     -40.8962     XY       5.4304     YY     -43.7615
        XZ       0.4864     YZ       1.0100     ZZ     -41.0757

 Total job time:  11.61s(wall), 616.63s(cpu)
        *  Thank you very much for using Q-Chem.  Have a nice day.  *
