 Q-Chem 5.4, Q-Chem, Inc., Pleasanton, CA (2021)
 Q-Chem 5.4.0 for Intel X86 EM64T Linux

User input:
--------------------------------------------------------------
$molecule
0 1
C	-0.046947	-0.397395	-0.209169
S	0.021953	0.392805	1.371331
C	0.164653	2.024305	0.695731
C	0.039853	0.596805	-1.194569
C	0.154853	1.912005	-0.702669
H	0.019353	0.362105	-2.269069
H	0.231553	2.789605	-1.361769
C	-0.046947	-1.875595	-0.209169
H	0.141153	-1.876195	-1.272669
H	0.924653	-2.314895	-0.037769
H	-0.847647	-2.586595	-0.350169
H	0.241353	2.901605	1.346831
$end

$rem
JOBTYPE		SP
EXCHANGE	HF
CORRELATION	pRIMP2
BASIS		cc-pvtz
METHOD		rimp2
AUX_BASIS	rimp2-cc-pvtz
SOLVENT_METHOD	PCM
PURECART	11111
SYMMETRY	false
MEM_TOTAL	110000
SCF_CONVERGENCE = 6
THRESH=10
GUI = 2
$end

$solvent
dielectric 4.90
$end
--------------------------------------------------------------

             Standard Nuclear Orientation (Angstroms)
    I     Atom           X                Y                Z
 ----------------------------------------------------------------
    1      C      -0.0469470000    -0.3973950000    -0.2091690000
    2      S       0.0219530000     0.3928050000     1.3713310000
    3      C       0.1646530000     2.0243050000     0.6957310000
    4      C       0.0398530000     0.5968050000    -1.1945690000
    5      C       0.1548530000     1.9120050000    -0.7026690000
    6      H       0.0193530000     0.3621050000    -2.2690690000
    7      H       0.2315530000     2.7896050000    -1.3617690000
    8      C      -0.0469470000    -1.8755950000    -0.2091690000
    9      H       0.1411530000    -1.8761950000    -1.2726690000
   10      H       0.9246530000    -2.3148950000    -0.0377690000
   11      H      -0.8476470000    -2.5865950000    -0.3501690000
   12      H       0.2413530000     2.9016050000     1.3468310000
 ----------------------------------------------------------------

   10    -590.3737026818      5.74e-07  Convergence criterion met
 Total energy in the final basis set =     -590.3737026818
        RIMP2         total energy =      -591.3757455583 a.u.

                    Orbital Energies (a.u.)
 --------------------------------------------------------------

 Alpha MOs
 -- Occupied --
-91.9750 -11.2853 -11.2688 -11.2429 -11.2409 -11.2237  -8.9751  -6.6560
 -6.6554  -6.6549  -1.1571  -1.0380  -0.9729  -0.9192  -0.7545  -0.7244
 -0.6726  -0.5973  -0.5709  -0.5595  -0.5390  -0.5003  -0.4676  -0.4376
 -0.3449  -0.3125

          Ground-State Mulliken Net Atomic Charges

     Atom                 Charge (a.u.)
  ----------------------------------------
      1 C                     0.035265
      2 S                    -0.009109
      3 C                    -0.227995
      4 C                    -0.221291
      5 C                    -0.201382
      6 H                     0.183460
      7 H                     0.186772
      8 C                    -0.356783
      9 H                     0.118735
     10 H                     0.134450
     11 H                     0.153498
     12 H                     0.204380
  ----------------------------------------
  Sum of atomic charges =     0.000000

                    Cartesian Multipole Moments
 -----------------------------------------------------------------
    Charge (ESU x 10^10)
                -0.0000
    Dipole Moment (Debye)
         X       0.2541      Y      -0.3318      Z      -1.7732
       Tot       1.8218
    Quadrupole Moments (Debye-Ang)
        XX     -47.4283     XY       0.7070     YY     -36.0738
        XZ       0.1968     YZ       2.1444     ZZ     -42.0972

 Total job time:  11.14s(wall), 552.71s(cpu)
        *  Thank you very much for using Q-Chem.  Have a nice day.  *
