 Q-Chem 5.4, Q-Chem, Inc., Pleasanton, CA (2021)
 Q-Chem 5.4.0 for Intel X86 EM64T Linux

User input:
--------------------------------------------------------------
$molecule
0 1
C	-0.005536	-0.399361	-0.214392
S	-0.005736	0.393839	1.366108
C	-0.005736	2.031539	0.690508
C	-0.005736	0.598639	-1.199792
C	-0.005836	1.918839	-0.707892
H	-0.005636	0.362939	-2.274292
H	-0.005836	2.799839	-1.366992
C	-0.005536	-1.877561	-0.214392
H	1.058164	-1.878161	-0.401392
H	0.165764	-2.316861	0.757208
H	-0.146836	-2.588561	-1.014992
H	-0.005836	2.912239	1.341608
$end

$rem
JOBTYPE		SP
EXCHANGE	HF
CORRELATION	pRIMP2
BASIS		cc-pvtz
METHOD		rimp2
AUX_BASIS	rimp2-cc-pvtz
SOLVENT_METHOD	PCM
PURECART	11111
SYMMETRY	false
MEM_TOTAL	110000
SCF_CONVERGENCE = 6
THRESH=10
GUI = 2
$end

$solvent
dielectric 4.90
$end
--------------------------------------------------------------

             Standard Nuclear Orientation (Angstroms)
    I     Atom           X                Y                Z
 ----------------------------------------------------------------
    1      C      -0.0055360000    -0.3993610000    -0.2143920000
    2      S      -0.0057360000     0.3938390000     1.3661080000
    3      C      -0.0057360000     2.0315390000     0.6905080000
    4      C      -0.0057360000     0.5986390000    -1.1997920000
    5      C      -0.0058360000     1.9188390000    -0.7078920000
    6      H      -0.0056360000     0.3629390000    -2.2742920000
    7      H      -0.0058360000     2.7998390000    -1.3669920000
    8      C      -0.0055360000    -1.8775610000    -0.2143920000
    9      H       1.0581640000    -1.8781610000    -0.4013920000
   10      H       0.1657640000    -2.3168610000     0.7572080000
   11      H      -0.1468360000    -2.5885610000    -1.0149920000
   12      H      -0.0058360000     2.9122390000     1.3416080000
 ----------------------------------------------------------------

   10    -590.3741212195      6.45e-07  Convergence criterion met
 Total energy in the final basis set =     -590.3741212195
        RIMP2         total energy =      -591.3740224734 a.u.

                    Orbital Energies (a.u.)
 --------------------------------------------------------------

 Alpha MOs
 -- Occupied --
-91.9794 -11.2921 -11.2616 -11.2429 -11.2300 -11.2286  -8.9792  -6.6601
 -6.6596  -6.6590  -1.1568  -1.0409  -0.9711  -0.9198  -0.7544  -0.7221
 -0.6713  -0.5973  -0.5653  -0.5550  -0.5444  -0.4979  -0.4754  -0.4563
 -0.3465  -0.2977

          Ground-State Mulliken Net Atomic Charges

     Atom                 Charge (a.u.)
  ----------------------------------------
      1 C                     0.028444
      2 S                     0.002004
      3 C                    -0.253753
      4 C                    -0.245150
      5 C                    -0.184903
      6 H                     0.180034
      7 H                     0.185350
      8 C                    -0.363284
      9 H                     0.141902
     10 H                     0.137764
     11 H                     0.167608
     12 H                     0.203984
  ----------------------------------------
  Sum of atomic charges =     0.000000

                    Cartesian Multipole Moments
 -----------------------------------------------------------------
    Charge (ESU x 10^10)
                -0.0000
    Dipole Moment (Debye)
         X       0.7414      Y      -0.8790      Z      -1.1703
       Tot       1.6407
    Quadrupole Moments (Debye-Ang)
        XX     -48.2989     XY      -1.4463     YY     -35.8833
        XZ      -0.0686     YZ       1.3240     ZZ     -41.6938

 Total job time:  46.61s(wall), 546.67s(cpu)
        *  Thank you very much for using Q-Chem.  Have a nice day.  *
