 Q-Chem 5.4, Q-Chem, Inc., Pleasanton, CA (2021)
 Q-Chem 5.4.0 for Intel X86 EM64T Linux

User input:
--------------------------------------------------------------
$molecule
0 1
C	-0.171711	-0.368118	-0.213580
S	0.099389	0.377282	1.366920
C	0.659489	1.916282	0.691320
C	0.169489	0.569782	-1.198980
C	0.620889	1.810382	-0.707080
H	0.088889	0.348282	-2.273480
H	0.922189	2.638182	-1.366180
C	-0.171711	-1.846318	-0.213580
H	-1.251711	-1.846918	-0.214080
H	-0.171711	-2.285618	-1.200180
H	-0.171611	-2.557318	0.599420
H	0.960589	2.743882	1.342420
$end

$rem
JOBTYPE		SP
EXCHANGE	HF
CORRELATION	pRIMP2
BASIS		cc-pvtz
METHOD		rimp2
AUX_BASIS	rimp2-cc-pvtz
SOLVENT_METHOD	PCM
PURECART	11111
SYMMETRY	false
MEM_TOTAL	110000
SCF_CONVERGENCE = 6
THRESH=10
GUI = 2
$end

$solvent
dielectric 4.90
$end
--------------------------------------------------------------

             Standard Nuclear Orientation (Angstroms)
    I     Atom           X                Y                Z
 ----------------------------------------------------------------
    1      C      -0.1717110000    -0.3681180000    -0.2135800000
    2      S       0.0993890000     0.3772820000     1.3669200000
    3      C       0.6594890000     1.9162820000     0.6913200000
    4      C       0.1694890000     0.5697820000    -1.1989800000
    5      C       0.6208890000     1.8103820000    -0.7070800000
    6      H       0.0888890000     0.3482820000    -2.2734800000
    7      H       0.9221890000     2.6381820000    -1.3661800000
    8      C      -0.1717110000    -1.8463180000    -0.2135800000
    9      H      -1.2517110000    -1.8469180000    -0.2140800000
   10      H      -0.1717110000    -2.2856180000    -1.2001800000
   11      H      -0.1716110000    -2.5573180000     0.5994200000
   12      H       0.9605890000     2.7438820000     1.3424200000
 ----------------------------------------------------------------

   10    -590.3621843420      6.26e-07  Convergence criterion met
 Total energy in the final basis set =     -590.3621843420
        RIMP2         total energy =      -591.3651265153 a.u.

                    Orbital Energies (a.u.)
 --------------------------------------------------------------

 Alpha MOs
 -- Occupied --
-91.9767 -11.2877 -11.2648 -11.2430 -11.2346 -11.2251  -8.9767  -6.6576
 -6.6571  -6.6565  -1.1571  -1.0393  -0.9715  -0.9194  -0.7551  -0.7218
 -0.6700  -0.5974  -0.5634  -0.5546  -0.5511  -0.4948  -0.4685  -0.4536
 -0.3458  -0.2970

          Ground-State Mulliken Net Atomic Charges

     Atom                 Charge (a.u.)
  ----------------------------------------
      1 C                     0.012731
      2 S                    -0.004012
      3 C                    -0.241780
      4 C                    -0.230016
      5 C                    -0.187878
      6 H                     0.182448
      7 H                     0.185962
      8 C                    -0.364803
      9 H                     0.135805
     10 H                     0.135578
     11 H                     0.171745
     12 H                     0.204219
  ----------------------------------------
  Sum of atomic charges =     0.000000

                    Cartesian Multipole Moments
 -----------------------------------------------------------------
    Charge (ESU x 10^10)
                -0.0000
    Dipole Moment (Debye)
         X      -0.3421      Y      -0.7237      Z      -1.0956
       Tot       1.3569
    Quadrupole Moments (Debye-Ang)
        XX     -47.0950     XY       4.3456     YY     -37.0573
        XZ       0.3496     YZ       0.5335     ZZ     -41.6762

 Total job time:  10.24s(wall), 542.71s(cpu)
        *  Thank you very much for using Q-Chem.  Have a nice day.  *
