 Q-Chem 5.4, Q-Chem, Inc., Pleasanton, CA (2021)
 Q-Chem 5.4.0 for Intel X86 EM64T Linux

User input:
--------------------------------------------------------------
$molecule
0 1
C	-0.258266	-0.329934	-0.220018
S	0.138134	0.357066	1.360482
C	0.956934	1.775366	0.684882
C	0.240534	0.534466	-1.205418
C	0.900634	1.677866	-0.713518
H	0.122734	0.330366	-2.279918
H	1.341034	2.440766	-1.372618
C	-0.258266	-1.808134	-0.220018
H	-0.258766	-1.808734	0.859982
H	-1.244866	-2.247434	-0.220018
H	0.554734	-2.519134	-0.220118
H	1.397234	2.538166	1.335982
$end

$rem
JOBTYPE		SP
EXCHANGE	HF
CORRELATION	pRIMP2
BASIS		cc-pvtz
METHOD		rimp2
AUX_BASIS	rimp2-cc-pvtz
SOLVENT_METHOD	PCM
PURECART	11111
SYMMETRY	false
MEM_TOTAL	110000
SCF_CONVERGENCE = 6
THRESH=10
GUI = 2
$end

$solvent
dielectric 4.90
$end
--------------------------------------------------------------

             Standard Nuclear Orientation (Angstroms)
    I     Atom           X                Y                Z
 ----------------------------------------------------------------
    1      C      -0.2582660000    -0.3299340000    -0.2200180000
    2      S       0.1381340000     0.3570660000     1.3604820000
    3      C       0.9569340000     1.7753660000     0.6848820000
    4      C       0.2405340000     0.5344660000    -1.2054180000
    5      C       0.9006340000     1.6778660000    -0.7135180000
    6      H       0.1227340000     0.3303660000    -2.2799180000
    7      H       1.3410340000     2.4407660000    -1.3726180000
    8      C      -0.2582660000    -1.8081340000    -0.2200180000
    9      H      -0.2587660000    -1.8087340000     0.8599820000
   10      H      -1.2448660000    -2.2474340000    -0.2200180000
   11      H       0.5547340000    -2.5191340000    -0.2201180000
   12      H       1.3972340000     2.5381660000     1.3359820000
 ----------------------------------------------------------------

   10    -590.3502152915      7.14e-07  Convergence criterion met
 Total energy in the final basis set =     -590.3502152915
        RIMP2         total energy =      -591.3564266956 a.u.

                    Orbital Energies (a.u.)
 --------------------------------------------------------------

 Alpha MOs
 -- Occupied --
-91.9791 -11.2758 -11.2731 -11.2433 -11.2417 -11.2191  -8.9793  -6.6601
 -6.6595  -6.6590  -1.1604  -1.0383  -0.9749  -0.9149  -0.7612  -0.7213
 -0.6716  -0.5938  -0.5702  -0.5625  -0.5391  -0.4893  -0.4621  -0.4460
 -0.3447  -0.3127

          Ground-State Mulliken Net Atomic Charges

     Atom                 Charge (a.u.)
  ----------------------------------------
      1 C                    -0.015893
      2 S                    -0.002013
      3 C                    -0.217551
      4 C                    -0.200039
      5 C                    -0.190785
      6 H                     0.184292
      7 H                     0.186466
      8 C                    -0.341522
      9 H                     0.112149
     10 H                     0.120569
     11 H                     0.157522
     12 H                     0.206805
  ----------------------------------------
  Sum of atomic charges =     0.000000

                    Cartesian Multipole Moments
 -----------------------------------------------------------------
    Charge (ESU x 10^10)
                 0.0000
    Dipole Moment (Debye)
         X       0.8879      Y       0.0350      Z      -0.4714
       Tot       1.0059
    Quadrupole Moments (Debye-Ang)
        XX     -45.3169     XY       3.7391     YY     -38.6646
        XZ       0.2243     YZ      -0.4204     ZZ     -42.1641

 Total job time:  10.36s(wall), 548.80s(cpu)
        *  Thank you very much for using Q-Chem.  Have a nice day.  *
