 Q-Chem 5.4, Q-Chem, Inc., Pleasanton, CA (2021)
 Q-Chem 5.4.0 for Intel X86 EM64T Linux

User input:
--------------------------------------------------------------
$molecule
0 1
C	-0.084403	-0.391505	-0.213580
S	0.053097	0.389695	1.366920
C	0.337497	2.002495	0.691320
C	0.088697	0.591395	-1.198980
C	0.317897	1.891595	-0.707080
H	0.047797	0.359295	-2.273480
H	0.470797	2.759095	-1.366180
C	-0.084403	-1.869705	-0.213580
H	-1.164403	-1.870305	-0.214080
H	-0.084403	-2.309005	-1.200180
H	-0.084303	-2.580705	0.599420
H	0.490297	2.869795	1.342420
$end

$rem
JOBTYPE		SP
EXCHANGE	HF
CORRELATION	pRIMP2
BASIS		cc-pvtz
METHOD		rimp2
AUX_BASIS	rimp2-cc-pvtz
SOLVENT_METHOD	PCM
PURECART	11111
SYMMETRY	false
MEM_TOTAL	110000
SCF_CONVERGENCE = 6
THRESH=10
GUI = 2
$end

$solvent
dielectric 4.90
$end
--------------------------------------------------------------

             Standard Nuclear Orientation (Angstroms)
    I     Atom           X                Y                Z
 ----------------------------------------------------------------
    1      C      -0.0844030000    -0.3915050000    -0.2135800000
    2      S       0.0530970000     0.3896950000     1.3669200000
    3      C       0.3374970000     2.0024950000     0.6913200000
    4      C       0.0886970000     0.5913950000    -1.1989800000
    5      C       0.3178970000     1.8915950000    -0.7070800000
    6      H       0.0477970000     0.3592950000    -2.2734800000
    7      H       0.4707970000     2.7590950000    -1.3661800000
    8      C      -0.0844030000    -1.8697050000    -0.2135800000
    9      H      -1.1644030000    -1.8703050000    -0.2140800000
   10      H      -0.0844030000    -2.3090050000    -1.2001800000
   11      H      -0.0843030000    -2.5807050000     0.5994200000
   12      H       0.4902970000     2.8697950000     1.3424200000
 ----------------------------------------------------------------

   10    -590.3701191544      6.31e-07  Convergence criterion met
 Total energy in the final basis set =     -590.3701191544
        RIMP2         total energy =      -591.3710407689 a.u.

                    Orbital Energies (a.u.)
 --------------------------------------------------------------

 Alpha MOs
 -- Occupied --
-91.9770 -11.2913 -11.2625 -11.2429 -11.2327 -11.2275  -8.9770  -6.6579
 -6.6574  -6.6568  -1.1567  -1.0403  -0.9710  -0.9201  -0.7545  -0.7217
 -0.6704  -0.5985  -0.5646  -0.5551  -0.5496  -0.4939  -0.4732  -0.4542
 -0.3461  -0.2974

          Ground-State Mulliken Net Atomic Charges

     Atom                 Charge (a.u.)
  ----------------------------------------
      1 C                     0.025286
      2 S                    -0.005723
      3 C                    -0.249034
      4 C                    -0.239435
      5 C                    -0.187047
      6 H                     0.181908
      7 H                     0.185669
      8 C                    -0.365882
      9 H                     0.139758
     10 H                     0.136470
     11 H                     0.174100
     12 H                     0.203930
  ----------------------------------------
  Sum of atomic charges =     0.000000

                    Cartesian Multipole Moments
 -----------------------------------------------------------------
    Charge (ESU x 10^10)
                -0.0000
    Dipole Moment (Debye)
         X      -0.5703      Y      -0.8567      Z      -1.0858
       Tot       1.4960
    Quadrupole Moments (Debye-Ang)
        XX     -47.9502     XY       3.0218     YY     -36.1364
        XZ       0.2593     YZ       0.5554     ZZ     -41.7679

 Total job time:  36.11s(wall), 559.69s(cpu)
        *  Thank you very much for using Q-Chem.  Have a nice day.  *
