 Q-Chem 5.4, Q-Chem, Inc., Pleasanton, CA (2021)
 Q-Chem 5.4.0 for Intel X86 EM64T Linux

User input:
--------------------------------------------------------------
$molecule
0 1
C	-0.093494	-0.391505	-0.210119
S	0.044006	0.389695	1.370381
C	0.328406	2.002495	0.694781
C	0.079606	0.591395	-1.195519
C	0.308806	1.891595	-0.703619
H	0.038706	0.359295	-2.270019
H	0.461706	2.759095	-1.362719
C	-0.093494	-1.869705	-0.210119
H	0.447006	-1.870305	-1.145119
H	0.760906	-2.309005	0.283181
H	-0.797594	-2.580705	-0.616519
H	0.481206	2.869795	1.345881
$end

$rem
JOBTYPE		SP
EXCHANGE	HF
CORRELATION	pRIMP2
BASIS		cc-pvtz
METHOD		rimp2
AUX_BASIS	rimp2-cc-pvtz
SOLVENT_METHOD	PCM
PURECART	11111
SYMMETRY	false
MEM_TOTAL	110000
SCF_CONVERGENCE = 6
THRESH=10
GUI = 2
$end

$solvent
dielectric 4.90
$end
--------------------------------------------------------------

             Standard Nuclear Orientation (Angstroms)
    I     Atom           X                Y                Z
 ----------------------------------------------------------------
    1      C      -0.0934940000    -0.3915050000    -0.2101190000
    2      S       0.0440060000     0.3896950000     1.3703810000
    3      C       0.3284060000     2.0024950000     0.6947810000
    4      C       0.0796060000     0.5913950000    -1.1955190000
    5      C       0.3088060000     1.8915950000    -0.7036190000
    6      H       0.0387060000     0.3592950000    -2.2700190000
    7      H       0.4617060000     2.7590950000    -1.3627190000
    8      C      -0.0934940000    -1.8697050000    -0.2101190000
    9      H       0.4470060000    -1.8703050000    -1.1451190000
   10      H       0.7609060000    -2.3090050000     0.2831810000
   11      H      -0.7975940000    -2.5807050000    -0.6165190000
   12      H       0.4812060000     2.8697950000     1.3458810000
 ----------------------------------------------------------------

   10    -590.3720802865      5.84e-07  Convergence criterion met
 Total energy in the final basis set =     -590.3720802865
        RIMP2         total energy =      -591.3741258194 a.u.

                    Orbital Energies (a.u.)
 --------------------------------------------------------------

 Alpha MOs
 -- Occupied --
-91.9765 -11.2865 -11.2670 -11.2429 -11.2382 -11.2241  -8.9764  -6.6573
 -6.6568  -6.6563  -1.1572  -1.0384  -0.9726  -0.9187  -0.7545  -0.7239
 -0.6722  -0.5973  -0.5692  -0.5578  -0.5410  -0.4986  -0.4685  -0.4435
 -0.3449  -0.3083

          Ground-State Mulliken Net Atomic Charges

     Atom                 Charge (a.u.)
  ----------------------------------------
      1 C                     0.033638
      2 S                    -0.006855
      3 C                    -0.232385
      4 C                    -0.226299
      5 C                    -0.196132
      6 H                     0.182453
      7 H                     0.186360
      8 C                    -0.363858
      9 H                     0.127054
     10 H                     0.138352
     11 H                     0.153875
     12 H                     0.203796
  ----------------------------------------
  Sum of atomic charges =     0.000000

                    Cartesian Multipole Moments
 -----------------------------------------------------------------
    Charge (ESU x 10^10)
                -0.0000
    Dipole Moment (Debye)
         X       0.5842      Y      -0.4534      Z      -1.6835
       Tot       1.8387
    Quadrupole Moments (Debye-Ang)
        XX     -47.4889     XY       0.9333     YY     -36.3750
        XZ       0.4132     YZ       2.0710     ZZ     -41.9146

 Total job time:  11.30s(wall), 573.84s(cpu)
        *  Thank you very much for using Q-Chem.  Have a nice day.  *
