 Q-Chem 5.4, Q-Chem, Inc., Pleasanton, CA (2021)
 Q-Chem 5.4.0 for Intel X86 EM64T Linux

User input:
--------------------------------------------------------------
$molecule
0 1
C	0.005694	-0.399361	-0.214556
S	0.005494	0.393839	1.365944
C	0.005494	2.031539	0.690344
C	0.005494	0.598639	-1.199956
C	0.005394	1.918839	-0.708056
H	0.005594	0.362939	-2.274456
H	0.005394	2.799839	-1.367156
C	0.005694	-1.877561	-0.214556
H	-1.058006	-1.878161	-0.027556
H	-0.165606	-2.316861	-1.186156
H	0.146994	-2.588561	0.586044
H	0.005394	2.912239	1.341444
$end

$rem
JOBTYPE		SP
EXCHANGE	HF
CORRELATION	pRIMP2
BASIS		cc-pvtz
METHOD		rimp2
AUX_BASIS	rimp2-cc-pvtz
SOLVENT_METHOD	PCM
PURECART	11111
SYMMETRY	false
MEM_TOTAL	110000
SCF_CONVERGENCE = 6
THRESH=10
GUI = 2
$end

$solvent
dielectric 4.90
$end
--------------------------------------------------------------

             Standard Nuclear Orientation (Angstroms)
    I     Atom           X                Y                Z
 ----------------------------------------------------------------
    1      C       0.0056940000    -0.3993610000    -0.2145560000
    2      S       0.0054940000     0.3938390000     1.3659440000
    3      C       0.0054940000     2.0315390000     0.6903440000
    4      C       0.0054940000     0.5986390000    -1.1999560000
    5      C       0.0053940000     1.9188390000    -0.7080560000
    6      H       0.0055940000     0.3629390000    -2.2744560000
    7      H       0.0053940000     2.7998390000    -1.3671560000
    8      C       0.0056940000    -1.8775610000    -0.2145560000
    9      H      -1.0580060000    -1.8781610000    -0.0275560000
   10      H      -0.1656060000    -2.3168610000    -1.1861560000
   11      H       0.1469940000    -2.5885610000     0.5860440000
   12      H       0.0053940000     2.9122390000     1.3414440000
 ----------------------------------------------------------------

   10    -590.3740286330      6.37e-07  Convergence criterion met
 Total energy in the final basis set =     -590.3740286330
        RIMP2         total energy =      -591.3738617657 a.u.

                    Orbital Energies (a.u.)
 --------------------------------------------------------------

 Alpha MOs
 -- Occupied --
-91.9771 -11.2925 -11.2624 -11.2428 -11.2322 -11.2287  -8.9771  -6.6580
 -6.6575  -6.6569  -1.1569  -1.0409  -0.9711  -0.9200  -0.7548  -0.7215
 -0.6707  -0.5991  -0.5662  -0.5565  -0.5463  -0.4922  -0.4774  -0.4546
 -0.3465  -0.2984

          Ground-State Mulliken Net Atomic Charges

     Atom                 Charge (a.u.)
  ----------------------------------------
      1 C                     0.024808
      2 S                    -0.009591
      3 C                    -0.247921
      4 C                    -0.239059
      5 C                    -0.187612
      6 H                     0.182780
      7 H                     0.185298
      8 C                    -0.364392
      9 H                     0.142513
     10 H                     0.135450
     11 H                     0.173701
     12 H                     0.204026
  ----------------------------------------
  Sum of atomic charges =     0.000000

                    Cartesian Multipole Moments
 -----------------------------------------------------------------
    Charge (ESU x 10^10)
                -0.0000
    Dipole Moment (Debye)
         X      -0.7305      Y      -0.8752      Z      -0.9597
       Tot       1.4902
    Quadrupole Moments (Debye-Ang)
        XX     -48.3037     XY       1.4163     YY     -35.7859
        XZ       0.2956     YZ       0.3314     ZZ     -41.8761

 Total job time:  10.05s(wall), 551.08s(cpu)
        *  Thank you very much for using Q-Chem.  Have a nice day.  *
