 Q-Chem 5.4, Q-Chem, Inc., Pleasanton, CA (2021)
 Q-Chem 5.4.0 for Intel X86 EM64T Linux

User input:
--------------------------------------------------------------
$molecule
0 1
C	-0.182077	-0.368118	-0.211595
S	0.089023	0.377282	1.368905
C	0.649123	1.916282	0.693305
C	0.159123	0.569782	-1.196995
C	0.610523	1.810382	-0.705095
H	0.078523	0.348282	-2.271495
H	0.911823	2.638182	-1.364195
C	-0.182077	-1.846318	-0.211595
H	0.645623	-1.846918	-0.905395
H	0.452123	-2.285618	0.544205
H	-0.704777	-2.557318	-0.834295
H	0.950223	2.743882	1.344405
$end

$rem
JOBTYPE		SP
EXCHANGE	HF
CORRELATION	pRIMP2
BASIS		cc-pvtz
METHOD		rimp2
AUX_BASIS	rimp2-cc-pvtz
SOLVENT_METHOD	PCM
PURECART	11111
SYMMETRY	false
MEM_TOTAL	110000
SCF_CONVERGENCE = 6
THRESH=10
GUI = 2
$end

$solvent
dielectric 4.90
$end
--------------------------------------------------------------

             Standard Nuclear Orientation (Angstroms)
    I     Atom           X                Y                Z
 ----------------------------------------------------------------
    1      C      -0.1820770000    -0.3681180000    -0.2115950000
    2      S       0.0890230000     0.3772820000     1.3689050000
    3      C       0.6491230000     1.9162820000     0.6933050000
    4      C       0.1591230000     0.5697820000    -1.1969950000
    5      C       0.6105230000     1.8103820000    -0.7050950000
    6      H       0.0785230000     0.3482820000    -2.2714950000
    7      H       0.9118230000     2.6381820000    -1.3641950000
    8      C      -0.1820770000    -1.8463180000    -0.2115950000
    9      H       0.6456230000    -1.8469180000    -0.9053950000
   10      H       0.4521230000    -2.2856180000     0.5442050000
   11      H      -0.7047770000    -2.5573180000    -0.8342950000
   12      H       0.9502230000     2.7438820000     1.3444050000
 ----------------------------------------------------------------

   10    -590.3662779220      6.08e-07  Convergence criterion met
 Total energy in the final basis set =     -590.3662779220
        RIMP2         total energy =      -591.3690289286 a.u.

                    Orbital Energies (a.u.)
 --------------------------------------------------------------

 Alpha MOs
 -- Occupied --
-91.9786 -11.2874 -11.2653 -11.2431 -11.2345 -11.2248  -8.9784  -6.6592
 -6.6587  -6.6582  -1.1582  -1.0390  -0.9725  -0.9171  -0.7549  -0.7234
 -0.6715  -0.5972  -0.5673  -0.5550  -0.5448  -0.4937  -0.4712  -0.4515
 -0.3452  -0.3022

          Ground-State Mulliken Net Atomic Charges

     Atom                 Charge (a.u.)
  ----------------------------------------
      1 C                     0.022165
      2 S                    -0.000436
      3 C                    -0.236217
      4 C                    -0.225437
      5 C                    -0.194676
      6 H                     0.180012
      7 H                     0.186282
      8 C                    -0.369355
      9 H                     0.139941
     10 H                     0.137680
     11 H                     0.156561
     12 H                     0.203480
  ----------------------------------------
  Sum of atomic charges =     0.000000

                    Cartesian Multipole Moments
 -----------------------------------------------------------------
    Charge (ESU x 10^10)
                 0.0000
    Dipole Moment (Debye)
         X       0.9668      Y      -0.6181      Z      -1.5084
       Tot       1.8952
    Quadrupole Moments (Debye-Ang)
        XX     -47.1787     XY       1.8532     YY     -37.3033
        XZ       0.4805     YZ       1.8335     ZZ     -41.6578

 Total job time:  11.00s(wall), 562.53s(cpu)
        *  Thank you very much for using Q-Chem.  Have a nice day.  *
