 Q-Chem 5.4, Q-Chem, Inc., Pleasanton, CA (2021)
 Q-Chem 5.4.0 for Intel X86 EM64T Linux

User input:
--------------------------------------------------------------
$molecule
0 1
C	-0.092826	-0.391505	-0.219296
S	0.044674	0.389695	1.361204
C	0.329074	2.002495	0.685604
C	0.080274	0.591395	-1.204696
C	0.309474	1.891595	-0.712796
H	0.039374	0.359295	-2.279196
H	0.462374	2.759095	-1.371896
C	-0.092826	-1.869705	-0.219296
H	0.600974	-1.870305	0.608404
H	-0.848626	-2.309005	0.414904
H	0.529874	-2.580705	-0.741996
H	0.481874	2.869795	1.336704
$end

$rem
JOBTYPE		SP
EXCHANGE	HF
CORRELATION	pRIMP2
BASIS		cc-pvtz
METHOD		rimp2
AUX_BASIS	rimp2-cc-pvtz
SOLVENT_METHOD	PCM
PURECART	11111
SYMMETRY	false
MEM_TOTAL	110000
SCF_CONVERGENCE = 6
THRESH=10
GUI = 2
$end

$solvent
dielectric 4.90
$end
--------------------------------------------------------------

             Standard Nuclear Orientation (Angstroms)
    I     Atom           X                Y                Z
 ----------------------------------------------------------------
    1      C      -0.0928260000    -0.3915050000    -0.2192960000
    2      S       0.0446740000     0.3896950000     1.3612040000
    3      C       0.3290740000     2.0024950000     0.6856040000
    4      C       0.0802740000     0.5913950000    -1.2046960000
    5      C       0.3094740000     1.8915950000    -0.7127960000
    6      H       0.0393740000     0.3592950000    -2.2791960000
    7      H       0.4623740000     2.7590950000    -1.3718960000
    8      C      -0.0928260000    -1.8697050000    -0.2192960000
    9      H       0.6009740000    -1.8703050000     0.6084040000
   10      H      -0.8486260000    -2.3090050000     0.4149040000
   11      H       0.5298740000    -2.5807050000    -0.7419960000
   12      H       0.4818740000     2.8697950000     1.3367040000
 ----------------------------------------------------------------

   10    -590.3701384930      6.03e-07  Convergence criterion met
 Total energy in the final basis set =     -590.3701384930
        RIMP2         total energy =      -591.3710665623 a.u.

                    Orbital Energies (a.u.)
 --------------------------------------------------------------

 Alpha MOs
 -- Occupied --
-91.9787 -11.2863 -11.2677 -11.2427 -11.2346 -11.2248  -8.9788  -6.6597
 -6.6592  -6.6586  -1.1582  -1.0404  -0.9724  -0.9183  -0.7574  -0.7207
 -0.6718  -0.5966  -0.5676  -0.5631  -0.5337  -0.5013  -0.4671  -0.4543
 -0.3466  -0.3051

          Ground-State Mulliken Net Atomic Charges

     Atom                 Charge (a.u.)
  ----------------------------------------
      1 C                     0.025157
      2 S                    -0.003948
      3 C                    -0.236772
      4 C                    -0.237049
      5 C                    -0.185160
      6 H                     0.184903
      7 H                     0.185956
      8 C                    -0.356220
      9 H                     0.123557
     10 H                     0.133415
     11 H                     0.160767
     12 H                     0.205392
  ----------------------------------------
  Sum of atomic charges =     0.000000

                    Cartesian Multipole Moments
 -----------------------------------------------------------------
    Charge (ESU x 10^10)
                -0.0000
    Dipole Moment (Debye)
         X       0.6548      Y      -0.4395      Z      -0.5508
       Tot       0.9620
    Quadrupole Moments (Debye-Ang)
        XX     -47.6142     XY       0.4736     YY     -36.2642
        XZ      -0.3836     YZ      -0.0365     ZZ     -42.2087

 Total job time:  12.21s(wall), 567.29s(cpu)
        *  Thank you very much for using Q-Chem.  Have a nice day.  *
