 Q-Chem 5.4, Q-Chem, Inc., Pleasanton, CA (2021)
 Q-Chem 5.4.0 for Intel X86 EM64T Linux

User input:
--------------------------------------------------------------
$molecule
0 1
C	-0.447910	-0.140188	-0.208958
S	0.238890	0.256612	1.371542
C	1.657190	1.075412	0.695942
C	0.416290	0.358912	-1.194358
C	1.559590	1.019112	-0.702458
H	0.212190	0.241112	-2.268858
H	2.322490	1.459712	-1.361558
C	-0.447910	-1.618388	-0.208958
H	-0.816810	-1.618988	-1.223958
H	0.479190	-2.057688	-0.546358
H	-1.211810	-2.329388	0.069242
H	2.419790	1.515912	1.347042
$end

$rem
JOBTYPE		SP
EXCHANGE	HF
CORRELATION	pRIMP2
BASIS		cc-pvtz
METHOD		rimp2
AUX_BASIS	rimp2-cc-pvtz
SOLVENT_METHOD	PCM
PURECART	11111
SYMMETRY	false
MEM_TOTAL	110000
SCF_CONVERGENCE = 6
THRESH=10
GUI = 2
$end

$solvent
dielectric 4.90
$end
--------------------------------------------------------------

             Standard Nuclear Orientation (Angstroms)
    I     Atom           X                Y                Z
 ----------------------------------------------------------------
    1      C      -0.4479100000    -0.1401880000    -0.2089580000
    2      S       0.2388900000     0.2566120000     1.3715420000
    3      C       1.6571900000     1.0754120000     0.6959420000
    4      C       0.4162900000     0.3589120000    -1.1943580000
    5      C       1.5595900000     1.0191120000    -0.7024580000
    6      H       0.2121900000     0.2411120000    -2.2688580000
    7      H       2.3224900000     1.4597120000    -1.3615580000
    8      C      -0.4479100000    -1.6183880000    -0.2089580000
    9      H      -0.8168100000    -1.6189880000    -1.2239580000
   10      H       0.4791900000    -2.0576880000    -0.5463580000
   11      H      -1.2118100000    -2.3293880000     0.0692420000
   12      H       2.4197900000     1.5159120000     1.3470420000
 ----------------------------------------------------------------

   11    -590.3069127820      5.57e-07  Convergence criterion met
 Total energy in the final basis set =     -590.3069127820
        RIMP2         total energy =      -591.3214016091 a.u.

                    Orbital Energies (a.u.)
 --------------------------------------------------------------

 Alpha MOs
 -- Occupied --
-91.9736 -11.2932 -11.2593 -11.2521 -11.2464 -11.2150  -8.9744  -6.6551
 -6.6542  -6.6541  -1.1698  -1.0376  -0.9794  -0.9073  -0.7624  -0.7306
 -0.6727  -0.5948  -0.5796  -0.5557  -0.5383  -0.4884  -0.4658  -0.4206
 -0.3418  -0.3124

          Ground-State Mulliken Net Atomic Charges

     Atom                 Charge (a.u.)
  ----------------------------------------
      1 C                    -0.108271
      2 S                     0.013324
      3 C                    -0.152989
      4 C                    -0.095570
      5 C                    -0.243611
      6 H                     0.187382
      7 H                     0.187942
      8 C                    -0.359515
      9 H                     0.098326
     10 H                     0.124682
     11 H                     0.140462
     12 H                     0.207837
  ----------------------------------------
  Sum of atomic charges =     0.000000

                    Cartesian Multipole Moments
 -----------------------------------------------------------------
    Charge (ESU x 10^10)
                 0.0000
    Dipole Moment (Debye)
         X       2.1698      Y       0.0090      Z      -1.6697
       Tot       2.7378
    Quadrupole Moments (Debye-Ang)
        XX     -40.7929     XY       5.1814     YY     -43.7355
        XZ       0.6943     YZ       1.2737     ZZ     -41.2763

 Total job time:  11.54s(wall), 616.76s(cpu)
        *  Thank you very much for using Q-Chem.  Have a nice day.  *
