 Q-Chem 5.4, Q-Chem, Inc., Pleasanton, CA (2021)
 Q-Chem 5.4.0 for Intel X86 EM64T Linux

User input:
--------------------------------------------------------------
$molecule
0 1
C	-0.401372	-0.214208	-0.210801
S	0.206128	0.295792	1.369699
C	1.460628	1.348492	0.694099
C	0.363028	0.427392	-1.196201
C	1.374328	1.276092	-0.704301
H	0.182528	0.275892	-2.270701
H	2.049128	1.842392	-1.363401
C	-0.401372	-1.692408	-0.210801
H	0.293228	-1.693008	-1.037801
H	0.354428	-2.131708	0.423399
H	-1.024272	-2.403408	-0.733301
H	2.135228	1.914692	1.345199
$end

$rem
JOBTYPE		SP
EXCHANGE	HF
CORRELATION	pRIMP2
BASIS		cc-pvtz
METHOD		rimp2
AUX_BASIS	rimp2-cc-pvtz
SOLVENT_METHOD	PCM
PURECART	11111
SYMMETRY	false
MEM_TOTAL	110000
SCF_CONVERGENCE = 6
THRESH=10
GUI = 2
$end

$solvent
dielectric 4.90
$end
--------------------------------------------------------------

             Standard Nuclear Orientation (Angstroms)
    I     Atom           X                Y                Z
 ----------------------------------------------------------------
    1      C      -0.4013720000    -0.2142080000    -0.2108010000
    2      S       0.2061280000     0.2957920000     1.3696990000
    3      C       1.4606280000     1.3484920000     0.6940990000
    4      C       0.3630280000     0.4273920000    -1.1962010000
    5      C       1.3743280000     1.2760920000    -0.7043010000
    6      H       0.1825280000     0.2758920000    -2.2707010000
    7      H       2.0491280000     1.8423920000    -1.3634010000
    8      C      -0.4013720000    -1.6924080000    -0.2108010000
    9      H       0.2932280000    -1.6930080000    -1.0378010000
   10      H       0.3544280000    -2.1317080000     0.4233990000
   11      H      -1.0242720000    -2.4034080000    -0.7333010000
   12      H       2.1352280000     1.9146920000     1.3451990000
 ----------------------------------------------------------------

   11    -590.3192564486      4.90e-07  Convergence criterion met
 Total energy in the final basis set =     -590.3192564486
        RIMP2         total energy =      -591.3321090553 a.u.

                    Orbital Energies (a.u.)
 --------------------------------------------------------------

 Alpha MOs
 -- Occupied --
-91.9777 -11.2810 -11.2672 -11.2469 -11.2438 -11.2152  -8.9779  -6.6586
 -6.6580  -6.6576  -1.1666  -1.0376  -0.9774  -0.9077  -0.7603  -0.7276
 -0.6714  -0.5962  -0.5713  -0.5532  -0.5462  -0.4767  -0.4702  -0.4469
 -0.3408  -0.3030

          Ground-State Mulliken Net Atomic Charges

     Atom                 Charge (a.u.)
  ----------------------------------------
      1 C                    -0.065164
      2 S                     0.011704
      3 C                    -0.189646
      4 C                    -0.137117
      5 C                    -0.229399
      6 H                     0.181805
      7 H                     0.187171
      8 C                    -0.362893
      9 H                     0.130419
     10 H                     0.132875
     11 H                     0.134444
     12 H                     0.205801
  ----------------------------------------
  Sum of atomic charges =     0.000000

                    Cartesian Multipole Moments
 -----------------------------------------------------------------
    Charge (ESU x 10^10)
                 0.0000
    Dipole Moment (Debye)
         X       2.0303      Y      -0.1869      Z      -1.5586
       Tot       2.5664
    Quadrupole Moments (Debye-Ang)
        XX     -43.2119     XY       3.9517     YY     -42.3322
        XZ       0.9989     YZ       1.5911     ZZ     -41.0930

 Total job time:  11.39s(wall), 618.19s(cpu)
        *  Thank you very much for using Q-Chem.  Have a nice day.  *
