 Q-Chem 5.4, Q-Chem, Inc., Pleasanton, CA (2021)
 Q-Chem 5.4.0 for Intel X86 EM64T Linux

User input:
--------------------------------------------------------------
$molecule
0 1
C	-0.285304	-0.332703	-0.215368
S	0.111096	0.354297	1.365132
C	0.929896	1.772597	0.689532
C	0.213496	0.531697	-1.200768
C	0.873596	1.675097	-0.708868
H	0.095696	0.327597	-2.275268
H	1.313996	2.437997	-1.367968
C	-0.028604	-1.788503	-0.215368
H	1.035096	-1.601503	-0.214868
H	0.047596	-2.221103	0.771232
H	0.094696	-2.488603	-1.028368
H	1.370196	2.535397	1.340632
$end

$rem
JOBTYPE		SP
EXCHANGE	HF
CORRELATION	pRIMP2
BASIS		cc-pvtz
METHOD		rimp2
AUX_BASIS	rimp2-cc-pvtz
SOLVENT_METHOD	PCM
PURECART	11111
SYMMETRY	false
MEM_TOTAL	110000
SCF_CONVERGENCE = 6
THRESH=10
GUI = 2
$end

$solvent
dielectric 4.90
$end
--------------------------------------------------------------

             Standard Nuclear Orientation (Angstroms)
    I     Atom           X                Y                Z
 ----------------------------------------------------------------
    1      C      -0.2853040000    -0.3327030000    -0.2153680000
    2      S       0.1110960000     0.3542970000     1.3651320000
    3      C       0.9298960000     1.7725970000     0.6895320000
    4      C       0.2134960000     0.5316970000    -1.2007680000
    5      C       0.8735960000     1.6750970000    -0.7088680000
    6      H       0.0956960000     0.3275970000    -2.2752680000
    7      H       1.3139960000     2.4379970000    -1.3679680000
    8      C      -0.0286040000    -1.7885030000    -0.2153680000
    9      H       1.0350960000    -1.6015030000    -0.2148680000
   10      H       0.0475960000    -2.2211030000     0.7712320000
   11      H       0.0946960000    -2.4886030000    -1.0283680000
   12      H       1.3701960000     2.5353970000     1.3406320000
 ----------------------------------------------------------------

   10    -590.3451208024      7.06e-07  Convergence criterion met
 Total energy in the final basis set =     -590.3451208024
        RIMP2         total energy =      -591.3518210375 a.u.

                    Orbital Energies (a.u.)
 --------------------------------------------------------------

 Alpha MOs
 -- Occupied --
-91.9781 -11.2817 -11.2720 -11.2444 -11.2361 -11.2250  -8.9784  -6.6592
 -6.6587  -6.6581  -1.1636  -1.0398  -0.9742  -0.9125  -0.7586  -0.7238
 -0.6719  -0.5956  -0.5673  -0.5601  -0.5372  -0.4949  -0.4700  -0.4566
 -0.3470  -0.2962

          Ground-State Mulliken Net Atomic Charges

     Atom                 Charge (a.u.)
  ----------------------------------------
      1 C                    -0.011917
      2 S                     0.003448
      3 C                    -0.227682
      4 C                    -0.209064
      5 C                    -0.193432
      6 H                     0.179065
      7 H                     0.187615
      8 C                    -0.357049
      9 H                     0.143012
     10 H                     0.126804
     11 H                     0.153817
     12 H                     0.205383
  ----------------------------------------
  Sum of atomic charges =     0.000000

                    Cartesian Multipole Moments
 -----------------------------------------------------------------
    Charge (ESU x 10^10)
                 0.0000
    Dipole Moment (Debye)
         X       1.7131      Y      -0.2821      Z      -1.0771
       Tot       2.0432
    Quadrupole Moments (Debye-Ang)
        XX     -46.2468     XY       2.3205     YY     -39.0402
        XZ       0.0554     YZ       1.0665     ZZ     -41.4630

 Total job time:  12.52s(wall), 571.86s(cpu)
        *  Thank you very much for using Q-Chem.  Have a nice day.  *
