 Q-Chem 5.4, Q-Chem, Inc., Pleasanton, CA (2021)
 Q-Chem 5.4.0 for Intel X86 EM64T Linux

User input:
--------------------------------------------------------------
$molecule
0 1
C	-0.262707	-0.329934	-0.210119
S	0.133693	0.357066	1.370381
C	0.952493	1.775366	0.694781
C	0.236093	0.534466	-1.195519
C	0.896193	1.677866	-0.703619
H	0.118293	0.330366	-2.270019
H	1.336593	2.440766	-1.362719
C	-0.262707	-1.808134	-0.210119
H	0.277793	-1.808734	-1.145119
H	0.591693	-2.247434	0.283181
H	-0.966807	-2.519134	-0.616519
H	1.392793	2.538166	1.345881
$end

$rem
JOBTYPE		SP
EXCHANGE	HF
CORRELATION	pRIMP2
BASIS		cc-pvtz
METHOD		rimp2
AUX_BASIS	rimp2-cc-pvtz
SOLVENT_METHOD	PCM
PURECART	11111
SYMMETRY	false
MEM_TOTAL	110000
SCF_CONVERGENCE = 6
THRESH=10
GUI = 2
$end

$solvent
dielectric 4.90
$end
--------------------------------------------------------------

             Standard Nuclear Orientation (Angstroms)
    I     Atom           X                Y                Z
 ----------------------------------------------------------------
    1      C      -0.2627070000    -0.3299340000    -0.2101190000
    2      S       0.1336930000     0.3570660000     1.3703810000
    3      C       0.9524930000     1.7753660000     0.6947810000
    4      C       0.2360930000     0.5344660000    -1.1955190000
    5      C       0.8961930000     1.6778660000    -0.7036190000
    6      H       0.1182930000     0.3303660000    -2.2700190000
    7      H       1.3365930000     2.4407660000    -1.3627190000
    8      C      -0.2627070000    -1.8081340000    -0.2101190000
    9      H       0.2777930000    -1.8087340000    -1.1451190000
   10      H       0.5916930000    -2.2474340000     0.2831810000
   11      H      -0.9668070000    -2.5191340000    -0.6165190000
   12      H       1.3927930000     2.5381660000     1.3458810000
 ----------------------------------------------------------------

   10    -590.3561682734      6.91e-07  Convergence criterion met
 Total energy in the final basis set =     -590.3561682734
        RIMP2         total energy =      -591.3617196978 a.u.

                    Orbital Energies (a.u.)
 --------------------------------------------------------------

 Alpha MOs
 -- Occupied --
-91.9765 -11.2806 -11.2710 -11.2431 -11.2406 -11.2211  -8.9765  -6.6574
 -6.6568  -6.6563  -1.1598  -1.0376  -0.9739  -0.9149  -0.7560  -0.7247
 -0.6715  -0.5967  -0.5701  -0.5559  -0.5429  -0.4908  -0.4690  -0.4433
 -0.3437  -0.3076

          Ground-State Mulliken Net Atomic Charges

     Atom                 Charge (a.u.)
  ----------------------------------------
      1 C                     0.007236
      2 S                    -0.001643
      3 C                    -0.221225
      4 C                    -0.210678
      5 C                    -0.198761
      6 H                     0.180307
      7 H                     0.187366
      8 C                    -0.365347
      9 H                     0.130889
     10 H                     0.139536
     11 H                     0.148618
     12 H                     0.203702
  ----------------------------------------
  Sum of atomic charges =     0.000000

                    Cartesian Multipole Moments
 -----------------------------------------------------------------
    Charge (ESU x 10^10)
                 0.0000
    Dipole Moment (Debye)
         X       1.1157      Y      -0.3344      Z      -1.6739
       Tot       2.0392
    Quadrupole Moments (Debye-Ang)
        XX     -45.7492     XY       3.3436     YY     -38.6983
        XZ       0.7003     YZ       1.9399     ZZ     -41.7056

 Total job time:  10.17s(wall), 545.08s(cpu)
        *  Thank you very much for using Q-Chem.  Have a nice day.  *
