 Q-Chem 5.4, Q-Chem, Inc., Pleasanton, CA (2021)
 Q-Chem 5.4.0 for Intel X86 EM64T Linux

User input:
--------------------------------------------------------------
$molecule
0 1
C	-0.327695	-0.278098	-0.215530
S	0.182005	0.329602	1.364970
C	1.234705	1.584202	0.689370
C	0.313705	0.486502	-1.200930
C	1.162205	1.497902	-0.709030
H	0.162205	0.306002	-2.275430
H	1.728405	2.172802	-1.368130
C	-0.327695	-1.756298	-0.215530
H	-1.342695	-1.756898	0.153370
H	-0.665095	-2.195598	-1.142630
H	-0.049495	-2.467298	0.548370
H	1.800705	2.258902	1.340470
$end

$rem
JOBTYPE		SP
EXCHANGE	HF
CORRELATION	pRIMP2
BASIS		cc-pvtz
METHOD		rimp2
AUX_BASIS	rimp2-cc-pvtz
SOLVENT_METHOD	PCM
PURECART	11111
SYMMETRY	false
MEM_TOTAL	110000
SCF_CONVERGENCE = 6
THRESH=10
GUI = 2
$end

$solvent
dielectric 4.90
$end
--------------------------------------------------------------

             Standard Nuclear Orientation (Angstroms)
    I     Atom           X                Y                Z
 ----------------------------------------------------------------
    1      C      -0.3276950000    -0.2780980000    -0.2155300000
    2      S       0.1820050000     0.3296020000     1.3649700000
    3      C       1.2347050000     1.5842020000     0.6893700000
    4      C       0.3137050000     0.4865020000    -1.2009300000
    5      C       1.1622050000     1.4979020000    -0.7090300000
    6      H       0.1622050000     0.3060020000    -2.2754300000
    7      H       1.7284050000     2.1728020000    -1.3681300000
    8      C      -0.3276950000    -1.7562980000    -0.2155300000
    9      H      -1.3426950000    -1.7568980000     0.1533700000
   10      H      -0.6650950000    -2.1955980000    -1.1426300000
   11      H      -0.0494950000    -2.4672980000     0.5483700000
   12      H       1.8007050000     2.2589020000     1.3404700000
 ----------------------------------------------------------------

   10    -590.3353216978      9.62e-07  Convergence criterion met
 Total energy in the final basis set =     -590.3353216978
        RIMP2         total energy =      -591.3443206108 a.u.

                    Orbital Energies (a.u.)
 --------------------------------------------------------------

 Alpha MOs
 -- Occupied --
-91.9767 -11.2766 -11.2711 -11.2439 -11.2425 -11.2175  -8.9770  -6.6579
 -6.6573  -6.6568  -1.1604  -1.0363  -0.9743  -0.9155  -0.7591  -0.7229
 -0.6696  -0.5941  -0.5610  -0.5588  -0.5509  -0.4880  -0.4584  -0.4519
 -0.3455  -0.2984

          Ground-State Mulliken Net Atomic Charges

     Atom                 Charge (a.u.)
  ----------------------------------------
      1 C                    -0.053450
      2 S                    -0.002219
      3 C                    -0.201907
      4 C                    -0.165313
      5 C                    -0.203321
      6 H                     0.185446
      7 H                     0.185225
      8 C                    -0.370228
      9 H                     0.128577
     10 H                     0.125186
     11 H                     0.165961
     12 H                     0.206044
  ----------------------------------------
  Sum of atomic charges =     0.000000

                    Cartesian Multipole Moments
 -----------------------------------------------------------------
    Charge (ESU x 10^10)
                 0.0000
    Dipole Moment (Debye)
         X       0.5605      Y      -0.1779      Z      -0.9077
       Tot       1.0815
    Quadrupole Moments (Debye-Ang)
        XX     -44.2845     XY       5.6871     YY     -40.1897
        XZ       0.8048     YZ       0.1164     ZZ     -41.4346

 Total job time:  9.91s(wall), 533.24s(cpu)
        *  Thank you very much for using Q-Chem.  Have a nice day.  *
