 Q-Chem 5.4, Q-Chem, Inc., Pleasanton, CA (2021)
 Q-Chem 5.4.0 for Intel X86 EM64T Linux

User input:
--------------------------------------------------------------
$molecule
0 1
C	-0.449860	-0.140188	-0.208929
S	0.236940	0.256612	1.371571
C	1.655240	1.075412	0.695971
C	0.414340	0.358912	-1.194329
C	1.557640	1.019112	-0.702429
H	0.210240	0.241112	-2.268829
H	2.320540	1.459712	-1.361529
C	-0.449860	-1.618388	-0.208929
H	-0.449360	-1.618988	-1.288929
H	0.536740	-2.057688	-0.208929
H	-1.262860	-2.329388	-0.208829
H	2.417840	1.515912	1.347071
$end

$rem
JOBTYPE		SP
EXCHANGE	HF
CORRELATION	pRIMP2
BASIS		cc-pvtz
METHOD		rimp2
AUX_BASIS	rimp2-cc-pvtz
SOLVENT_METHOD	PCM
PURECART	11111
SYMMETRY	false
MEM_TOTAL	110000
SCF_CONVERGENCE = 6
THRESH=10
GUI = 2
$end

$solvent
dielectric 4.90
$end
--------------------------------------------------------------

             Standard Nuclear Orientation (Angstroms)
    I     Atom           X                Y                Z
 ----------------------------------------------------------------
    1      C      -0.4498600000    -0.1401880000    -0.2089290000
    2      S       0.2369400000     0.2566120000     1.3715710000
    3      C       1.6552400000     1.0754120000     0.6959710000
    4      C       0.4143400000     0.3589120000    -1.1943290000
    5      C       1.5576400000     1.0191120000    -0.7024290000
    6      H       0.2102400000     0.2411120000    -2.2688290000
    7      H       2.3205400000     1.4597120000    -1.3615290000
    8      C      -0.4498600000    -1.6183880000    -0.2089290000
    9      H      -0.4493600000    -1.6189880000    -1.2889290000
   10      H       0.5367400000    -2.0576880000    -0.2089290000
   11      H      -1.2628600000    -2.3293880000    -0.2088290000
   12      H       2.4178400000     1.5159120000     1.3470710000
 ----------------------------------------------------------------

   11    -590.3062200810      5.43e-07  Convergence criterion met
 Total energy in the final basis set =     -590.3062200810
        RIMP2         total energy =      -591.3205945712 a.u.

                    Orbital Energies (a.u.)
 --------------------------------------------------------------

 Alpha MOs
 -- Occupied --
-91.9742 -11.2933 -11.2590 -11.2529 -11.2457 -11.2147  -8.9749  -6.6556
 -6.6548  -6.6546  -1.1708  -1.0383  -0.9799  -0.9058  -0.7629  -0.7313
 -0.6728  -0.5966  -0.5799  -0.5544  -0.5401  -0.4795  -0.4681  -0.4258
 -0.3392  -0.3157

          Ground-State Mulliken Net Atomic Charges

     Atom                 Charge (a.u.)
  ----------------------------------------
      1 C                    -0.106783
      2 S                     0.012291
      3 C                    -0.155888
      4 C                    -0.094253
      5 C                    -0.242148
      6 H                     0.184873
      7 H                     0.187862
      8 C                    -0.345531
      9 H                     0.099420
     10 H                     0.120506
     11 H                     0.131548
     12 H                     0.208102
  ----------------------------------------
  Sum of atomic charges =     0.000000

                    Cartesian Multipole Moments
 -----------------------------------------------------------------
    Charge (ESU x 10^10)
                 0.0000
    Dipole Moment (Debye)
         X       2.3696      Y       0.0075      Z      -1.7168
       Tot       2.9262
    Quadrupole Moments (Debye-Ang)
        XX     -40.9308     XY       4.7428     YY     -43.8242
        XZ       0.9787     YZ       1.4123     ZZ     -41.2701

 Total job time:  11.51s(wall), 611.04s(cpu)
        *  Thank you very much for using Q-Chem.  Have a nice day.  *
