 Q-Chem 5.4, Q-Chem, Inc., Pleasanton, CA (2021)
 Q-Chem 5.4.0 for Intel X86 EM64T Linux

User input:
--------------------------------------------------------------
$molecule
0 1
C	-0.452513	-0.140188	-0.210119
S	0.234287	0.256612	1.370381
C	1.652587	1.075412	0.694781
C	0.411687	0.358912	-1.195519
C	1.554987	1.019112	-0.703619
H	0.207587	0.241112	-2.270019
H	2.317887	1.459712	-1.362719
C	-0.452513	-1.618388	-0.210119
H	0.087987	-1.618988	-1.145119
H	0.401887	-2.057688	0.283181
H	-1.156613	-2.329388	-0.616519
H	2.415187	1.515912	1.345881
$end

$rem
JOBTYPE		SP
EXCHANGE	HF
CORRELATION	pRIMP2
BASIS		cc-pvtz
METHOD		rimp2
AUX_BASIS	rimp2-cc-pvtz
SOLVENT_METHOD	PCM
PURECART	11111
SYMMETRY	false
MEM_TOTAL	110000
SCF_CONVERGENCE = 6
THRESH=10
GUI = 2
$end

$solvent
dielectric 4.90
$end
--------------------------------------------------------------

             Standard Nuclear Orientation (Angstroms)
    I     Atom           X                Y                Z
 ----------------------------------------------------------------
    1      C      -0.4525130000    -0.1401880000    -0.2101190000
    2      S       0.2342870000     0.2566120000     1.3703810000
    3      C       1.6525870000     1.0754120000     0.6947810000
    4      C       0.4116870000     0.3589120000    -1.1955190000
    5      C       1.5549870000     1.0191120000    -0.7036190000
    6      H       0.2075870000     0.2411120000    -2.2700190000
    7      H       2.3178870000     1.4597120000    -1.3627190000
    8      C      -0.4525130000    -1.6183880000    -0.2101190000
    9      H       0.0879870000    -1.6189880000    -1.1451190000
   10      H       0.4018870000    -2.0576880000     0.2831810000
   11      H      -1.1566130000    -2.3293880000    -0.6165190000
   12      H       2.4151870000     1.5159120000     1.3458810000
 ----------------------------------------------------------------

   11    -590.2952922056      7.05e-07  Convergence criterion met
 Total energy in the final basis set =     -590.2952922056
        RIMP2         total energy =      -591.3113973690 a.u.

                    Orbital Energies (a.u.)
 --------------------------------------------------------------

 Alpha MOs
 -- Occupied --
-91.9765 -11.2916 -11.2568 -11.2540 -11.2446 -11.2120  -8.9770  -6.6577
 -6.6569  -6.6567  -1.1721  -1.0386  -0.9807  -0.9035  -0.7638  -0.7315
 -0.6725  -0.5975  -0.5762  -0.5533  -0.5440  -0.4735  -0.4672  -0.4410
 -0.3369  -0.3067

          Ground-State Mulliken Net Atomic Charges

     Atom                 Charge (a.u.)
  ----------------------------------------
      1 C                    -0.113325
      2 S                     0.015290
      3 C                    -0.160439
      4 C                    -0.083978
      5 C                    -0.249821
      6 H                     0.186160
      7 H                     0.187095
      8 C                    -0.354788
      9 H                     0.116685
     10 H                     0.122877
     11 H                     0.125917
     12 H                     0.208327
  ----------------------------------------
  Sum of atomic charges =     0.000000

                    Cartesian Multipole Moments
 -----------------------------------------------------------------
    Charge (ESU x 10^10)
                 0.0000
    Dipole Moment (Debye)
         X       2.6190      Y      -0.0862      Z      -1.6310
       Tot       3.0866
    Quadrupole Moments (Debye-Ang)
        XX     -41.5486     XY       3.9497     YY     -44.1045
        XZ       1.2223     YZ       1.4034     ZZ     -40.8508

 Total job time:  11.69s(wall), 610.88s(cpu)
        *  Thank you very much for using Q-Chem.  Have a nice day.  *
