 Q-Chem 5.4, Q-Chem, Inc., Pleasanton, CA (2021)
 Q-Chem 5.4.0 for Intel X86 EM64T Linux

User input:
--------------------------------------------------------------
$molecule
0 1
C	-0.085125	-0.391505	-0.217353
S	0.052375	0.389695	1.363147
C	0.336775	2.002495	0.687547
C	0.087975	0.591395	-1.202753
C	0.317175	1.891595	-0.710853
H	0.047075	0.359295	-2.277253
H	0.470075	2.759095	-1.369953
C	-0.085125	-1.869705	-0.217353
H	-0.912825	-1.870305	0.476447
H	-0.719325	-2.309005	-0.973153
H	0.437575	-2.580705	0.405347
H	0.489575	2.869795	1.338647
$end

$rem
JOBTYPE		SP
EXCHANGE	HF
CORRELATION	pRIMP2
BASIS		cc-pvtz
METHOD		rimp2
AUX_BASIS	rimp2-cc-pvtz
SOLVENT_METHOD	PCM
PURECART	11111
SYMMETRY	false
MEM_TOTAL	110000
SCF_CONVERGENCE = 6
THRESH=10
GUI = 2
$end

$solvent
dielectric 4.90
$end
--------------------------------------------------------------

             Standard Nuclear Orientation (Angstroms)
    I     Atom           X                Y                Z
 ----------------------------------------------------------------
    1      C      -0.0851250000    -0.3915050000    -0.2173530000
    2      S       0.0523750000     0.3896950000     1.3631470000
    3      C       0.3367750000     2.0024950000     0.6875470000
    4      C       0.0879750000     0.5913950000    -1.2027530000
    5      C       0.3171750000     1.8915950000    -0.7108530000
    6      H       0.0470750000     0.3592950000    -2.2772530000
    7      H       0.4700750000     2.7590950000    -1.3699530000
    8      C      -0.0851250000    -1.8697050000    -0.2173530000
    9      H      -0.9128250000    -1.8703050000     0.4764470000
   10      H      -0.7193250000    -2.3090050000    -0.9731530000
   11      H       0.4375750000    -2.5807050000     0.4053470000
   12      H       0.4895750000     2.8697950000     1.3386470000
 ----------------------------------------------------------------

   10    -590.3701101854      5.94e-07  Convergence criterion met
 Total energy in the final basis set =     -590.3701101854
        RIMP2         total energy =      -591.3715255399 a.u.

                    Orbital Energies (a.u.)
 --------------------------------------------------------------

 Alpha MOs
 -- Occupied --
-91.9782 -11.2863 -11.2674 -11.2430 -11.2354 -11.2251  -8.9782  -6.6591
 -6.6586  -6.6580  -1.1574  -1.0397  -0.9722  -0.9194  -0.7569  -0.7208
 -0.6710  -0.5978  -0.5671  -0.5602  -0.5418  -0.4917  -0.4706  -0.4538
 -0.3464  -0.3041

          Ground-State Mulliken Net Atomic Charges

     Atom                 Charge (a.u.)
  ----------------------------------------
      1 C                     0.004300
      2 S                    -0.008984
      3 C                    -0.230601
      4 C                    -0.212473
      5 C                    -0.195925
      6 H                     0.184638
      7 H                     0.185400
      8 C                    -0.347541
      9 H                     0.124142
     10 H                     0.131438
     11 H                     0.160669
     12 H                     0.204937
  ----------------------------------------
  Sum of atomic charges =     0.000000

                    Cartesian Multipole Moments
 -----------------------------------------------------------------
    Charge (ESU x 10^10)
                -0.0000
    Dipole Moment (Debye)
         X      -0.3102      Y      -0.4590      Z      -0.6616
       Tot       0.8629
    Quadrupole Moments (Debye-Ang)
        XX     -47.6174     XY       2.5219     YY     -36.2146
        XZ       0.5805     YZ      -0.1845     ZZ     -42.0784

 Total job time:  10.99s(wall), 552.54s(cpu)
        *  Thank you very much for using Q-Chem.  Have a nice day.  *
