 Q-Chem 5.4, Q-Chem, Inc., Pleasanton, CA (2021)
 Q-Chem 5.4.0 for Intel X86 EM64T Linux

User input:
--------------------------------------------------------------
$molecule
0 1
C	-0.393451	-0.214208	-0.210225
S	0.214049	0.295792	1.370275
C	1.468549	1.348492	0.694675
C	0.370949	0.427392	-1.195625
C	1.382249	1.276092	-0.703725
H	0.190449	0.275892	-2.270125
H	2.057049	1.842392	-1.362825
C	-0.393451	-1.692408	-0.210225
H	-1.220451	-1.693008	-0.904825
H	0.240749	-2.131708	-0.966025
H	-0.915951	-2.403408	0.412675
H	2.143149	1.914692	1.345775
$end

$rem
JOBTYPE		SP
EXCHANGE	HF
CORRELATION	pRIMP2
BASIS		cc-pvtz
METHOD		rimp2
AUX_BASIS	rimp2-cc-pvtz
SOLVENT_METHOD	PCM
PURECART	11111
SYMMETRY	false
MEM_TOTAL	110000
SCF_CONVERGENCE = 6
THRESH=10
GUI = 2
$end

$solvent
dielectric 4.90
$end
--------------------------------------------------------------

             Standard Nuclear Orientation (Angstroms)
    I     Atom           X                Y                Z
 ----------------------------------------------------------------
    1      C      -0.3934510000    -0.2142080000    -0.2102250000
    2      S       0.2140490000     0.2957920000     1.3702750000
    3      C       1.4685490000     1.3484920000     0.6946750000
    4      C       0.3709490000     0.4273920000    -1.1956250000
    5      C       1.3822490000     1.2760920000    -0.7037250000
    6      H       0.1904490000     0.2758920000    -2.2701250000
    7      H       2.0570490000     1.8423920000    -1.3628250000
    8      C      -0.3934510000    -1.6924080000    -0.2102250000
    9      H      -1.2204510000    -1.6930080000    -0.9048250000
   10      H       0.2407490000    -2.1317080000    -0.9660250000
   11      H      -0.9159510000    -2.4034080000     0.4126750000
   12      H       2.1431490000     1.9146920000     1.3457750000
 ----------------------------------------------------------------

   11    -590.3199538481      5.39e-07  Convergence criterion met
 Total energy in the final basis set =     -590.3199538481
        RIMP2         total energy =      -591.3329333282 a.u.

                    Orbital Energies (a.u.)
 --------------------------------------------------------------

 Alpha MOs
 -- Occupied --
-91.9730 -11.2820 -11.2635 -11.2509 -11.2448 -11.2153  -8.9737  -6.6544
 -6.6536  -6.6533  -1.1634  -1.0360  -0.9757  -0.9121  -0.7590  -0.7264
 -0.6703  -0.5930  -0.5695  -0.5579  -0.5410  -0.4999  -0.4623  -0.4289
 -0.3438  -0.3002

          Ground-State Mulliken Net Atomic Charges

     Atom                 Charge (a.u.)
  ----------------------------------------
      1 C                    -0.058195
      2 S                     0.007246
      3 C                    -0.182736
      4 C                    -0.155216
      5 C                    -0.216431
      6 H                     0.184092
      7 H                     0.187018
      8 C                    -0.382103
      9 H                     0.119370
     10 H                     0.135978
     11 H                     0.156888
     12 H                     0.204088
  ----------------------------------------
  Sum of atomic charges =     0.000000

                    Cartesian Multipole Moments
 -----------------------------------------------------------------
    Charge (ESU x 10^10)
                 0.0000
    Dipole Moment (Debye)
         X       1.1518      Y      -0.1546      Z      -1.5652
       Tot       1.9495
    Quadrupole Moments (Debye-Ang)
        XX     -42.5075     XY       5.8339     YY     -42.0010
        XZ       0.3101     YZ       1.0612     ZZ     -41.2877

 Total job time:  11.06s(wall), 608.95s(cpu)
        *  Thank you very much for using Q-Chem.  Have a nice day.  *
