 Q-Chem 5.4, Q-Chem, Inc., Pleasanton, CA (2021)
 Q-Chem 5.4.0 for Intel X86 EM64T Linux

User input:
--------------------------------------------------------------
$molecule
0 1
C	-0.041431	-0.397395	-0.210225
S	0.027469	0.392805	1.370275
C	0.170169	2.024305	0.694675
C	0.045369	0.596805	-1.195625
C	0.160369	1.912005	-0.703725
H	0.024869	0.362105	-2.270125
H	0.237069	2.789605	-1.362825
C	-0.041431	-1.875595	-0.210225
H	-0.868431	-1.876195	-0.904825
H	0.592769	-2.314895	-0.966025
H	-0.563931	-2.586595	0.412675
H	0.246869	2.901605	1.345775
$end

$rem
JOBTYPE		SP
EXCHANGE	HF
CORRELATION	pRIMP2
BASIS		cc-pvtz
METHOD		rimp2
AUX_BASIS	rimp2-cc-pvtz
SOLVENT_METHOD	PCM
PURECART	11111
SYMMETRY	false
MEM_TOTAL	110000
SCF_CONVERGENCE = 6
THRESH=10
GUI = 2
$end

$solvent
dielectric 4.90
$end
--------------------------------------------------------------

             Standard Nuclear Orientation (Angstroms)
    I     Atom           X                Y                Z
 ----------------------------------------------------------------
    1      C      -0.0414310000    -0.3973950000    -0.2102250000
    2      S       0.0274690000     0.3928050000     1.3702750000
    3      C       0.1701690000     2.0243050000     0.6946750000
    4      C       0.0453690000     0.5968050000    -1.1956250000
    5      C       0.1603690000     1.9120050000    -0.7037250000
    6      H       0.0248690000     0.3621050000    -2.2701250000
    7      H       0.2370690000     2.7896050000    -1.3628250000
    8      C      -0.0414310000    -1.8755950000    -0.2102250000
    9      H      -0.8684310000    -1.8761950000    -0.9048250000
   10      H       0.5927690000    -2.3148950000    -0.9660250000
   11      H      -0.5639310000    -2.5865950000     0.4126750000
   12      H       0.2468690000     2.9016050000     1.3457750000
 ----------------------------------------------------------------

   10    -590.3717269402      6.12e-07  Convergence criterion met
 Total energy in the final basis set =     -590.3717269402
        RIMP2         total energy =      -591.3733784053 a.u.

                    Orbital Energies (a.u.)
 --------------------------------------------------------------

 Alpha MOs
 -- Occupied --
-91.9764 -11.2901 -11.2633 -11.2431 -11.2354 -11.2261  -8.9763  -6.6572
 -6.6566  -6.6561  -1.1565  -1.0394  -0.9715  -0.9197  -0.7535  -0.7229
 -0.6713  -0.5986  -0.5645  -0.5606  -0.5454  -0.4980  -0.4683  -0.4475
 -0.3454  -0.3023

          Ground-State Mulliken Net Atomic Charges

     Atom                 Charge (a.u.)
  ----------------------------------------
      1 C                     0.040793
      2 S                    -0.003273
      3 C                    -0.246801
      4 C                    -0.244606
      5 C                    -0.185294
      6 H                     0.180902
      7 H                     0.185913
      8 C                    -0.370875
      9 H                     0.132707
     10 H                     0.134150
     11 H                     0.173785
     12 H                     0.202599
  ----------------------------------------
  Sum of atomic charges =     0.000000

                    Cartesian Multipole Moments
 -----------------------------------------------------------------
    Charge (ESU x 10^10)
                -0.0000
    Dipole Moment (Debye)
         X      -0.4616      Y      -0.7292      Z      -1.5607
       Tot       1.7834
    Quadrupole Moments (Debye-Ang)
        XX     -47.8427     XY       2.0845     YY     -36.0507
        XZ      -0.2109     YZ       1.4917     ZZ     -41.8495

 Total job time:  12.94s(wall), 539.53s(cpu)
        *  Thank you very much for using Q-Chem.  Have a nice day.  *
