 Q-Chem 5.4, Q-Chem, Inc., Pleasanton, CA (2021)
 Q-Chem 5.4.0 for Intel X86 EM64T Linux

User input:
--------------------------------------------------------------
$molecule
0 1
C	-0.334104	-0.278098	-0.208929
S	0.175596	0.329602	1.371571
C	1.228296	1.584202	0.695971
C	0.307296	0.486502	-1.194329
C	1.155796	1.497902	-0.702429
H	0.155796	0.306002	-2.268829
H	1.721996	2.172802	-1.361529
C	-0.334104	-1.756298	-0.208929
H	-0.333604	-1.756898	-1.288929
H	0.652496	-2.195598	-0.208929
H	-1.147104	-2.467298	-0.208829
H	1.794296	2.258902	1.347071
$end

$rem
JOBTYPE		SP
EXCHANGE	HF
CORRELATION	pRIMP2
BASIS		cc-pvtz
METHOD		rimp2
AUX_BASIS	rimp2-cc-pvtz
SOLVENT_METHOD	PCM
PURECART	11111
SYMMETRY	false
MEM_TOTAL	110000
SCF_CONVERGENCE = 6
THRESH=10
GUI = 2
$end

$solvent
dielectric 4.90
$end
--------------------------------------------------------------

             Standard Nuclear Orientation (Angstroms)
    I     Atom           X                Y                Z
 ----------------------------------------------------------------
    1      C      -0.3341040000    -0.2780980000    -0.2089290000
    2      S       0.1755960000     0.3296020000     1.3715710000
    3      C       1.2282960000     1.5842020000     0.6959710000
    4      C       0.3072960000     0.4865020000    -1.1943290000
    5      C       1.1557960000     1.4979020000    -0.7024290000
    6      H       0.1557960000     0.3060020000    -2.2688290000
    7      H       1.7219960000     2.1728020000    -1.3615290000
    8      C      -0.3341040000    -1.7562980000    -0.2089290000
    9      H      -0.3336040000    -1.7568980000    -1.2889290000
   10      H       0.6524960000    -2.1955980000    -0.2089290000
   11      H      -1.1471040000    -2.4672980000    -0.2088290000
   12      H       1.7942960000     2.2589020000     1.3470710000
 ----------------------------------------------------------------

   10    -590.3451660328      7.54e-07  Convergence criterion met
 Total energy in the final basis set =     -590.3451660328
        RIMP2         total energy =      -591.3535079464 a.u.

                    Orbital Energies (a.u.)
 --------------------------------------------------------------

 Alpha MOs
 -- Occupied --
-91.9738 -11.2784 -11.2721 -11.2481 -11.2437 -11.2191  -8.9742  -6.6550
 -6.6543  -6.6540  -1.1620  -1.0368  -0.9753  -0.9132  -0.7576  -0.7264
 -0.6717  -0.5958  -0.5740  -0.5573  -0.5397  -0.4912  -0.4673  -0.4317
 -0.3431  -0.3134

          Ground-State Mulliken Net Atomic Charges

     Atom                 Charge (a.u.)
  ----------------------------------------
      1 C                    -0.023798
      2 S                    -0.000339
      3 C                    -0.200881
      4 C                    -0.180716
      5 C                    -0.209040
      6 H                     0.181276
      7 H                     0.188147
      8 C                    -0.353238
      9 H                     0.111083
     10 H                     0.136651
     11 H                     0.145849
     12 H                     0.205006
  ----------------------------------------
  Sum of atomic charges =     0.000000

                    Cartesian Multipole Moments
 -----------------------------------------------------------------
    Charge (ESU x 10^10)
                -0.0000
    Dipole Moment (Debye)
         X       1.2460      Y      -0.0883      Z      -1.7702
       Tot       2.1666
    Quadrupole Moments (Debye-Ang)
        XX     -43.9117     XY       4.8146     YY     -40.1960
        XZ       0.6441     YZ       1.8354     ZZ     -41.8070

 Total job time:  10.04s(wall), 561.61s(cpu)
        *  Thank you very much for using Q-Chem.  Have a nice day.  *
