 Q-Chem 5.4, Q-Chem, Inc., Pleasanton, CA (2021)
 Q-Chem 5.4.0 for Intel X86 EM64T Linux

User input:
--------------------------------------------------------------
$molecule
0 1
C	-0.224286	-0.350804	-0.212476
S	0.110714	0.368096	1.368024
C	0.802814	1.852396	0.692424
C	0.197314	0.553796	-1.197876
C	0.755214	1.750296	-0.705976
H	0.097714	0.340196	-2.272376
H	1.127414	2.548796	-1.365076
C	-0.224286	-1.829004	-0.212476
H	0.711314	-1.829604	-0.751976
H	0.269014	-2.268304	0.642024
H	-0.630886	-2.540004	-0.916476
H	1.174914	2.650596	1.343524
$end

$rem
JOBTYPE		SP
EXCHANGE	HF
CORRELATION	pRIMP2
BASIS		cc-pvtz
METHOD		rimp2
AUX_BASIS	rimp2-cc-pvtz
SOLVENT_METHOD	PCM
PURECART	11111
SYMMETRY	false
MEM_TOTAL	110000
SCF_CONVERGENCE = 6
THRESH=10
GUI = 2
$end

$solvent
dielectric 4.90
$end
--------------------------------------------------------------

             Standard Nuclear Orientation (Angstroms)
    I     Atom           X                Y                Z
 ----------------------------------------------------------------
    1      C      -0.2242860000    -0.3508040000    -0.2124760000
    2      S       0.1107140000     0.3680960000     1.3680240000
    3      C       0.8028140000     1.8523960000     0.6924240000
    4      C       0.1973140000     0.5537960000    -1.1978760000
    5      C       0.7552140000     1.7502960000    -0.7059760000
    6      H       0.0977140000     0.3401960000    -2.2723760000
    7      H       1.1274140000     2.5487960000    -1.3650760000
    8      C      -0.2242860000    -1.8290040000    -0.2124760000
    9      H       0.7113140000    -1.8296040000    -0.7519760000
   10      H       0.2690140000    -2.2683040000     0.6420240000
   11      H      -0.6308860000    -2.5400040000    -0.9164760000
   12      H       1.1749140000     2.6505960000     1.3435240000
 ----------------------------------------------------------------

   10    -590.3622551624      6.21e-07  Convergence criterion met
 Total energy in the final basis set =     -590.3622551624
        RIMP2         total energy =      -591.3656467803 a.u.

                    Orbital Energies (a.u.)
 --------------------------------------------------------------

 Alpha MOs
 -- Occupied --
-91.9793 -11.2873 -11.2653 -11.2433 -11.2332 -11.2252  -8.9791  -6.6599
 -6.6594  -6.6589  -1.1591  -1.0393  -0.9726  -0.9161  -0.7554  -0.7232
 -0.6712  -0.5970  -0.5667  -0.5539  -0.5459  -0.4911  -0.4733  -0.4545
 -0.3456  -0.2995

          Ground-State Mulliken Net Atomic Charges

     Atom                 Charge (a.u.)
  ----------------------------------------
      1 C                     0.013144
      2 S                     0.003058
      3 C                    -0.237248
      4 C                    -0.221495
      5 C                    -0.195390
      6 H                     0.178859
      7 H                     0.186462
      8 C                    -0.369037
      9 H                     0.145225
     10 H                     0.136328
     11 H                     0.156393
     12 H                     0.203701
  ----------------------------------------
  Sum of atomic charges =     0.000000

                    Cartesian Multipole Moments
 -----------------------------------------------------------------
    Charge (ESU x 10^10)
                -0.0000
    Dipole Moment (Debye)
         X       1.1344      Y      -0.6718      Z      -1.3968
       Tot       1.9208
    Quadrupole Moments (Debye-Ang)
        XX     -46.8712     XY       2.2776     YY     -37.9030
        XZ       0.4380     YZ       1.6643     ZZ     -41.5584

 Total job time:  10.21s(wall), 543.71s(cpu)
        *  Thank you very much for using Q-Chem.  Have a nice day.  *
