 Q-Chem 5.4, Q-Chem, Inc., Pleasanton, CA (2021)
 Q-Chem 5.4.0 for Intel X86 EM64T Linux

User input:
--------------------------------------------------------------
$molecule
0 1
C	-0.039559	-0.397395	-0.213580
S	0.029341	0.392805	1.366920
C	0.172041	2.024305	0.691320
C	0.047241	0.596805	-1.198980
C	0.162241	1.912005	-0.707080
H	0.026741	0.362105	-2.273480
H	0.238941	2.789605	-1.366180
C	-0.039559	-1.875595	-0.213580
H	-1.119559	-1.876195	-0.214080
H	-0.039559	-2.314895	-1.200180
H	-0.039459	-2.586595	0.599420
H	0.248741	2.901605	1.342420
$end

$rem
JOBTYPE		SP
EXCHANGE	HF
CORRELATION	pRIMP2
BASIS		cc-pvtz
METHOD		rimp2
AUX_BASIS	rimp2-cc-pvtz
SOLVENT_METHOD	PCM
PURECART	11111
SYMMETRY	false
MEM_TOTAL	110000
SCF_CONVERGENCE = 6
THRESH=10
GUI = 2
$end

$solvent
dielectric 4.90
$end
--------------------------------------------------------------

             Standard Nuclear Orientation (Angstroms)
    I     Atom           X                Y                Z
 ----------------------------------------------------------------
    1      C      -0.0395590000    -0.3973950000    -0.2135800000
    2      S       0.0293410000     0.3928050000     1.3669200000
    3      C       0.1720410000     2.0243050000     0.6913200000
    4      C       0.0472410000     0.5968050000    -1.1989800000
    5      C       0.1622410000     1.9120050000    -0.7070800000
    6      H       0.0267410000     0.3621050000    -2.2734800000
    7      H       0.2389410000     2.7896050000    -1.3661800000
    8      C      -0.0395590000    -1.8755950000    -0.2135800000
    9      H      -1.1195590000    -1.8761950000    -0.2140800000
   10      H      -0.0395590000    -2.3148950000    -1.2001800000
   11      H      -0.0394590000    -2.5865950000     0.5994200000
   12      H       0.2487410000     2.9016050000     1.3424200000
 ----------------------------------------------------------------

   10    -590.3725097235      6.39e-07  Convergence criterion met
 Total energy in the final basis set =     -590.3725097235
        RIMP2         total energy =      -591.3728046810 a.u.

                    Orbital Energies (a.u.)
 --------------------------------------------------------------

 Alpha MOs
 -- Occupied --
-91.9772 -11.2925 -11.2618 -11.2429 -11.2321 -11.2284  -8.9771  -6.6580
 -6.6575  -6.6569  -1.1567  -1.0407  -0.9709  -0.9202  -0.7543  -0.7217
 -0.6705  -0.5989  -0.5651  -0.5553  -0.5491  -0.4933  -0.4751  -0.4544
 -0.3462  -0.2976

          Ground-State Mulliken Net Atomic Charges

     Atom                 Charge (a.u.)
  ----------------------------------------
      1 C                     0.029117
      2 S                    -0.006318
      3 C                    -0.251080
      4 C                    -0.242540
      5 C                    -0.186598
      6 H                     0.181656
      7 H                     0.185559
      8 C                    -0.367155
      9 H                     0.141742
     10 H                     0.136672
     11 H                     0.175137
     12 H                     0.203809
  ----------------------------------------
  Sum of atomic charges =     0.000000

                    Cartesian Multipole Moments
 -----------------------------------------------------------------
    Charge (ESU x 10^10)
                -0.0000
    Dipole Moment (Debye)
         X      -0.6642      Y      -0.9014      Z      -1.0832
       Tot       1.5579
    Quadrupole Moments (Debye-Ang)
        XX     -48.2028     XY       2.2706     YY     -35.8894
        XZ       0.2159     YZ       0.5623     ZZ     -41.7967

 Total job time:  10.10s(wall), 551.29s(cpu)
        *  Thank you very much for using Q-Chem.  Have a nice day.  *
