 Q-Chem 5.4, Q-Chem, Inc., Pleasanton, CA (2021)
 Q-Chem 5.4.0 for Intel X86 EM64T Linux

User input:
--------------------------------------------------------------
$molecule
0 1
C	-0.453788	-0.140188	-0.211595
S	0.233012	0.256612	1.368905
C	1.651312	1.075412	0.693305
C	0.410412	0.358912	-1.196995
C	1.553712	1.019112	-0.705095
H	0.206312	0.241112	-2.271495
H	2.316612	1.459712	-1.364195
C	-0.453788	-1.618388	-0.211595
H	0.373912	-1.618988	-0.905395
H	0.180412	-2.057688	0.544205
H	-0.976488	-2.329388	-0.834295
H	2.413912	1.515912	1.344405
$end

$rem
JOBTYPE		SP
EXCHANGE	HF
CORRELATION	pRIMP2
BASIS		cc-pvtz
METHOD		rimp2
AUX_BASIS	rimp2-cc-pvtz
SOLVENT_METHOD	PCM
PURECART	11111
SYMMETRY	false
MEM_TOTAL	110000
SCF_CONVERGENCE = 6
THRESH=10
GUI = 2
$end

$solvent
dielectric 4.90
$end
--------------------------------------------------------------

             Standard Nuclear Orientation (Angstroms)
    I     Atom           X                Y                Z
 ----------------------------------------------------------------
    1      C      -0.4537880000    -0.1401880000    -0.2115950000
    2      S       0.2330120000     0.2566120000     1.3689050000
    3      C       1.6513120000     1.0754120000     0.6933050000
    4      C       0.4104120000     0.3589120000    -1.1969950000
    5      C       1.5537120000     1.0191120000    -0.7050950000
    6      H       0.2063120000     0.2411120000    -2.2714950000
    7      H       2.3166120000     1.4597120000    -1.3641950000
    8      C      -0.4537880000    -1.6183880000    -0.2115950000
    9      H       0.3739120000    -1.6189880000    -0.9053950000
   10      H       0.1804120000    -2.0576880000     0.5442050000
   11      H      -0.9764880000    -2.3293880000    -0.8342950000
   12      H       2.4139120000     1.5159120000     1.3444050000
 ----------------------------------------------------------------

   11    -590.2913292622      8.33e-07  Convergence criterion met
 Total energy in the final basis set =     -590.2913292622
        RIMP2         total energy =      -591.3085742065 a.u.

                    Orbital Energies (a.u.)
 --------------------------------------------------------------

 Alpha MOs
 -- Occupied --
-91.9791 -11.2901 -11.2565 -11.2532 -11.2448 -11.2121  -8.9794  -6.6601
 -6.6593  -6.6591  -1.1730  -1.0388  -0.9810  -0.9030  -0.7644  -0.7307
 -0.6729  -0.5972  -0.5720  -0.5579  -0.5425  -0.4783  -0.4615  -0.4512
 -0.3392  -0.2985

          Ground-State Mulliken Net Atomic Charges

     Atom                 Charge (a.u.)
  ----------------------------------------
      1 C                    -0.122978
      2 S                     0.023135
      3 C                    -0.166176
      4 C                    -0.077867
      5 C                    -0.253349
      6 H                     0.186698
      7 H                     0.187013
      8 C                    -0.359915
      9 H                     0.120589
     10 H                     0.126126
     11 H                     0.127856
     12 H                     0.208870
  ----------------------------------------
  Sum of atomic charges =     0.000000

                    Cartesian Multipole Moments
 -----------------------------------------------------------------
    Charge (ESU x 10^10)
                 0.0000
    Dipole Moment (Debye)
         X       2.6950      Y      -0.1626      Z      -1.4079
       Tot       3.0450
    Quadrupole Moments (Debye-Ang)
        XX     -42.0082     XY       3.6462     YY     -44.1683
        XZ       1.1318     YZ       1.3050     ZZ     -40.5612

 Total job time:  11.31s(wall), 618.61s(cpu)
        *  Thank you very much for using Q-Chem.  Have a nice day.  *
