 Q-Chem 5.4, Q-Chem, Inc., Pleasanton, CA (2021)
 Q-Chem 5.4.0 for Intel X86 EM64T Linux

User input:
--------------------------------------------------------------
$molecule
0 1
C	-0.256281	-0.329934	-0.209652
S	0.140119	0.357066	1.370848
C	0.958919	1.775366	0.695248
C	0.242519	0.534466	-1.195052
C	0.902619	1.677866	-0.703152
H	0.124719	0.330366	-2.269552
H	1.343019	2.440766	-1.362252
C	-0.256281	-1.808134	-0.209652
H	-0.950081	-1.808734	-1.037352
H	0.499519	-2.247434	-0.843852
H	-0.878981	-2.519134	0.313048
H	1.399219	2.538166	1.346348
$end

$rem
JOBTYPE		SP
EXCHANGE	HF
CORRELATION	pRIMP2
BASIS		cc-pvtz
METHOD		rimp2
AUX_BASIS	rimp2-cc-pvtz
SOLVENT_METHOD	PCM
PURECART	11111
SYMMETRY	false
MEM_TOTAL	110000
SCF_CONVERGENCE = 6
THRESH=10
GUI = 2
$end

$solvent
dielectric 4.90
$end
--------------------------------------------------------------

             Standard Nuclear Orientation (Angstroms)
    I     Atom           X                Y                Z
 ----------------------------------------------------------------
    1      C      -0.2562810000    -0.3299340000    -0.2096520000
    2      S       0.1401190000     0.3570660000     1.3708480000
    3      C       0.9589190000     1.7753660000     0.6952480000
    4      C       0.2425190000     0.5344660000    -1.1950520000
    5      C       0.9026190000     1.6778660000    -0.7031520000
    6      H       0.1247190000     0.3303660000    -2.2695520000
    7      H       1.3430190000     2.4407660000    -1.3622520000
    8      C      -0.2562810000    -1.8081340000    -0.2096520000
    9      H      -0.9500810000    -1.8087340000    -1.0373520000
   10      H       0.4995190000    -2.2474340000    -0.8438520000
   11      H      -0.8789810000    -2.5191340000     0.3130480000
   12      H       1.3992190000     2.5381660000     1.3463480000
 ----------------------------------------------------------------

   10    -590.3547646100      7.35e-07  Convergence criterion met
 Total energy in the final basis set =     -590.3547646100
        RIMP2         total energy =      -591.3609737151 a.u.

                    Orbital Energies (a.u.)
 --------------------------------------------------------------

 Alpha MOs
 -- Occupied --
-91.9741 -11.2801 -11.2708 -11.2438 -11.2421 -11.2215  -8.9744  -6.6552
 -6.6546  -6.6541  -1.1586  -1.0373  -0.9730  -0.9172  -0.7553  -0.7240
 -0.6709  -0.5961  -0.5671  -0.5602  -0.5415  -0.5008  -0.4646  -0.4379
 -0.3448  -0.3045

          Ground-State Mulliken Net Atomic Charges

     Atom                 Charge (a.u.)
  ----------------------------------------
      1 C                     0.004959
      2 S                    -0.001162
      3 C                    -0.219208
      4 C                    -0.221213
      5 C                    -0.192677
      6 H                     0.181293
      7 H                     0.186701
      8 C                    -0.370416
      9 H                     0.123495
     10 H                     0.140158
     11 H                     0.165307
     12 H                     0.202761
  ----------------------------------------
  Sum of atomic charges =     0.000000

                    Cartesian Multipole Moments
 -----------------------------------------------------------------
    Charge (ESU x 10^10)
                 0.0000
    Dipole Moment (Debye)
         X       0.3112      Y      -0.3790      Z      -1.6587
       Tot       1.7297
    Quadrupole Moments (Debye-Ang)
        XX     -45.4207     XY       5.0428     YY     -38.4808
        XZ       0.0672     YZ       1.5300     ZZ     -41.7894

 Total job time:  10.53s(wall), 570.49s(cpu)
        *  Thank you very much for using Q-Chem.  Have a nice day.  *
