 Q-Chem 5.4, Q-Chem, Inc., Pleasanton, CA (2021)
 Q-Chem 5.4.0 for Intel X86 EM64T Linux

User input:
--------------------------------------------------------------
$molecule
0 1
C	-0.175258	-0.368118	-0.209225
S	0.095842	0.377282	1.371275
C	0.655942	1.916282	0.695675
C	0.165942	0.569782	-1.194625
C	0.617342	1.810382	-0.702725
H	0.085342	0.348282	-2.269125
H	0.918642	2.638182	-1.361825
C	-0.175258	-1.846318	-0.209225
H	-0.714758	-1.846918	-1.144825
H	0.679242	-2.285618	-0.702525
H	-0.879258	-2.557318	0.197375
H	0.957042	2.743882	1.346775
$end

$rem
JOBTYPE		SP
EXCHANGE	HF
CORRELATION	pRIMP2
BASIS		cc-pvtz
METHOD		rimp2
AUX_BASIS	rimp2-cc-pvtz
SOLVENT_METHOD	PCM
PURECART	11111
SYMMETRY	false
MEM_TOTAL	110000
SCF_CONVERGENCE = 6
THRESH=10
GUI = 2
$end

$solvent
dielectric 4.90
$end
--------------------------------------------------------------

             Standard Nuclear Orientation (Angstroms)
    I     Atom           X                Y                Z
 ----------------------------------------------------------------
    1      C      -0.1752580000    -0.3681180000    -0.2092250000
    2      S       0.0958420000     0.3772820000     1.3712750000
    3      C       0.6559420000     1.9162820000     0.6956750000
    4      C       0.1659420000     0.5697820000    -1.1946250000
    5      C       0.6173420000     1.8103820000    -0.7027250000
    6      H       0.0853420000     0.3482820000    -2.2691250000
    7      H       0.9186420000     2.6381820000    -1.3618250000
    8      C      -0.1752580000    -1.8463180000    -0.2092250000
    9      H      -0.7147580000    -1.8469180000    -1.1448250000
   10      H       0.6792420000    -2.2856180000    -0.7025250000
   11      H      -0.8792580000    -2.5573180000     0.1973750000
   12      H       0.9570420000     2.7438820000     1.3467750000
 ----------------------------------------------------------------

   10    -590.3656999103      6.35e-07  Convergence criterion met
 Total energy in the final basis set =     -590.3656999103
        RIMP2         total energy =      -591.3695348827 a.u.

                    Orbital Energies (a.u.)
 --------------------------------------------------------------

 Alpha MOs
 -- Occupied --
-91.9745 -11.2840 -11.2687 -11.2434 -11.2409 -11.2232  -8.9747  -6.6555
 -6.6549  -6.6544  -1.1575  -1.0379  -0.9726  -0.9185  -0.7545  -0.7239
 -0.6716  -0.5972  -0.5684  -0.5606  -0.5406  -0.5007  -0.4661  -0.4384
 -0.3450  -0.3078

          Ground-State Mulliken Net Atomic Charges

     Atom                 Charge (a.u.)
  ----------------------------------------
      1 C                     0.021013
      2 S                    -0.004357
      3 C                    -0.227287
      4 C                    -0.229448
      5 C                    -0.192131
      6 H                     0.182214
      7 H                     0.186309
      8 C                    -0.364201
      9 H                     0.121825
     10 H                     0.134669
     11 H                     0.168226
     12 H                     0.203169
  ----------------------------------------
  Sum of atomic charges =     0.000000

                    Cartesian Multipole Moments
 -----------------------------------------------------------------
    Charge (ESU x 10^10)
                -0.0000
    Dipole Moment (Debye)
         X       0.1295      Y      -0.4153      Z      -1.7186
       Tot       1.7728
    Quadrupole Moments (Debye-Ang)
        XX     -46.5246     XY       3.8452     YY     -37.1341
        XZ      -0.0107     YZ       1.7775     ZZ     -41.9661

 Total job time:  10.59s(wall), 560.39s(cpu)
        *  Thank you very much for using Q-Chem.  Have a nice day.  *
