 Q-Chem 5.4, Q-Chem, Inc., Pleasanton, CA (2021)
 Q-Chem 5.4.0 for Intel X86 EM64T Linux

User input:
--------------------------------------------------------------
$molecule
0 1
C	-0.004825	-0.399361	-0.217210
S	-0.005025	0.393839	1.363290
C	-0.005025	2.031539	0.687690
C	-0.005025	0.598639	-1.202610
C	-0.005125	1.918839	-0.710710
H	-0.004925	0.362939	-2.277110
H	-0.005125	2.799839	-1.369810
C	-0.004825	-1.877561	-0.217210
H	1.009875	-1.878161	0.152690
H	-0.342325	-2.316861	0.709890
H	0.273075	-2.588561	-0.981210
H	-0.005125	2.912239	1.338790
$end

$rem
JOBTYPE		SP
EXCHANGE	HF
CORRELATION	pRIMP2
BASIS		cc-pvtz
METHOD		rimp2
AUX_BASIS	rimp2-cc-pvtz
SOLVENT_METHOD	PCM
PURECART	11111
SYMMETRY	false
MEM_TOTAL	110000
SCF_CONVERGENCE = 6
THRESH=10
GUI = 2
$end

$solvent
dielectric 4.90
$end
--------------------------------------------------------------

             Standard Nuclear Orientation (Angstroms)
    I     Atom           X                Y                Z
 ----------------------------------------------------------------
    1      C      -0.0048250000    -0.3993610000    -0.2172100000
    2      S      -0.0050250000     0.3938390000     1.3632900000
    3      C      -0.0050250000     2.0315390000     0.6876900000
    4      C      -0.0050250000     0.5986390000    -1.2026100000
    5      C      -0.0051250000     1.9188390000    -0.7107100000
    6      H      -0.0049250000     0.3629390000    -2.2771100000
    7      H      -0.0051250000     2.7998390000    -1.3698100000
    8      C      -0.0048250000    -1.8775610000    -0.2172100000
    9      H       1.0098750000    -1.8781610000     0.1526900000
   10      H      -0.3423250000    -2.3168610000     0.7098900000
   11      H       0.2730750000    -2.5885610000    -0.9812100000
   12      H      -0.0051250000     2.9122390000     1.3387900000
 ----------------------------------------------------------------

   10    -590.3742204738      6.33e-07  Convergence criterion met
 Total energy in the final basis set =     -590.3742204738
        RIMP2         total energy =      -591.3737038928 a.u.

                    Orbital Energies (a.u.)
 --------------------------------------------------------------

 Alpha MOs
 -- Occupied --
-91.9791 -11.2911 -11.2635 -11.2426 -11.2307 -11.2281  -8.9790  -6.6599
 -6.6595  -6.6588  -1.1573  -1.0412  -0.9713  -0.9197  -0.7553  -0.7213
 -0.6714  -0.5974  -0.5654  -0.5601  -0.5385  -0.4977  -0.4765  -0.4565
 -0.3469  -0.2991

          Ground-State Mulliken Net Atomic Charges

     Atom                 Charge (a.u.)
  ----------------------------------------
      1 C                     0.020343
      2 S                    -0.005622
      3 C                    -0.245742
      4 C                    -0.236296
      5 C                    -0.187330
      6 H                     0.183567
      7 H                     0.184848
      8 C                    -0.360324
      9 H                     0.137021
     10 H                     0.137100
     11 H                     0.167444
     12 H                     0.204990
  ----------------------------------------
  Sum of atomic charges =     0.000000

                    Cartesian Multipole Moments
 -----------------------------------------------------------------
    Charge (ESU x 10^10)
                -0.0000
    Dipole Moment (Debye)
         X       0.6859      Y      -0.7791      Z      -0.8069
       Tot       1.3147
    Quadrupole Moments (Debye-Ang)
        XX     -48.2118     XY      -1.4468     YY     -35.8065
        XZ      -0.4178     YZ       0.6003     ZZ     -41.9142

 Total job time:  11.77s(wall), 558.27s(cpu)
        *  Thank you very much for using Q-Chem.  Have a nice day.  *
