 Q-Chem 5.4, Q-Chem, Inc., Pleasanton, CA (2021)
 Q-Chem 5.4.0 for Intel X86 EM64T Linux

User input:
--------------------------------------------------------------
$molecule
0 1
C	-0.091945	-0.391505	-0.219723
S	0.045555	0.389695	1.360777
C	0.329955	2.002495	0.685177
C	0.081155	0.591395	-1.205123
C	0.310355	1.891595	-0.713223
H	0.040255	0.359295	-2.279623
H	0.463255	2.759095	-1.372323
C	-0.091945	-1.869705	-0.219723
H	0.447555	-1.870305	0.715877
H	-0.946445	-2.309005	0.273577
H	0.612055	-2.580705	-0.626323
H	0.482755	2.869795	1.336277
$end

$rem
JOBTYPE		SP
EXCHANGE	HF
CORRELATION	pRIMP2
BASIS		cc-pvtz
METHOD		rimp2
AUX_BASIS	rimp2-cc-pvtz
SOLVENT_METHOD	PCM
PURECART	11111
SYMMETRY	false
MEM_TOTAL	110000
SCF_CONVERGENCE = 6
THRESH=10
GUI = 2
$end

$solvent
dielectric 4.90
$end
--------------------------------------------------------------

             Standard Nuclear Orientation (Angstroms)
    I     Atom           X                Y                Z
 ----------------------------------------------------------------
    1      C      -0.0919450000    -0.3915050000    -0.2197230000
    2      S       0.0455550000     0.3896950000     1.3607770000
    3      C       0.3299550000     2.0024950000     0.6851770000
    4      C       0.0811550000     0.5913950000    -1.2051230000
    5      C       0.3103550000     1.8915950000    -0.7132230000
    6      H       0.0402550000     0.3592950000    -2.2796230000
    7      H       0.4632550000     2.7590950000    -1.3723230000
    8      C      -0.0919450000    -1.8697050000    -0.2197230000
    9      H       0.4475550000    -1.8703050000     0.7158770000
   10      H      -0.9464450000    -2.3090050000     0.2735770000
   11      H       0.6120550000    -2.5807050000    -0.6263230000
   12      H       0.4827550000     2.8697950000     1.3362770000
 ----------------------------------------------------------------

   10    -590.3690706136      5.93e-07  Convergence criterion met
 Total energy in the final basis set =     -590.3690706136
        RIMP2         total energy =      -591.3705660100 a.u.

                    Orbital Energies (a.u.)
 --------------------------------------------------------------

 Alpha MOs
 -- Occupied --
-91.9793 -11.2846 -11.2687 -11.2428 -11.2355 -11.2238  -8.9794  -6.6602
 -6.6597  -6.6591  -1.1583  -1.0401  -0.9728  -0.9181  -0.7580  -0.7206
 -0.6718  -0.5964  -0.5684  -0.5632  -0.5338  -0.5011  -0.4646  -0.4529
 -0.3464  -0.3077

          Ground-State Mulliken Net Atomic Charges

     Atom                 Charge (a.u.)
  ----------------------------------------
      1 C                     0.023406
      2 S                    -0.004268
      3 C                    -0.234403
      4 C                    -0.228217
      5 C                    -0.187288
      6 H                     0.185127
      7 H                     0.185923
      8 C                    -0.353962
      9 H                     0.119079
     10 H                     0.130777
     11 H                     0.158063
     12 H                     0.205763
  ----------------------------------------
  Sum of atomic charges =     0.000000

                    Cartesian Multipole Moments
 -----------------------------------------------------------------
    Charge (ESU x 10^10)
                 0.0000
    Dipole Moment (Debye)
         X       0.5569      Y      -0.3282      Z      -0.4939
       Tot       0.8135
    Quadrupole Moments (Debye-Ang)
        XX     -47.4561     XY       0.6598     YY     -36.3224
        XZ      -0.3183     YZ      -0.1800     ZZ     -42.2830

 Total job time:  11.78s(wall), 552.58s(cpu)
        *  Thank you very much for using Q-Chem.  Have a nice day.  *
