 Q-Chem 5.4, Q-Chem, Inc., Pleasanton, CA (2021)
 Q-Chem 5.4.0 for Intel X86 EM64T Linux

User input:
--------------------------------------------------------------
$molecule
0 1
C	-0.040200	-0.397395	-0.211737
S	0.028700	0.392805	1.368763
C	0.171400	2.024305	0.693163
C	0.046600	0.596805	-1.197137
C	0.161600	1.912005	-0.705237
H	0.026100	0.362105	-2.271637
H	0.238300	2.789605	-1.364337
C	-0.040200	-1.875595	-0.211737
H	-1.054900	-1.876195	-0.581637
H	0.297300	-2.314895	-1.138837
H	-0.318100	-2.586595	0.552263
H	0.248100	2.901605	1.344263
$end

$rem
JOBTYPE		SP
EXCHANGE	HF
CORRELATION	pRIMP2
BASIS		cc-pvtz
METHOD		rimp2
AUX_BASIS	rimp2-cc-pvtz
SOLVENT_METHOD	PCM
PURECART	11111
SYMMETRY	false
MEM_TOTAL	110000
SCF_CONVERGENCE = 6
THRESH=10
GUI = 2
$end

$solvent
dielectric 4.90
$end
--------------------------------------------------------------

             Standard Nuclear Orientation (Angstroms)
    I     Atom           X                Y                Z
 ----------------------------------------------------------------
    1      C      -0.0402000000    -0.3973950000    -0.2117370000
    2      S       0.0287000000     0.3928050000     1.3687630000
    3      C       0.1714000000     2.0243050000     0.6931630000
    4      C       0.0466000000     0.5968050000    -1.1971370000
    5      C       0.1616000000     1.9120050000    -0.7052370000
    6      H       0.0261000000     0.3621050000    -2.2716370000
    7      H       0.2383000000     2.7896050000    -1.3643370000
    8      C      -0.0402000000    -1.8755950000    -0.2117370000
    9      H      -1.0549000000    -1.8761950000    -0.5816370000
   10      H       0.2973000000    -2.3148950000    -1.1388370000
   11      H      -0.3181000000    -2.5865950000     0.5522630000
   12      H       0.2481000000     2.9016050000     1.3442630000
 ----------------------------------------------------------------

   10    -590.3719063267      6.38e-07  Convergence criterion met
 Total energy in the final basis set =     -590.3719063267
        RIMP2         total energy =      -591.3727929864 a.u.

                    Orbital Energies (a.u.)
 --------------------------------------------------------------

 Alpha MOs
 -- Occupied --
-91.9771 -11.2922 -11.2615 -11.2430 -11.2328 -11.2277  -8.9769  -6.6578
 -6.6573  -6.6567  -1.1565  -1.0403  -0.9710  -0.9200  -0.7537  -0.7222
 -0.6707  -0.5989  -0.5640  -0.5570  -0.5491  -0.4960  -0.4711  -0.4525
 -0.3459  -0.2984

          Ground-State Mulliken Net Atomic Charges

     Atom                 Charge (a.u.)
  ----------------------------------------
      1 C                     0.041123
      2 S                    -0.001913
      3 C                    -0.253763
      4 C                    -0.251580
      5 C                    -0.182786
      6 H                     0.179744
      7 H                     0.186120
      8 C                    -0.372002
      9 H                     0.138936
     10 H                     0.137249
     11 H                     0.176028
     12 H                     0.202844
  ----------------------------------------
  Sum of atomic charges =     0.000000

                    Cartesian Multipole Moments
 -----------------------------------------------------------------
    Charge (ESU x 10^10)
                -0.0000
    Dipole Moment (Debye)
         X      -0.6186      Y      -0.8894      Z      -1.3369
       Tot       1.7208
    Quadrupole Moments (Debye-Ang)
        XX     -48.0970     XY       2.2715     YY     -35.9711
        XZ      -0.0401     YZ       1.0462     ZZ     -41.7632

 Total job time:  10.95s(wall), 584.84s(cpu)
        *  Thank you very much for using Q-Chem.  Have a nice day.  *
