 Q-Chem 5.4, Q-Chem, Inc., Pleasanton, CA (2021)
 Q-Chem 5.4.0 for Intel X86 EM64T Linux

User input:
--------------------------------------------------------------
$molecule
0 1
C	-0.000815	-0.399361	-0.208929
S	-0.001015	0.393839	1.371571
C	-0.001015	2.031539	0.695971
C	-0.001015	0.598639	-1.194329
C	-0.001115	1.918839	-0.702429
H	-0.000915	0.362939	-2.268829
H	-0.001115	2.799839	-1.361529
C	-0.000815	-1.877561	-0.208929
H	-0.000315	-1.878161	-1.288929
H	0.985785	-2.316861	-0.208929
H	-0.813815	-2.588561	-0.208829
H	-0.001115	2.912239	1.347071
$end

$rem
JOBTYPE		SP
EXCHANGE	HF
CORRELATION	pRIMP2
BASIS		cc-pvtz
METHOD		rimp2
AUX_BASIS	rimp2-cc-pvtz
SOLVENT_METHOD	PCM
PURECART	11111
SYMMETRY	false
MEM_TOTAL	110000
SCF_CONVERGENCE = 6
THRESH=10
GUI = 2
$end

$solvent
dielectric 4.90
$end
--------------------------------------------------------------

             Standard Nuclear Orientation (Angstroms)
    I     Atom           X                Y                Z
 ----------------------------------------------------------------
    1      C      -0.0008150000    -0.3993610000    -0.2089290000
    2      S      -0.0010150000     0.3938390000     1.3715710000
    3      C      -0.0010150000     2.0315390000     0.6959710000
    4      C      -0.0010150000     0.5986390000    -1.1943290000
    5      C      -0.0011150000     1.9188390000    -0.7024290000
    6      H      -0.0009150000     0.3629390000    -2.2688290000
    7      H      -0.0011150000     2.7998390000    -1.3615290000
    8      C      -0.0008150000    -1.8775610000    -0.2089290000
    9      H      -0.0003150000    -1.8781610000    -1.2889290000
   10      H       0.9857850000    -2.3168610000    -0.2089290000
   11      H      -0.8138150000    -2.5885610000    -0.2088290000
   12      H      -0.0011150000     2.9122390000     1.3470710000
 ----------------------------------------------------------------

   10    -590.3738194253      5.73e-07  Convergence criterion met
 Total energy in the final basis set =     -590.3738194253
        RIMP2         total energy =      -591.3758962426 a.u.

                    Orbital Energies (a.u.)
 --------------------------------------------------------------

 Alpha MOs
 -- Occupied --
-91.9747 -11.2853 -11.2689 -11.2430 -11.2413 -11.2236  -8.9749  -6.6558
 -6.6552  -6.6547  -1.1570  -1.0380  -0.9729  -0.9194  -0.7545  -0.7244
 -0.6727  -0.5973  -0.5710  -0.5600  -0.5391  -0.5002  -0.4675  -0.4365
 -0.3450  -0.3131

          Ground-State Mulliken Net Atomic Charges

     Atom                 Charge (a.u.)
  ----------------------------------------
      1 C                     0.035032
      2 S                    -0.008897
      3 C                    -0.227819
      4 C                    -0.219867
      5 C                    -0.202892
      6 H                     0.183531
      7 H                     0.186794
      8 C                    -0.354048
      9 H                     0.117475
     10 H                     0.131431
     11 H                     0.154839
     12 H                     0.204421
  ----------------------------------------
  Sum of atomic charges =     0.000000

                    Cartesian Multipole Moments
 -----------------------------------------------------------------
    Charge (ESU x 10^10)
                -0.0000
    Dipole Moment (Debye)
         X       0.0183      Y      -0.3185      Z      -1.7879
       Tot       1.8162
    Quadrupole Moments (Debye-Ang)
        XX     -47.4524     XY       0.1940     YY     -35.9800
        XZ       0.0012     YZ       2.1272     ZZ     -42.1310

 Total job time:  10.23s(wall), 541.68s(cpu)
        *  Thank you very much for using Q-Chem.  Have a nice day.  *
