 Q-Chem 5.4, Q-Chem, Inc., Pleasanton, CA (2021)
 Q-Chem 5.4.0 for Intel X86 EM64T Linux

User input:
--------------------------------------------------------------
$molecule
0 1
C	-0.213733	-0.350804	-0.212630
S	0.121267	0.368096	1.367870
C	0.813367	1.852396	0.692270
C	0.207867	0.553796	-1.198030
C	0.765767	1.750296	-0.706130
H	0.108267	0.340196	-2.272530
H	1.137967	2.548796	-1.365230
C	-0.213733	-1.829004	-0.212630
H	-1.277233	-1.829604	-0.400730
H	-0.042333	-2.268304	-1.184230
H	-0.354733	-2.540004	0.588070
H	1.185467	2.650596	1.343370
$end

$rem
JOBTYPE		SP
EXCHANGE	HF
CORRELATION	pRIMP2
BASIS		cc-pvtz
METHOD		rimp2
AUX_BASIS	rimp2-cc-pvtz
SOLVENT_METHOD	PCM
PURECART	11111
SYMMETRY	false
MEM_TOTAL	110000
SCF_CONVERGENCE = 6
THRESH=10
GUI = 2
$end

$solvent
dielectric 4.90
$end
--------------------------------------------------------------

             Standard Nuclear Orientation (Angstroms)
    I     Atom           X                Y                Z
 ----------------------------------------------------------------
    1      C      -0.2137330000    -0.3508040000    -0.2126300000
    2      S       0.1212670000     0.3680960000     1.3678700000
    3      C       0.8133670000     1.8523960000     0.6922700000
    4      C       0.2078670000     0.5537960000    -1.1980300000
    5      C       0.7657670000     1.7502960000    -0.7061300000
    6      H       0.1082670000     0.3401960000    -2.2725300000
    7      H       1.1379670000     2.5487960000    -1.3652300000
    8      C      -0.2137330000    -1.8290040000    -0.2126300000
    9      H      -1.2772330000    -1.8296040000    -0.4007300000
   10      H      -0.0423330000    -2.2683040000    -1.1842300000
   11      H      -0.3547330000    -2.5400040000     0.5880700000
   12      H       1.1854670000     2.6505960000     1.3433700000
 ----------------------------------------------------------------

   10    -590.3566845157      6.53e-07  Convergence criterion met
 Total energy in the final basis set =     -590.3566845157
        RIMP2         total energy =      -591.3611479046 a.u.

                    Orbital Energies (a.u.)
 --------------------------------------------------------------

 Alpha MOs
 -- Occupied --
-91.9761 -11.2854 -11.2659 -11.2431 -11.2361 -11.2236  -8.9762  -6.6571
 -6.6565  -6.6560  -1.1574  -1.0386  -0.9717  -0.9187  -0.7551  -0.7222
 -0.6698  -0.5966  -0.5623  -0.5555  -0.5508  -0.4974  -0.4650  -0.4513
 -0.3455  -0.2966

          Ground-State Mulliken Net Atomic Charges

     Atom                 Charge (a.u.)
  ----------------------------------------
      1 C                     0.013214
      2 S                    -0.000223
      3 C                    -0.239984
      4 C                    -0.232354
      5 C                    -0.185458
      6 H                     0.181207
      7 H                     0.186760
      8 C                    -0.368622
      9 H                     0.133542
     10 H                     0.137829
     11 H                     0.170480
     12 H                     0.203609
  ----------------------------------------
  Sum of atomic charges =     0.000000

                    Cartesian Multipole Moments
 -----------------------------------------------------------------
    Charge (ESU x 10^10)
                -0.0000
    Dipole Moment (Debye)
         X      -0.2012      Y      -0.6694      Z      -1.2305
       Tot       1.4151
    Quadrupole Moments (Debye-Ang)
        XX     -46.4912     XY       4.9002     YY     -37.7246
        XZ       0.2638     YZ       0.7363     ZZ     -41.5970

 Total job time:  10.88s(wall), 577.94s(cpu)
        *  Thank you very much for using Q-Chem.  Have a nice day.  *
