 Q-Chem 5.4, Q-Chem, Inc., Pleasanton, CA (2021)
 Q-Chem 5.4.0 for Intel X86 EM64T Linux

User input:
--------------------------------------------------------------
$molecule
0 1
C	-0.219931	-0.350804	-0.208929
S	0.115069	0.368096	1.371571
C	0.807169	1.852396	0.695971
C	0.201669	0.553796	-1.194329
C	0.759569	1.750296	-0.702429
H	0.102069	0.340196	-2.268829
H	1.131769	2.548796	-1.361529
C	-0.219931	-1.829004	-0.208929
H	-0.219431	-1.829604	-1.288929
H	0.766669	-2.268304	-0.208929
H	-1.032931	-2.540004	-0.208829
H	1.179269	2.650596	1.347071
$end

$rem
JOBTYPE		SP
EXCHANGE	HF
CORRELATION	pRIMP2
BASIS		cc-pvtz
METHOD		rimp2
AUX_BASIS	rimp2-cc-pvtz
SOLVENT_METHOD	PCM
PURECART	11111
SYMMETRY	false
MEM_TOTAL	110000
SCF_CONVERGENCE = 6
THRESH=10
GUI = 2
$end

$solvent
dielectric 4.90
$end
--------------------------------------------------------------

             Standard Nuclear Orientation (Angstroms)
    I     Atom           X                Y                Z
 ----------------------------------------------------------------
    1      C      -0.2199310000    -0.3508040000    -0.2089290000
    2      S       0.1150690000     0.3680960000     1.3715710000
    3      C       0.8071690000     1.8523960000     0.6959710000
    4      C       0.2016690000     0.5537960000    -1.1943290000
    5      C       0.7595690000     1.7502960000    -0.7024290000
    6      H       0.1020690000     0.3401960000    -2.2688290000
    7      H       1.1317690000     2.5487960000    -1.3615290000
    8      C      -0.2199310000    -1.8290040000    -0.2089290000
    9      H      -0.2194310000    -1.8296040000    -1.2889290000
   10      H       0.7666690000    -2.2683040000    -0.2089290000
   11      H      -1.0329310000    -2.5400040000    -0.2088290000
   12      H       1.1792690000     2.6505960000     1.3470710000
 ----------------------------------------------------------------

   10    -590.3633392501      6.50e-07  Convergence criterion met
 Total energy in the final basis set =     -590.3633392501
        RIMP2         total energy =      -591.3678350138 a.u.

                    Orbital Energies (a.u.)
 --------------------------------------------------------------

 Alpha MOs
 -- Occupied --
-91.9742 -11.2806 -11.2721 -11.2440 -11.2427 -11.2219  -8.9745  -6.6553
 -6.6547  -6.6543  -1.1588  -1.0374  -0.9737  -0.9169  -0.7555  -0.7249
 -0.6720  -0.5968  -0.5719  -0.5589  -0.5390  -0.4974  -0.4672  -0.4347
 -0.3444  -0.3130

          Ground-State Mulliken Net Atomic Charges

     Atom                 Charge (a.u.)
  ----------------------------------------
      1 C                     0.014959
      2 S                    -0.005969
      3 C                    -0.219460
      4 C                    -0.216177
      5 C                    -0.198925
      6 H                     0.182054
      7 H                     0.187680
      8 C                    -0.356337
      9 H                     0.115653
     10 H                     0.136651
     11 H                     0.155535
     12 H                     0.204337
  ----------------------------------------
  Sum of atomic charges =     0.000000

                    Cartesian Multipole Moments
 -----------------------------------------------------------------
    Charge (ESU x 10^10)
                -0.0000
    Dipole Moment (Debye)
         X       0.6717      Y      -0.2322      Z      -1.7836
       Tot       1.9199
    Quadrupole Moments (Debye-Ang)
        XX     -45.9183     XY       3.6976     YY     -37.7888
        XZ       0.3999     YZ       2.0165     ZZ     -42.0236

 Total job time:  10.94s(wall), 564.86s(cpu)
        *  Thank you very much for using Q-Chem.  Have a nice day.  *
