 Q-Chem 5.4, Q-Chem, Inc., Pleasanton, CA (2021)
 Q-Chem 5.4.0 for Intel X86 EM64T Linux

User input:
--------------------------------------------------------------
$molecule
0 1
C	-0.094302	-0.391505	-0.218020
S	0.043198	0.389695	1.362480
C	0.327598	2.002495	0.686880
C	0.078798	0.591395	-1.203420
C	0.307998	1.891595	-0.711520
H	0.037898	0.359295	-2.277920
H	0.460898	2.759095	-1.370620
C	-0.094302	-1.869705	-0.218020
H	0.840698	-1.870305	0.322480
H	-0.587602	-2.309005	0.636380
H	0.312098	-2.580705	-0.922120
H	0.480398	2.869795	1.337980
$end

$rem
JOBTYPE		SP
EXCHANGE	HF
CORRELATION	pRIMP2
BASIS		cc-pvtz
METHOD		rimp2
AUX_BASIS	rimp2-cc-pvtz
SOLVENT_METHOD	PCM
PURECART	11111
SYMMETRY	false
MEM_TOTAL	110000
SCF_CONVERGENCE = 6
THRESH=10
GUI = 2
$end

$solvent
dielectric 4.90
$end
--------------------------------------------------------------

             Standard Nuclear Orientation (Angstroms)
    I     Atom           X                Y                Z
 ----------------------------------------------------------------
    1      C      -0.0943020000    -0.3915050000    -0.2180200000
    2      S       0.0431980000     0.3896950000     1.3624800000
    3      C       0.3275980000     2.0024950000     0.6868800000
    4      C       0.0787980000     0.5913950000    -1.2034200000
    5      C       0.3079980000     1.8915950000    -0.7115200000
    6      H       0.0378980000     0.3592950000    -2.2779200000
    7      H       0.4608980000     2.7590950000    -1.3706200000
    8      C      -0.0943020000    -1.8697050000    -0.2180200000
    9      H       0.8406980000    -1.8703050000     0.3224800000
   10      H      -0.5876020000    -2.3090050000     0.6363800000
   11      H       0.3120980000    -2.5807050000    -0.9221200000
   12      H       0.4803980000     2.8697950000     1.3379800000
 ----------------------------------------------------------------

   10    -590.3724551256      6.35e-07  Convergence criterion met
 Total energy in the final basis set =     -590.3724551256
        RIMP2         total energy =      -591.3723810952 a.u.

                    Orbital Energies (a.u.)
 --------------------------------------------------------------

 Alpha MOs
 -- Occupied --
-91.9784 -11.2897 -11.2652 -11.2427 -11.2321 -11.2273  -8.9784  -6.6594
 -6.6589  -6.6582  -1.1579  -1.0410  -0.9716  -0.9188  -0.7561  -0.7212
 -0.6716  -0.5970  -0.5665  -0.5617  -0.5351  -0.5002  -0.4736  -0.4558
 -0.3470  -0.3005

          Ground-State Mulliken Net Atomic Charges

     Atom                 Charge (a.u.)
  ----------------------------------------
      1 C                     0.027044
      2 S                    -0.004609
      3 C                    -0.244368
      4 C                    -0.249167
      5 C                    -0.181187
      6 H                     0.183678
      7 H                     0.185829
      8 C                    -0.358343
      9 H                     0.134963
     10 H                     0.135719
     11 H                     0.165557
     12 H                     0.204885
  ----------------------------------------
  Sum of atomic charges =     0.000000

                    Cartesian Multipole Moments
 -----------------------------------------------------------------
    Charge (ESU x 10^10)
                -0.0000
    Dipole Moment (Debye)
         X       0.8153      Y      -0.6833      Z      -0.7145
       Tot       1.2815
    Quadrupole Moments (Debye-Ang)
        XX     -47.9354     XY       0.2017     YY     -36.1413
        XZ      -0.3806     YZ       0.3591     ZZ     -42.0281

 Total job time:  11.52s(wall), 586.23s(cpu)
        *  Thank you very much for using Q-Chem.  Have a nice day.  *
