 Q-Chem 5.4, Q-Chem, Inc., Pleasanton, CA (2021)
 Q-Chem 5.4.0 for Intel X86 EM64T Linux

User input:
--------------------------------------------------------------
$molecule
0 1
C	-0.453321	-0.140188	-0.218020
S	0.233479	0.256612	1.362480
C	1.651779	1.075412	0.686880
C	0.410879	0.358912	-1.203420
C	1.554179	1.019112	-0.711520
H	0.206779	0.241112	-2.277920
H	2.317079	1.459712	-1.370620
C	-0.453321	-1.618388	-0.218020
H	0.481679	-1.618988	0.322480
H	-0.946621	-2.057688	0.636380
H	-0.046921	-2.329388	-0.922120
H	2.414379	1.515912	1.337980
$end

$rem
JOBTYPE		SP
EXCHANGE	HF
CORRELATION	pRIMP2
BASIS		cc-pvtz
METHOD		rimp2
AUX_BASIS	rimp2-cc-pvtz
SOLVENT_METHOD	PCM
PURECART	11111
SYMMETRY	false
MEM_TOTAL	110000
SCF_CONVERGENCE = 6
THRESH=10
GUI = 2
$end

$solvent
dielectric 4.90
$end
--------------------------------------------------------------

             Standard Nuclear Orientation (Angstroms)
    I     Atom           X                Y                Z
 ----------------------------------------------------------------
    1      C      -0.4533210000    -0.1401880000    -0.2180200000
    2      S       0.2334790000     0.2566120000     1.3624800000
    3      C       1.6517790000     1.0754120000     0.6868800000
    4      C       0.4108790000     0.3589120000    -1.2034200000
    5      C       1.5541790000     1.0191120000    -0.7115200000
    6      H       0.2067790000     0.2411120000    -2.2779200000
    7      H       2.3170790000     1.4597120000    -1.3706200000
    8      C      -0.4533210000    -1.6183880000    -0.2180200000
    9      H       0.4816790000    -1.6189880000     0.3224800000
   10      H      -0.9466210000    -2.0576880000     0.6363800000
   11      H      -0.0469210000    -2.3293880000    -0.9221200000
   12      H       2.4143790000     1.5159120000     1.3379800000
 ----------------------------------------------------------------

   11    -590.2974715723      3.99e-07  Convergence criterion met
 Total energy in the final basis set =     -590.2974715723
        RIMP2         total energy =      -591.3114808237 a.u.

                    Orbital Energies (a.u.)
 --------------------------------------------------------------

 Alpha MOs
 -- Occupied --
-91.9724 -11.2927 -11.2597 -11.2549 -11.2464 -11.2167  -8.9741  -6.6547
 -6.6540  -6.6537  -1.1743  -1.0405  -0.9808  -0.9044  -0.7672  -0.7286
 -0.6745  -0.5923  -0.5765  -0.5672  -0.5272  -0.4992  -0.4641  -0.4391
 -0.3461  -0.2981

          Ground-State Mulliken Net Atomic Charges

     Atom                 Charge (a.u.)
  ----------------------------------------
      1 C                    -0.094838
      2 S                    -0.003410
      3 C                    -0.163275
      4 C                    -0.108740
      5 C                    -0.235855
      6 H                     0.188138
      7 H                     0.187569
      8 C                    -0.357608
      9 H                     0.119804
     10 H                     0.110154
     11 H                     0.148972
     12 H                     0.209088
  ----------------------------------------
  Sum of atomic charges =     0.000000

                    Cartesian Multipole Moments
 -----------------------------------------------------------------
    Charge (ESU x 10^10)
                 0.0000
    Dipole Moment (Debye)
         X       2.7591      Y      -0.2176      Z      -0.9443
       Tot       2.9243
    Quadrupole Moments (Debye-Ang)
        XX     -41.9224     XY       3.6582     YY     -43.7656
        XZ       0.3215     YZ       0.1325     ZZ     -41.1772

 Total job time:  12.01s(wall), 627.33s(cpu)
        *  Thank you very much for using Q-Chem.  Have a nice day.  *
