 Q-Chem 5.4, Q-Chem, Inc., Pleasanton, CA (2021)
 Q-Chem 5.4.0 for Intel X86 EM64T Linux

User input:
--------------------------------------------------------------
$molecule
0 1
C	-0.258104	-0.329934	-0.208958
S	0.138296	0.357066	1.371542
C	0.957096	1.775366	0.695942
C	0.240696	0.534466	-1.194358
C	0.900796	1.677866	-0.702458
H	0.122896	0.330366	-2.268858
H	1.341196	2.440766	-1.361558
C	-0.258104	-1.808134	-0.208958
H	-0.627004	-1.808734	-1.223958
H	0.668996	-2.247434	-0.546358
H	-1.022004	-2.519134	0.069242
H	1.397396	2.538166	1.347042
$end

$rem
JOBTYPE		SP
EXCHANGE	HF
CORRELATION	pRIMP2
BASIS		cc-pvtz
METHOD		rimp2
AUX_BASIS	rimp2-cc-pvtz
SOLVENT_METHOD	PCM
PURECART	11111
SYMMETRY	false
MEM_TOTAL	110000
SCF_CONVERGENCE = 6
THRESH=10
GUI = 2
$end

$solvent
dielectric 4.90
$end
--------------------------------------------------------------

             Standard Nuclear Orientation (Angstroms)
    I     Atom           X                Y                Z
 ----------------------------------------------------------------
    1      C      -0.2581040000    -0.3299340000    -0.2089580000
    2      S       0.1382960000     0.3570660000     1.3715420000
    3      C       0.9570960000     1.7753660000     0.6959420000
    4      C       0.2406960000     0.5344660000    -1.1943580000
    5      C       0.9007960000     1.6778660000    -0.7024580000
    6      H       0.1228960000     0.3303660000    -2.2688580000
    7      H       1.3411960000     2.4407660000    -1.3615580000
    8      C      -0.2581040000    -1.8081340000    -0.2089580000
    9      H      -0.6270040000    -1.8087340000    -1.2239580000
   10      H       0.6689960000    -2.2474340000    -0.5463580000
   11      H      -1.0220040000    -2.5191340000     0.0692420000
   12      H       1.3973960000     2.5381660000     1.3470420000
 ----------------------------------------------------------------

   10    -590.3575313556      7.16e-07  Convergence criterion met
 Total energy in the final basis set =     -590.3575313556
        RIMP2         total energy =      -591.3634118532 a.u.

                    Orbital Energies (a.u.)
 --------------------------------------------------------------

 Alpha MOs
 -- Occupied --
-91.9737 -11.2786 -11.2731 -11.2447 -11.2433 -11.2213  -8.9740  -6.6549
 -6.6542  -6.6538  -1.1591  -1.0371  -0.9737  -0.9166  -0.7557  -0.7248
 -0.6716  -0.5963  -0.5709  -0.5596  -0.5392  -0.4988  -0.4660  -0.4337
 -0.3446  -0.3105

          Ground-State Mulliken Net Atomic Charges

     Atom                 Charge (a.u.)
  ----------------------------------------
      1 C                     0.001866
      2 S                    -0.003581
      3 C                    -0.213663
      4 C                    -0.209580
      5 C                    -0.200422
      6 H                     0.182253
      7 H                     0.187114
      8 C                    -0.360587
      9 H                     0.115028
     10 H                     0.137535
     11 H                     0.160130
     12 H                     0.203906
  ----------------------------------------
  Sum of atomic charges =     0.000000

                    Cartesian Multipole Moments
 -----------------------------------------------------------------
    Charge (ESU x 10^10)
                 0.0000
    Dipole Moment (Debye)
         X       0.5883      Y      -0.2366      Z      -1.7577
       Tot       1.8686
    Quadrupole Moments (Debye-Ang)
        XX     -45.2671     XY       4.6748     YY     -38.4664
        XZ       0.2264     YZ       1.8158     ZZ     -41.9465

 Total job time:  10.26s(wall), 546.73s(cpu)
        *  Thank you very much for using Q-Chem.  Have a nice day.  *
