 Q-Chem 5.4, Q-Chem, Inc., Pleasanton, CA (2021)
 Q-Chem 5.4.0 for Intel X86 EM64T Linux

User input:
--------------------------------------------------------------
$molecule
0 1
C	-0.220880	-0.350804	-0.209169
S	0.114120	0.368096	1.371331
C	0.806220	1.852396	0.695731
C	0.200720	0.553796	-1.194569
C	0.758620	1.750296	-0.702669
H	0.101120	0.340196	-2.269069
H	1.130820	2.548796	-1.361769
C	-0.220880	-1.829004	-0.209169
H	-0.032780	-1.829604	-1.272669
H	0.750720	-2.268304	-0.037769
H	-1.021580	-2.540004	-0.350169
H	1.178320	2.650596	1.346831
$end

$rem
JOBTYPE		SP
EXCHANGE	HF
CORRELATION	pRIMP2
BASIS		cc-pvtz
METHOD		rimp2
AUX_BASIS	rimp2-cc-pvtz
SOLVENT_METHOD	PCM
PURECART	11111
SYMMETRY	false
MEM_TOTAL	110000
SCF_CONVERGENCE = 6
THRESH=10
GUI = 2
$end

$solvent
dielectric 4.90
$end
--------------------------------------------------------------

             Standard Nuclear Orientation (Angstroms)
    I     Atom           X                Y                Z
 ----------------------------------------------------------------
    1      C      -0.2208800000    -0.3508040000    -0.2091690000
    2      S       0.1141200000     0.3680960000     1.3713310000
    3      C       0.8062200000     1.8523960000     0.6957310000
    4      C       0.2007200000     0.5537960000    -1.1945690000
    5      C       0.7586200000     1.7502960000    -0.7026690000
    6      H       0.1011200000     0.3401960000    -2.2690690000
    7      H       1.1308200000     2.5487960000    -1.3617690000
    8      C      -0.2208800000    -1.8290040000    -0.2091690000
    9      H      -0.0327800000    -1.8296040000    -1.2726690000
   10      H       0.7507200000    -2.2683040000    -0.0377690000
   11      H      -1.0215800000    -2.5400040000    -0.3501690000
   12      H       1.1783200000     2.6505960000     1.3468310000
 ----------------------------------------------------------------

   10    -590.3630340269      6.46e-07  Convergence criterion met
 Total energy in the final basis set =     -590.3630340269
        RIMP2         total energy =      -591.3674642846 a.u.

                    Orbital Energies (a.u.)
 --------------------------------------------------------------

 Alpha MOs
 -- Occupied --
-91.9747 -11.2810 -11.2717 -11.2435 -11.2424 -11.2219  -8.9749  -6.6558
 -6.6552  -6.6547  -1.1588  -1.0374  -0.9737  -0.9166  -0.7556  -0.7249
 -0.6720  -0.5968  -0.5717  -0.5582  -0.5397  -0.4960  -0.4677  -0.4366
 -0.3442  -0.3124

          Ground-State Mulliken Net Atomic Charges

     Atom                 Charge (a.u.)
  ----------------------------------------
      1 C                     0.016920
      2 S                    -0.005661
      3 C                    -0.221157
      4 C                    -0.217569
      5 C                    -0.197672
      6 H                     0.181606
      7 H                     0.187741
      8 C                    -0.358161
      9 H                     0.119149
     10 H                     0.137955
     11 H                     0.152622
     12 H                     0.204228
  ----------------------------------------
  Sum of atomic charges =     0.000000

                    Cartesian Multipole Moments
 -----------------------------------------------------------------
    Charge (ESU x 10^10)
                -0.0000
    Dipole Moment (Debye)
         X       0.7814      Y      -0.2511      Z      -1.7674
       Tot       1.9487
    Quadrupole Moments (Debye-Ang)
        XX     -46.0096     XY       3.4197     YY     -37.8380
        XZ       0.5135     YZ       2.0385     ZZ     -41.9720

 Total job time:  10.54s(wall), 548.15s(cpu)
        *  Thank you very much for using Q-Chem.  Have a nice day.  *
