 Q-Chem 5.4, Q-Chem, Inc., Pleasanton, CA (2021)
 Q-Chem 5.4.0 for Intel X86 EM64T Linux

User input:
--------------------------------------------------------------
$molecule
0 1
C	-0.444612	-0.140188	-0.210927
S	0.242188	0.256612	1.369573
C	1.660488	1.075412	0.693973
C	0.419588	0.358912	-1.196327
C	1.562888	1.019112	-0.704427
H	0.215488	0.241112	-2.270827
H	2.325788	1.459712	-1.363527
C	-0.444612	-1.618388	-0.210927
H	-1.379612	-1.618988	-0.751427
H	0.048688	-2.057688	-1.065327
H	-0.851012	-2.329388	0.493173
H	2.423088	1.515912	1.345073
$end

$rem
JOBTYPE		SP
EXCHANGE	HF
CORRELATION	pRIMP2
BASIS		cc-pvtz
METHOD		rimp2
AUX_BASIS	rimp2-cc-pvtz
SOLVENT_METHOD	PCM
PURECART	11111
SYMMETRY	false
MEM_TOTAL	110000
SCF_CONVERGENCE = 6
THRESH=10
GUI = 2
$end

$solvent
dielectric 4.90
$end
--------------------------------------------------------------

             Standard Nuclear Orientation (Angstroms)
    I     Atom           X                Y                Z
 ----------------------------------------------------------------
    1      C      -0.4446120000    -0.1401880000    -0.2109270000
    2      S       0.2421880000     0.2566120000     1.3695730000
    3      C       1.6604880000     1.0754120000     0.6939730000
    4      C       0.4195880000     0.3589120000    -1.1963270000
    5      C       1.5628880000     1.0191120000    -0.7044270000
    6      H       0.2154880000     0.2411120000    -2.2708270000
    7      H       2.3257880000     1.4597120000    -1.3635270000
    8      C      -0.4446120000    -1.6183880000    -0.2109270000
    9      H      -1.3796120000    -1.6189880000    -0.7514270000
   10      H       0.0486880000    -2.0576880000    -1.0653270000
   11      H      -0.8510120000    -2.3293880000     0.4931730000
   12      H       2.4230880000     1.5159120000     1.3450730000
 ----------------------------------------------------------------

   11    -590.2938181538      7.47e-07  Convergence criterion met
 Total energy in the final basis set =     -590.2938181538
        RIMP2         total energy =      -591.3100976801 a.u.

                    Orbital Energies (a.u.)
 --------------------------------------------------------------

 Alpha MOs
 -- Occupied --
-91.9729 -11.2906 -11.2581 -11.2498 -11.2454 -11.2112  -8.9738  -6.6545
 -6.6535  -6.6534  -1.1675  -1.0358  -0.9782  -0.9085  -0.7623  -0.7290
 -0.6705  -0.5918  -0.5715  -0.5563  -0.5409  -0.5000  -0.4612  -0.4219
 -0.3427  -0.2961

          Ground-State Mulliken Net Atomic Charges

     Atom                 Charge (a.u.)
  ----------------------------------------
      1 C                    -0.107806
      2 S                     0.014609
      3 C                    -0.157287
      4 C                    -0.105050
      5 C                    -0.234870
      6 H                     0.187527
      7 H                     0.186628
      8 C                    -0.390287
      9 H                     0.120022
     10 H                     0.126635
     11 H                     0.153995
     12 H                     0.205885
  ----------------------------------------
  Sum of atomic charges =     0.000000

                    Cartesian Multipole Moments
 -----------------------------------------------------------------
    Charge (ESU x 10^10)
                 0.0000
    Dipole Moment (Debye)
         X       1.7637      Y      -0.1208      Z      -1.4597
       Tot       2.2926
    Quadrupole Moments (Debye-Ang)
        XX     -41.1346     XY       5.5041     YY     -43.8319
        XZ       0.4778     YZ       0.6700     ZZ     -40.8077

 Total job time:  11.06s(wall), 594.91s(cpu)
        *  Thank you very much for using Q-Chem.  Have a nice day.  *
