 Q-Chem 5.4, Q-Chem, Inc., Pleasanton, CA (2021)
 Q-Chem 5.4.0 for Intel X86 EM64T Linux

User input:
--------------------------------------------------------------
$molecule
0 1
C	-0.086275	-0.391505	-0.210225
S	0.051225	0.389695	1.370275
C	0.335625	2.002495	0.694675
C	0.086825	0.591395	-1.195625
C	0.316025	1.891595	-0.703725
H	0.045925	0.359295	-2.270125
H	0.468925	2.759095	-1.362825
C	-0.086275	-1.869705	-0.210225
H	-0.913275	-1.870305	-0.904825
H	0.547925	-2.309005	-0.966025
H	-0.608775	-2.580705	0.412675
H	0.488425	2.869795	1.345775
$end

$rem
JOBTYPE		SP
EXCHANGE	HF
CORRELATION	pRIMP2
BASIS		cc-pvtz
METHOD		rimp2
AUX_BASIS	rimp2-cc-pvtz
SOLVENT_METHOD	PCM
PURECART	11111
SYMMETRY	false
MEM_TOTAL	110000
SCF_CONVERGENCE = 6
THRESH=10
GUI = 2
$end

$solvent
dielectric 4.90
$end
--------------------------------------------------------------

             Standard Nuclear Orientation (Angstroms)
    I     Atom           X                Y                Z
 ----------------------------------------------------------------
    1      C      -0.0862750000    -0.3915050000    -0.2102250000
    2      S       0.0512250000     0.3896950000     1.3702750000
    3      C       0.3356250000     2.0024950000     0.6946750000
    4      C       0.0868250000     0.5913950000    -1.1956250000
    5      C       0.3160250000     1.8915950000    -0.7037250000
    6      H       0.0459250000     0.3592950000    -2.2701250000
    7      H       0.4689250000     2.7590950000    -1.3628250000
    8      C      -0.0862750000    -1.8697050000    -0.2102250000
    9      H      -0.9132750000    -1.8703050000    -0.9048250000
   10      H       0.5479250000    -2.3090050000    -0.9660250000
   11      H      -0.6087750000    -2.5807050000     0.4126750000
   12      H       0.4884250000     2.8697950000     1.3457750000
 ----------------------------------------------------------------

   10    -590.3700682000      6.14e-07  Convergence criterion met
 Total energy in the final basis set =     -590.3700682000
        RIMP2         total energy =      -591.3721613758 a.u.

                    Orbital Energies (a.u.)
 --------------------------------------------------------------

 Alpha MOs
 -- Occupied --
-91.9761 -11.2893 -11.2639 -11.2431 -11.2360 -11.2256  -8.9760  -6.6569
 -6.6563  -6.6558  -1.1565  -1.0392  -0.9716  -0.9196  -0.7536  -0.7229
 -0.6711  -0.5983  -0.5643  -0.5607  -0.5450  -0.4991  -0.4674  -0.4467
 -0.3453  -0.3022

          Ground-State Mulliken Net Atomic Charges

     Atom                 Charge (a.u.)
  ----------------------------------------
      1 C                     0.038261
      2 S                    -0.002385
      3 C                    -0.245070
      4 C                    -0.246773
      5 C                    -0.183490
      6 H                     0.180699
      7 H                     0.186081
      8 C                    -0.370743
      9 H                     0.131858
     10 H                     0.135120
     11 H                     0.173976
     12 H                     0.202465
  ----------------------------------------
  Sum of atomic charges =     0.000000

                    Cartesian Multipole Moments
 -----------------------------------------------------------------
    Charge (ESU x 10^10)
                 0.0000
    Dipole Moment (Debye)
         X      -0.3614      Y      -0.7001      Z      -1.5641
       Tot       1.7514
    Quadrupole Moments (Debye-Ang)
        XX     -47.5994     XY       2.8345     YY     -36.2716
        XZ      -0.1595     YZ       1.4772     ZZ     -41.8425

 Total job time:  39.10s(wall), 576.29s(cpu)
        *  Thank you very much for using Q-Chem.  Have a nice day.  *
