 Q-Chem 5.4, Q-Chem, Inc., Pleasanton, CA (2021)
 Q-Chem 5.4.0 for Intel X86 EM64T Linux

User input:
--------------------------------------------------------------
$molecule
0 1
C	-0.402372	-0.214208	-0.212476
S	0.205128	0.295792	1.368024
C	1.459628	1.348492	0.692424
C	0.362028	0.427392	-1.197876
C	1.373328	1.276092	-0.705976
H	0.181528	0.275892	-2.272376
H	2.048128	1.842392	-1.365076
C	-0.402372	-1.692408	-0.212476
H	0.533228	-1.693008	-0.751976
H	0.090928	-2.131708	0.642024
H	-0.808972	-2.403408	-0.916476
H	2.134228	1.914692	1.343524
$end

$rem
JOBTYPE		SP
EXCHANGE	HF
CORRELATION	pRIMP2
BASIS		cc-pvtz
METHOD		rimp2
AUX_BASIS	rimp2-cc-pvtz
SOLVENT_METHOD	PCM
PURECART	11111
SYMMETRY	false
MEM_TOTAL	110000
SCF_CONVERGENCE = 6
THRESH=10
GUI = 2
$end

$solvent
dielectric 4.90
$end
--------------------------------------------------------------

             Standard Nuclear Orientation (Angstroms)
    I     Atom           X                Y                Z
 ----------------------------------------------------------------
    1      C      -0.4023720000    -0.2142080000    -0.2124760000
    2      S       0.2051280000     0.2957920000     1.3680240000
    3      C       1.4596280000     1.3484920000     0.6924240000
    4      C       0.3620280000     0.4273920000    -1.1978760000
    5      C       1.3733280000     1.2760920000    -0.7059760000
    6      H       0.1815280000     0.2758920000    -2.2723760000
    7      H       2.0481280000     1.8423920000    -1.3650760000
    8      C      -0.4023720000    -1.6924080000    -0.2124760000
    9      H       0.5332280000    -1.6930080000    -0.7519760000
   10      H       0.0909280000    -2.1317080000     0.6420240000
   11      H      -0.8089720000    -2.4034080000    -0.9164760000
   12      H       2.1342280000     1.9146920000     1.3435240000
 ----------------------------------------------------------------

   11    -590.3197753727      6.28e-07  Convergence criterion met
 Total energy in the final basis set =     -590.3197753727
        RIMP2         total energy =      -591.3325593084 a.u.

                    Orbital Energies (a.u.)
 --------------------------------------------------------------

 Alpha MOs
 -- Occupied --
-91.9795 -11.2791 -11.2705 -11.2447 -11.2427 -11.2174  -8.9796  -6.6604
 -6.6597  -6.6594  -1.1671  -1.0383  -0.9772  -0.9078  -0.7607  -0.7265
 -0.6718  -0.5961  -0.5682  -0.5568  -0.5441  -0.4813  -0.4669  -0.4552
 -0.3433  -0.2972

          Ground-State Mulliken Net Atomic Charges

     Atom                 Charge (a.u.)
  ----------------------------------------
      1 C                    -0.069056
      2 S                     0.017043
      3 C                    -0.197931
      4 C                    -0.137178
      5 C                    -0.228760
      6 H                     0.181064
      7 H                     0.187216
      8 C                    -0.363021
      9 H                     0.135008
     10 H                     0.131133
     11 H                     0.138252
     12 H                     0.206228
  ----------------------------------------
  Sum of atomic charges =     0.000000

                    Cartesian Multipole Moments
 -----------------------------------------------------------------
    Charge (ESU x 10^10)
                 0.0000
    Dipole Moment (Debye)
         X       2.0576      Y      -0.3154      Z      -1.3343
       Tot       2.4725
    Quadrupole Moments (Debye-Ang)
        XX     -43.6085     XY       3.7370     YY     -42.2526
        XZ       0.8038     YZ       1.4229     ZZ     -40.9648

 Total job time:  11.55s(wall), 624.89s(cpu)
        *  Thank you very much for using Q-Chem.  Have a nice day.  *
