 Q-Chem 5.4, Q-Chem, Inc., Pleasanton, CA (2021)
 Q-Chem 5.4.0 for Intel X86 EM64T Linux

User input:
--------------------------------------------------------------
$molecule
0 1
C	-0.132111	-0.381707	-0.209225
S	0.072989	0.384493	1.371275
C	0.496789	1.966393	0.695675
C	0.125989	0.582293	-1.194625
C	0.467589	1.857593	-0.702725
H	0.065089	0.354693	-2.269125
H	0.695589	2.708493	-1.361825
C	-0.132111	-1.859907	-0.209225
H	-0.671611	-1.860507	-1.144825
H	0.722389	-2.299207	-0.702525
H	-0.836111	-2.570907	0.197375
H	0.724689	2.817093	1.346775
$end

$rem
JOBTYPE		SP
EXCHANGE	HF
CORRELATION	pRIMP2
BASIS		cc-pvtz
METHOD		rimp2
AUX_BASIS	rimp2-cc-pvtz
SOLVENT_METHOD	PCM
PURECART	11111
SYMMETRY	false
MEM_TOTAL	110000
SCF_CONVERGENCE = 6
THRESH=10
GUI = 2
$end

$solvent
dielectric 4.90
$end
--------------------------------------------------------------

             Standard Nuclear Orientation (Angstroms)
    I     Atom           X                Y                Z
 ----------------------------------------------------------------
    1      C      -0.1321110000    -0.3817070000    -0.2092250000
    2      S       0.0729890000     0.3844930000     1.3712750000
    3      C       0.4967890000     1.9663930000     0.6956750000
    4      C       0.1259890000     0.5822930000    -1.1946250000
    5      C       0.4675890000     1.8575930000    -0.7027250000
    6      H       0.0650890000     0.3546930000    -2.2691250000
    7      H       0.6955890000     2.7084930000    -1.3618250000
    8      C      -0.1321110000    -1.8599070000    -0.2092250000
    9      H      -0.6716110000    -1.8605070000    -1.1448250000
   10      H       0.7223890000    -2.2992070000    -0.7025250000
   11      H      -0.8361110000    -2.5709070000     0.1973750000
   12      H       0.7246890000     2.8170930000     1.3467750000
 ----------------------------------------------------------------

   10    -590.3689357786      6.11e-07  Convergence criterion met
 Total energy in the final basis set =     -590.3689357786
        RIMP2         total energy =      -591.3719614195 a.u.

                    Orbital Energies (a.u.)
 --------------------------------------------------------------

 Alpha MOs
 -- Occupied --
-91.9748 -11.2856 -11.2675 -11.2432 -11.2400 -11.2239  -8.9749  -6.6558
 -6.6552  -6.6547  -1.1571  -1.0382  -0.9724  -0.9190  -0.7542  -0.7238
 -0.6717  -0.5976  -0.5681  -0.5608  -0.5410  -0.5006  -0.4665  -0.4395
 -0.3450  -0.3078

          Ground-State Mulliken Net Atomic Charges

     Atom                 Charge (a.u.)
  ----------------------------------------
      1 C                     0.027383
      2 S                    -0.005025
      3 C                    -0.231456
      4 C                    -0.231781
      5 C                    -0.191771
      6 H                     0.182408
      7 H                     0.186143
      8 C                    -0.363829
      9 H                     0.122889
     10 H                     0.132281
     11 H                     0.169623
     12 H                     0.203133
  ----------------------------------------
  Sum of atomic charges =     0.000000

                    Cartesian Multipole Moments
 -----------------------------------------------------------------
    Charge (ESU x 10^10)
                -0.0000
    Dipole Moment (Debye)
         X      -0.0031      Y      -0.4592      Z      -1.7176
       Tot       1.7779
    Quadrupole Moments (Debye-Ang)
        XX     -46.9855     XY       3.1983     YY     -36.6411
        XZ      -0.0777     YZ       1.8076     ZZ     -41.9913

 Total job time:  10.06s(wall), 552.21s(cpu)
        *  Thank you very much for using Q-Chem.  Have a nice day.  *
