 Q-Chem 5.4, Q-Chem, Inc., Pleasanton, CA (2021)
 Q-Chem 5.4.0 for Intel X86 EM64T Linux

User input:
--------------------------------------------------------------
$molecule
0 1
C	0.004433	-0.399361	-0.210927
S	0.004233	0.393839	1.369573
C	0.004233	2.031539	0.693973
C	0.004233	0.598639	-1.196327
C	0.004133	1.918839	-0.704427
H	0.004333	0.362939	-2.270827
H	0.004133	2.799839	-1.363527
C	0.004433	-1.877561	-0.210927
H	-0.930567	-1.878161	-0.751427
H	0.497733	-2.316861	-1.065327
H	-0.401967	-2.588561	0.493173
H	0.004133	2.912239	1.345073
$end

$rem
JOBTYPE		SP
EXCHANGE	HF
CORRELATION	pRIMP2
BASIS		cc-pvtz
METHOD		rimp2
AUX_BASIS	rimp2-cc-pvtz
SOLVENT_METHOD	PCM
PURECART	11111
SYMMETRY	false
MEM_TOTAL	110000
SCF_CONVERGENCE = 6
THRESH=10
GUI = 2
$end

$solvent
dielectric 4.90
$end
--------------------------------------------------------------

             Standard Nuclear Orientation (Angstroms)
    I     Atom           X                Y                Z
 ----------------------------------------------------------------
    1      C       0.0044330000    -0.3993610000    -0.2109270000
    2      S       0.0042330000     0.3938390000     1.3695730000
    3      C       0.0042330000     2.0315390000     0.6939730000
    4      C       0.0042330000     0.5986390000    -1.1963270000
    5      C       0.0041330000     1.9188390000    -0.7044270000
    6      H       0.0043330000     0.3629390000    -2.2708270000
    7      H       0.0041330000     2.7998390000    -1.3635270000
    8      C       0.0044330000    -1.8775610000    -0.2109270000
    9      H      -0.9305670000    -1.8781610000    -0.7514270000
   10      H       0.4977330000    -2.3168610000    -1.0653270000
   11      H      -0.4019670000    -2.5885610000     0.4931730000
   12      H       0.0041330000     2.9122390000     1.3450730000
 ----------------------------------------------------------------

   10    -590.3725537346      6.29e-07  Convergence criterion met
 Total energy in the final basis set =     -590.3725537346
        RIMP2         total energy =      -591.3736057097 a.u.

                    Orbital Energies (a.u.)
 --------------------------------------------------------------

 Alpha MOs
 -- Occupied --
-91.9771 -11.2918 -11.2618 -11.2431 -11.2335 -11.2273  -8.9769  -6.6578
 -6.6573  -6.6567  -1.1565  -1.0400  -0.9712  -0.9198  -0.7535  -0.7225
 -0.6710  -0.5989  -0.5641  -0.5589  -0.5477  -0.4958  -0.4705  -0.4509
 -0.3457  -0.3000

          Ground-State Mulliken Net Atomic Charges

     Atom                 Charge (a.u.)
  ----------------------------------------
      1 C                     0.042141
      2 S                    -0.003078
      3 C                    -0.250837
      4 C                    -0.246291
      5 C                    -0.185650
      6 H                     0.180056
      7 H                     0.185933
      8 C                    -0.372590
      9 H                     0.137444
     10 H                     0.135587
     11 H                     0.174627
     12 H                     0.202658
  ----------------------------------------
  Sum of atomic charges =     0.000000

                    Cartesian Multipole Moments
 -----------------------------------------------------------------
    Charge (ESU x 10^10)
                -0.0000
    Dipole Moment (Debye)
         X      -0.6403      Y      -0.8418      Z      -1.4518
       Tot       1.7961
    Quadrupole Moments (Debye-Ang)
        XX     -48.1021     XY       1.4257     YY     -35.9458
        XZ      -0.1890     YZ       1.2858     ZZ     -41.7962

 Total job time:  10.24s(wall), 543.62s(cpu)
        *  Thank you very much for using Q-Chem.  Have a nice day.  *
