 Q-Chem 5.4, Q-Chem, Inc., Pleasanton, CA (2021)
 Q-Chem 5.4.0 for Intel X86 EM64T Linux

User input:
--------------------------------------------------------------
$molecule
0 1
C	0.040835	0.406489	0.214478
S	0.040634	-0.386682	-1.366052
C	0.040607	-2.024396	-0.690433
C	0.040667	-0.591501	1.199878
C	0.040568	-1.911742	0.708006
H	0.040690	-0.355854	2.274412
H	0.040496	-2.792675	1.367071
C	-0.464745	1.795558	0.214478
H	-1.544580	1.814406	0.214478
H	-0.123389	2.331678	-0.658707
H	-0.123389	2.331678	1.087663
H	0.040524	-2.905077	-1.341547
$end

$rem
JOBTYPE		SP
EXCHANGE	HF
CORRELATION	pRIMP2
BASIS		cc-pvtz
METHOD		rimp2
AUX_BASIS	rimp2-cc-pvtz
SOLVENT_METHOD	PCM
PURECART	11111
SYMMETRY	false
MEM_TOTAL	110000
SCF_CONVERGENCE = 6
THRESH=10
GUI = 2
$end

$solvent
dielectric 4.90
$end
--------------------------------------------------------------

             Standard Nuclear Orientation (Angstroms)
    I     Atom           X                Y                Z
 ----------------------------------------------------------------
    1      C       0.0408350000     0.4064890000     0.2144780000
    2      S       0.0406340000    -0.3866820000    -1.3660520000
    3      C       0.0406070000    -2.0243960000    -0.6904330000
    4      C       0.0406670000    -0.5915010000     1.1998780000
    5      C       0.0405680000    -1.9117420000     0.7080060000
    6      H       0.0406900000    -0.3558540000     2.2744120000
    7      H       0.0404960000    -2.7926750000     1.3670710000
    8      C      -0.4647450000     1.7955580000     0.2144780000
    9      H      -1.5445800000     1.8144060000     0.2144780000
   10      H      -0.1233890000     2.3316780000    -0.6587070000
   11      H      -0.1233890000     2.3316780000     1.0876630000
   12      H       0.0405240000    -2.9050770000    -1.3415470000
 ----------------------------------------------------------------

   10    -590.4155135615      5.71e-07  Convergence criterion met
 Total energy in the final basis set =     -590.4155135615
        RIMP2         total energy =      -591.4108804476 a.u.

                    Orbital Energies (a.u.)
 --------------------------------------------------------------

 Alpha MOs
 -- Occupied --
-91.9777 -11.2745 -11.2689 -11.2429 -11.2374 -11.2256  -8.9776  -6.6585
 -6.6580  -6.6575  -1.1559  -1.0294  -0.9721  -0.9117  -0.7551  -0.7180
 -0.6673  -0.5873  -0.5868  -0.5573  -0.5417  -0.4960  -0.4854  -0.4538
 -0.3456  -0.3083

          Ground-State Mulliken Net Atomic Charges

     Atom                 Charge (a.u.)
  ----------------------------------------
      1 C                    -0.002011
      2 S                    -0.004764
      3 C                    -0.233096
      4 C                    -0.231215
      5 C                    -0.186372
      6 H                     0.183764
      7 H                     0.186432
      8 C                    -0.270153
      9 H                     0.122496
     10 H                     0.114198
     11 H                     0.116026
     12 H                     0.204693
  ----------------------------------------
  Sum of atomic charges =     0.000000

                    Cartesian Multipole Moments
 -----------------------------------------------------------------
    Charge (ESU x 10^10)
                -0.0000
    Dipole Moment (Debye)
         X      -0.5689      Y       0.1783      Z       1.1055
       Tot       1.2560
    Quadrupole Moments (Debye-Ang)
        XX     -47.5023     XY      -0.6445     YY     -36.7622
        XZ      -0.1069     YZ       0.8462     ZZ     -41.7312

 Total job time:  11.76s(wall), 556.10s(cpu)
        *  Thank you very much for using Q-Chem.  Have a nice day.  *
