 Q-Chem 5.4, Q-Chem, Inc., Pleasanton, CA (2021)
 Q-Chem 5.4.0 for Intel X86 EM64T Linux

User input:
--------------------------------------------------------------
$molecule
0 1
C	0.059660	0.415268	0.214478
S	0.059459	-0.377903	-1.366052
C	0.059432	-2.015617	-0.690433
C	0.059492	-0.582722	1.199878
C	0.059393	-1.902963	0.708006
H	0.059515	-0.347075	2.274412
H	0.059321	-2.783896	1.367071
C	-0.679448	1.695441	0.214478
H	-1.746151	1.526491	0.214478
H	-0.436374	2.282692	-0.658707
H	-0.436374	2.282692	1.087663
H	0.059349	-2.896298	-1.341547
$end

$rem
JOBTYPE		SP
EXCHANGE	HF
CORRELATION	pRIMP2
BASIS		cc-pvtz
METHOD		rimp2
AUX_BASIS	rimp2-cc-pvtz
SOLVENT_METHOD	PCM
PURECART	11111
SYMMETRY	false
MEM_TOTAL	110000
SCF_CONVERGENCE = 6
THRESH=10
GUI = 2
$end

$solvent
dielectric 4.90
$end
--------------------------------------------------------------

             Standard Nuclear Orientation (Angstroms)
    I     Atom           X                Y                Z
 ----------------------------------------------------------------
    1      C       0.0596600000     0.4152680000     0.2144780000
    2      S       0.0594590000    -0.3779030000    -1.3660520000
    3      C       0.0594320000    -2.0156170000    -0.6904330000
    4      C       0.0594920000    -0.5827220000     1.1998780000
    5      C       0.0593930000    -1.9029630000     0.7080060000
    6      H       0.0595150000    -0.3470750000     2.2744120000
    7      H       0.0593210000    -2.7838960000     1.3670710000
    8      C      -0.6794480000     1.6954410000     0.2144780000
    9      H      -1.7461510000     1.5264910000     0.2144780000
   10      H      -0.4363740000     2.2826920000    -0.6587070000
   11      H      -0.4363740000     2.2826920000     1.0876630000
   12      H       0.0593490000    -2.8962980000    -1.3415470000
 ----------------------------------------------------------------

   10    -590.4064780694      6.04e-07  Convergence criterion met
 Total energy in the final basis set =     -590.4064780694
        RIMP2         total energy =      -591.4039870329 a.u.

                    Orbital Energies (a.u.)
 --------------------------------------------------------------

 Alpha MOs
 -- Occupied --
-91.9772 -11.2721 -11.2700 -11.2433 -11.2398 -11.2242  -8.9773  -6.6581
 -6.6576  -6.6571  -1.1573  -1.0290  -0.9729  -0.9097  -0.7561  -0.7187
 -0.6673  -0.5867  -0.5860  -0.5578  -0.5418  -0.4953  -0.4814  -0.4532
 -0.3455  -0.3084

          Ground-State Mulliken Net Atomic Charges

     Atom                 Charge (a.u.)
  ----------------------------------------
      1 C                    -0.020892
      2 S                    -0.003012
      3 C                    -0.222848
      4 C                    -0.214568
      5 C                    -0.189877
      6 H                     0.183564
      7 H                     0.186699
      8 C                    -0.274120
      9 H                     0.123560
     10 H                     0.112792
     11 H                     0.113801
     12 H                     0.204902
  ----------------------------------------
  Sum of atomic charges =     0.000000

                    Cartesian Multipole Moments
 -----------------------------------------------------------------
    Charge (ESU x 10^10)
                 0.0000
    Dipole Moment (Debye)
         X      -0.8009      Y      -0.1682      Z       1.1186
       Tot       1.3860
    Quadrupole Moments (Debye-Ang)
        XX     -47.3566     XY      -0.8390     YY     -37.0982
        XZ      -0.1428     YZ       0.8465     ZZ     -41.6314

 Total job time:  10.37s(wall), 551.69s(cpu)
        *  Thank you very much for using Q-Chem.  Have a nice day.  *
