 Q-Chem 5.4, Q-Chem, Inc., Pleasanton, CA (2021)
 Q-Chem 5.4.0 for Intel X86 EM64T Linux

User input:
--------------------------------------------------------------
$molecule
0 1
C	0.000077	0.399302	0.214478
S	-0.000124	-0.393869	-1.366052
C	-0.000151	-2.031583	-0.690433
C	-0.000091	-0.598688	1.199878
C	-0.000190	-1.918929	0.708006
H	-0.000068	-0.363041	2.274412
H	-0.000262	-2.799862	1.367071
C	0.000077	1.877518	0.214478
H	-1.008190	2.264555	0.214478
H	0.504210	2.264555	-0.658707
H	0.504210	2.264555	1.087663
H	-0.000234	-2.912264	-1.341547
$end

$rem
JOBTYPE		SP
EXCHANGE	HF
CORRELATION	pRIMP2
BASIS		cc-pvtz
METHOD		rimp2
AUX_BASIS	rimp2-cc-pvtz
SOLVENT_METHOD	PCM
PURECART	11111
SYMMETRY	false
MEM_TOTAL	110000
SCF_CONVERGENCE = 6
THRESH=10
GUI = 2
$end

$solvent
dielectric 4.90
$end
--------------------------------------------------------------

             Standard Nuclear Orientation (Angstroms)
    I     Atom           X                Y                Z
 ----------------------------------------------------------------
    1      C       0.0000770000     0.3993020000     0.2144780000
    2      S      -0.0001240000    -0.3938690000    -1.3660520000
    3      C      -0.0001510000    -2.0315830000    -0.6904330000
    4      C      -0.0000910000    -0.5986880000     1.1998780000
    5      C      -0.0001900000    -1.9189290000     0.7080060000
    6      H      -0.0000680000    -0.3630410000     2.2744120000
    7      H      -0.0002620000    -2.7998620000     1.3670710000
    8      C       0.0000770000     1.8775180000     0.2144780000
    9      H      -1.0081900000     2.2645550000     0.2144780000
   10      H       0.5042100000     2.2645550000    -0.6587070000
   11      H       0.5042100000     2.2645550000     1.0876630000
   12      H      -0.0002340000    -2.9122640000    -1.3415470000
 ----------------------------------------------------------------

   10    -590.4221441940      5.65e-07  Convergence criterion met
 Total energy in the final basis set =     -590.4221441940
        RIMP2         total energy =      -591.4157438230 a.u.

                    Orbital Energies (a.u.)
 --------------------------------------------------------------

 Alpha MOs
 -- Occupied --
-91.9780 -11.2780 -11.2663 -11.2425 -11.2357 -11.2266  -8.9778  -6.6587
 -6.6582  -6.6577  -1.1549  -1.0298  -0.9715  -0.9133  -0.7543  -0.7175
 -0.6673  -0.5882  -0.5872  -0.5569  -0.5413  -0.4971  -0.4880  -0.4542
 -0.3455  -0.3082

          Ground-State Mulliken Net Atomic Charges

     Atom                 Charge (a.u.)
  ----------------------------------------
      1 C                     0.012860
      2 S                    -0.006696
      3 C                    -0.239497
      4 C                    -0.236185
      5 C                    -0.188562
      6 H                     0.184423
      7 H                     0.185656
      8 C                    -0.266574
      9 H                     0.117935
     10 H                     0.114942
     11 H                     0.117158
     12 H                     0.204539
  ----------------------------------------
  Sum of atomic charges =     0.000000

                    Cartesian Multipole Moments
 -----------------------------------------------------------------
    Charge (ESU x 10^10)
                -0.0000
    Dipole Moment (Debye)
         X      -0.0129      Y       0.4679      Z       1.0921
       Tot       1.1882
    Quadrupole Moments (Debye-Ang)
        XX     -47.6783     XY       0.0346     YY     -36.4527
        XZ      -0.0153     YZ       0.8411     ZZ     -41.7872

 Total job time:  13.40s(wall), 601.63s(cpu)
        *  Thank you very much for using Q-Chem.  Have a nice day.  *
