 Q-Chem 5.4, Q-Chem, Inc., Pleasanton, CA (2021)
 Q-Chem 5.4.0 for Intel X86 EM64T Linux

User input:
--------------------------------------------------------------
$molecule
0 1
C	0.030920	0.403363	0.214478
S	0.030719	-0.389808	-1.366052
C	0.030692	-2.027522	-0.690433
C	0.030752	-0.594627	1.199878
C	0.030653	-1.914868	0.708006
H	0.030775	-0.358980	2.274412
H	0.030581	-2.795801	1.367071
C	-0.351670	1.831210	0.214478
H	-1.425754	1.944101	0.214478
H	0.035112	2.335539	-0.658707
H	0.035112	2.335539	1.087663
H	0.030609	-2.908203	-1.341547
$end

$rem
JOBTYPE		SP
EXCHANGE	HF
CORRELATION	pRIMP2
BASIS		cc-pvtz
METHOD		rimp2
AUX_BASIS	rimp2-cc-pvtz
SOLVENT_METHOD	PCM
PURECART	11111
SYMMETRY	false
MEM_TOTAL	110000
SCF_CONVERGENCE = 6
THRESH=10
GUI = 2
$end

$solvent
dielectric 4.90
$end
--------------------------------------------------------------

             Standard Nuclear Orientation (Angstroms)
    I     Atom           X                Y                Z
 ----------------------------------------------------------------
    1      C       0.0309200000     0.4033630000     0.2144780000
    2      S       0.0307190000    -0.3898080000    -1.3660520000
    3      C       0.0306920000    -2.0275220000    -0.6904330000
    4      C       0.0307520000    -0.5946270000     1.1998780000
    5      C       0.0306530000    -1.9148680000     0.7080060000
    6      H       0.0307750000    -0.3589800000     2.2744120000
    7      H       0.0305810000    -2.7958010000     1.3670710000
    8      C      -0.3516700000     1.8312100000     0.2144780000
    9      H      -1.4257540000     1.9441010000     0.2144780000
   10      H       0.0351120000     2.3355390000    -0.6587070000
   11      H       0.0351120000     2.3355390000     1.0876630000
   12      H       0.0306090000    -2.9082030000    -1.3415470000
 ----------------------------------------------------------------

   10    -590.4186039826      5.67e-07  Convergence criterion met
 Total energy in the final basis set =     -590.4186039826
        RIMP2         total energy =      -591.4132000238 a.u.

                    Orbital Energies (a.u.)
 --------------------------------------------------------------

 Alpha MOs
 -- Occupied --
-91.9779 -11.2761 -11.2678 -11.2428 -11.2367 -11.2261  -8.9778  -6.6587
 -6.6582  -6.6576  -1.1555  -1.0296  -0.9719  -0.9124  -0.7548  -0.7178
 -0.6673  -0.5876  -0.5871  -0.5571  -0.5415  -0.4963  -0.4868  -0.4540
 -0.3456  -0.3083

          Ground-State Mulliken Net Atomic Charges

     Atom                 Charge (a.u.)
  ----------------------------------------
      1 C                     0.004535
      2 S                    -0.005432
      3 C                    -0.236410
      4 C                    -0.235454
      5 C                    -0.186136
      6 H                     0.183964
      7 H                     0.186244
      8 C                    -0.268454
      9 H                     0.121268
     10 H                     0.114559
     11 H                     0.116662
     12 H                     0.204655
  ----------------------------------------
  Sum of atomic charges =     0.000000

                    Cartesian Multipole Moments
 -----------------------------------------------------------------
    Charge (ESU x 10^10)
                -0.0000
    Dipole Moment (Debye)
         X      -0.4386      Y       0.3009      Z       1.1002
       Tot       1.2221
    Quadrupole Moments (Debye-Ang)
        XX     -47.5727     XY      -0.5048     YY     -36.6240
        XZ      -0.0851     YZ       0.8463     ZZ     -41.7612

 Total job time:  12.06s(wall), 595.55s(cpu)
        *  Thank you very much for using Q-Chem.  Have a nice day.  *
