 Q-Chem 5.4, Q-Chem, Inc., Pleasanton, CA (2021)
 Q-Chem 5.4.0 for Intel X86 EM64T Linux

User input:
--------------------------------------------------------------
$molecule
0 1
C	0.020770	0.401113	0.214478
S	0.020569	-0.392058	-1.366052
C	0.020542	-2.029772	-0.690433
C	0.020602	-0.596877	1.199878
C	0.020503	-1.917118	0.708006
H	0.020625	-0.361230	2.274412
H	0.020431	-2.798051	1.367071
C	-0.235920	1.856872	0.214478
H	-1.296077	2.062945	0.214478
H	0.193347	2.325571	-0.658707
H	0.193347	2.325571	1.087663
H	0.020459	-2.910453	-1.341547
$end

$rem
JOBTYPE		SP
EXCHANGE	HF
CORRELATION	pRIMP2
BASIS		cc-pvtz
METHOD		rimp2
AUX_BASIS	rimp2-cc-pvtz
SOLVENT_METHOD	PCM
PURECART	11111
SYMMETRY	false
MEM_TOTAL	110000
SCF_CONVERGENCE = 6
THRESH=10
GUI = 2
$end

$solvent
dielectric 4.90
$end
--------------------------------------------------------------

             Standard Nuclear Orientation (Angstroms)
    I     Atom           X                Y                Z
 ----------------------------------------------------------------
    1      C       0.0207700000     0.4011130000     0.2144780000
    2      S       0.0205690000    -0.3920580000    -1.3660520000
    3      C       0.0205420000    -2.0297720000    -0.6904330000
    4      C       0.0206020000    -0.5968770000     1.1998780000
    5      C       0.0205030000    -1.9171180000     0.7080060000
    6      H       0.0206250000    -0.3612300000     2.2744120000
    7      H       0.0204310000    -2.7980510000     1.3670710000
    8      C      -0.2359200000     1.8568720000     0.2144780000
    9      H      -1.2960770000     2.0629450000     0.2144780000
   10      H       0.1933470000     2.3255710000    -0.6587070000
   11      H       0.1933470000     2.3255710000     1.0876630000
   12      H       0.0204590000    -2.9104530000    -1.3415470000
 ----------------------------------------------------------------

   10    -590.4207411775      5.66e-07  Convergence criterion met
 Total energy in the final basis set =     -590.4207411775
        RIMP2         total energy =      -591.4147827471 a.u.

                    Orbital Energies (a.u.)
 --------------------------------------------------------------

 Alpha MOs
 -- Occupied --
-91.9780 -11.2772 -11.2670 -11.2427 -11.2361 -11.2265  -8.9779  -6.6587
 -6.6582  -6.6577  -1.1552  -1.0297  -0.9717  -0.9129  -0.7545  -0.7177
 -0.6673  -0.5879  -0.5872  -0.5571  -0.5414  -0.4966  -0.4877  -0.4541
 -0.3456  -0.3083

          Ground-State Mulliken Net Atomic Charges

     Atom                 Charge (a.u.)
  ----------------------------------------
      1 C                     0.009231
      2 S                    -0.005972
      3 C                    -0.238638
      4 C                    -0.237395
      5 C                    -0.186548
      6 H                     0.184186
      7 H                     0.186029
      8 C                    -0.267200
      9 H                     0.119940
     10 H                     0.114756
     11 H                     0.116984
     12 H                     0.204627
  ----------------------------------------
  Sum of atomic charges =     0.000000

                    Cartesian Multipole Moments
 -----------------------------------------------------------------
    Charge (ESU x 10^10)
                -0.0000
    Dipole Moment (Debye)
         X      -0.3011      Y       0.3902      Z       1.0960
       Tot       1.2017
    Quadrupole Moments (Debye-Ang)
        XX     -47.6299     XY      -0.3404     YY     -36.5211
        XZ      -0.0620     YZ       0.8455     ZZ     -41.7798

 Total job time:  10.31s(wall), 544.11s(cpu)
        *  Thank you very much for using Q-Chem.  Have a nice day.  *
