 Q-Chem 5.4, Q-Chem, Inc., Pleasanton, CA (2021)
 Q-Chem 5.4.0 for Intel X86 EM64T Linux

User input:
--------------------------------------------------------------
$molecule
0 1
C	0.050439	0.410467	0.214478
S	0.050238	-0.382704	-1.366052
C	0.050211	-2.020418	-0.690433
C	0.050271	-0.587523	1.199878
C	0.050172	-1.907764	0.708006
H	0.050294	-0.351876	2.274412
H	0.050100	-2.788697	1.367071
C	-0.574282	1.750186	0.214478
H	-1.651651	1.674849	0.214478
H	-0.280951	2.314017	-0.658707
H	-0.280951	2.314017	1.087663
H	0.050128	-2.901099	-1.341547
$end

$rem
JOBTYPE		SP
EXCHANGE	HF
CORRELATION	pRIMP2
BASIS		cc-pvtz
METHOD		rimp2
AUX_BASIS	rimp2-cc-pvtz
SOLVENT_METHOD	PCM
PURECART	11111
SYMMETRY	false
MEM_TOTAL	110000
SCF_CONVERGENCE = 6
THRESH=10
GUI = 2
$end

$solvent
dielectric 4.90
$end
--------------------------------------------------------------

             Standard Nuclear Orientation (Angstroms)
    I     Atom           X                Y                Z
 ----------------------------------------------------------------
    1      C       0.0504390000     0.4104670000     0.2144780000
    2      S       0.0502380000    -0.3827040000    -1.3660520000
    3      C       0.0502110000    -2.0204180000    -0.6904330000
    4      C       0.0502710000    -0.5875230000     1.1998780000
    5      C       0.0501720000    -1.9077640000     0.7080060000
    6      H       0.0502940000    -0.3518760000     2.2744120000
    7      H       0.0501000000    -2.7886970000     1.3670710000
    8      C      -0.5742820000     1.7501860000     0.2144780000
    9      H      -1.6516510000     1.6748490000     0.2144780000
   10      H      -0.2809510000     2.3140170000    -0.6587070000
   11      H      -0.2809510000     2.3140170000     1.0876630000
   12      H       0.0501280000    -2.9010990000    -1.3415470000
 ----------------------------------------------------------------

   10    -590.4114708242      5.82e-07  Convergence criterion met
 Total energy in the final basis set =     -590.4114708242
        RIMP2         total energy =      -591.4078147635 a.u.

                    Orbital Energies (a.u.)
 --------------------------------------------------------------

 Alpha MOs
 -- Occupied --
-91.9775 -11.2725 -11.2703 -11.2431 -11.2385 -11.2249  -8.9775  -6.6583
 -6.6578  -6.6573  -1.1565  -1.0292  -0.9725  -0.9108  -0.7556  -0.7183
 -0.6673  -0.5870  -0.5865  -0.5575  -0.5418  -0.4957  -0.4836  -0.4535
 -0.3456  -0.3083

          Ground-State Mulliken Net Atomic Charges

     Atom                 Charge (a.u.)
  ----------------------------------------
      1 C                    -0.010440
      2 S                    -0.003965
      3 C                    -0.228624
      4 C                    -0.224336
      5 C                    -0.187521
      6 H                     0.183624
      7 H                     0.186584
      8 C                    -0.272100
      9 H                     0.123327
     10 H                     0.113613
     11 H                     0.115071
     12 H                     0.204767
  ----------------------------------------
  Sum of atomic charges =     0.000000

                    Cartesian Multipole Moments
 -----------------------------------------------------------------
    Charge (ESU x 10^10)
                -0.0000
    Dipole Moment (Debye)
         X      -0.6902      Y       0.0220      Z       1.1117
       Tot       1.3087
    Quadrupole Moments (Debye-Ang)
        XX     -47.4271     XY      -0.7561     YY     -36.9240
        XZ      -0.1264     YZ       0.8459     ZZ     -41.6884

 Total job time:  11.06s(wall), 564.67s(cpu)
        *  Thank you very much for using Q-Chem.  Have a nice day.  *
