 Q-Chem 5.4, Q-Chem, Inc., Pleasanton, CA (2021)
 Q-Chem 5.4.0 for Intel X86 EM64T Linux

User input:
--------------------------------------------------------------
$molecule
0 1
C	0.010463	0.399756	0.214478
S	0.010262	-0.393415	-1.366052
C	0.010235	-2.031129	-0.690433
C	0.010295	-0.598234	1.199878
C	0.010196	-1.918475	0.708006
H	0.010318	-0.362587	2.274412
H	0.010124	-2.799408	1.367071
C	-0.118372	1.872347	0.214478
H	-1.156535	2.170035	0.214478
H	0.350110	2.301850	-0.658707
H	0.350110	2.301850	1.087663
H	0.010152	-2.911810	-1.341547
$end

$rem
JOBTYPE		SP
EXCHANGE	HF
CORRELATION	pRIMP2
BASIS		cc-pvtz
METHOD		rimp2
AUX_BASIS	rimp2-cc-pvtz
SOLVENT_METHOD	PCM
PURECART	11111
SYMMETRY	false
MEM_TOTAL	110000
SCF_CONVERGENCE = 6
THRESH=10
GUI = 2
$end

$solvent
dielectric 4.90
$end
--------------------------------------------------------------

             Standard Nuclear Orientation (Angstroms)
    I     Atom           X                Y                Z
 ----------------------------------------------------------------
    1      C       0.0104630000     0.3997560000     0.2144780000
    2      S       0.0102620000    -0.3934150000    -1.3660520000
    3      C       0.0102350000    -2.0311290000    -0.6904330000
    4      C       0.0102950000    -0.5982340000     1.1998780000
    5      C       0.0101960000    -1.9184750000     0.7080060000
    6      H       0.0103180000    -0.3625870000     2.2744120000
    7      H       0.0101240000    -2.7994080000     1.3670710000
    8      C      -0.1183720000     1.8723470000     0.2144780000
    9      H      -1.1565350000     2.1700350000     0.2144780000
   10      H       0.3501100000     2.3018500000    -0.6587070000
   11      H       0.3501100000     2.3018500000     1.0876630000
   12      H       0.0101520000    -2.9118100000    -1.3415470000
 ----------------------------------------------------------------

   10    -590.4219238541      5.65e-07  Convergence criterion met
 Total energy in the final basis set =     -590.4219238541
        RIMP2         total energy =      -591.4156321669 a.u.

                    Orbital Energies (a.u.)
 --------------------------------------------------------------

 Alpha MOs
 -- Occupied --
-91.9780 -11.2778 -11.2665 -11.2426 -11.2358 -11.2266  -8.9779  -6.6588
 -6.6583  -6.6577  -1.1550  -1.0298  -0.9716  -0.9132  -0.7544  -0.7176
 -0.6673  -0.5881  -0.5872  -0.5570  -0.5414  -0.4969  -0.4881  -0.4541
 -0.3456  -0.3083

          Ground-State Mulliken Net Atomic Charges

     Atom                 Charge (a.u.)
  ----------------------------------------
      1 C                     0.012090
      2 S                    -0.006407
      3 C                    -0.239715
      4 C                    -0.237490
      5 C                    -0.187408
      6 H                     0.184365
      7 H                     0.185818
      8 C                    -0.266603
      9 H                     0.118813
     10 H                     0.114853
     11 H                     0.117094
     12 H                     0.204591
  ----------------------------------------
  Sum of atomic charges =     0.000000

                    Cartesian Multipole Moments
 -----------------------------------------------------------------
    Charge (ESU x 10^10)
                -0.0000
    Dipole Moment (Debye)
         X      -0.1586      Y       0.4462      Z       1.0932
       Tot       1.1914
    Quadrupole Moments (Debye-Ang)
        XX     -47.6667     XY      -0.1578     YY     -36.4627
        XZ      -0.0385     YZ       0.8437     ZZ     -41.7886

 Total job time:  10.79s(wall), 562.11s(cpu)
        *  Thank you very much for using Q-Chem.  Have a nice day.  *
