 Q-Chem 5.4, Q-Chem, Inc., Pleasanton, CA (2021)
 Q-Chem 5.4.0 for Intel X86 EM64T Linux

User input:
--------------------------------------------------------------
$molecule
0 1
C	-0.043160	-6.741404	0.253280
C	-0.269777	-6.155638	1.539213
C	0.145543	-5.791452	-0.814295
C	-0.318377	-4.803786	1.813519
H	-0.422058	-6.821518	2.403941
C	0.094194	-4.378638	-0.527140
C	-0.137191	-3.838032	0.783072
C	0.275104	-3.413062	-1.556403
C	-0.188116	-2.426473	1.067932
C	0.226701	-2.059348	-1.285420
C	0.000000	-1.478216	0.000000
H	0.378931	-1.394783	-2.151147
C	0.397845	-6.187987	-2.234582
C	0.523637	-3.798164	-2.965273
N	0.567586	-5.170003	-3.204744
C	-0.567421	-4.424987	3.226257
C	-0.439541	-2.036627	2.489446
N	-0.609650	-3.049156	3.459801
O	0.468608	-7.353131	-2.619468
O	0.683034	-2.986854	-3.874668
O	-0.725131	-5.248946	4.124806
O	-0.512648	-0.878829	2.895819
C	0.813908	-5.563799	-4.595691
H	0.822891	-6.664085	-4.640022
H	1.781600	-5.147101	-4.934830
H	0.020360	-5.148785	-5.246157
C	-0.851649	-2.587487	4.829716
H	-0.962191	-3.483329	5.462742
H	-1.765865	-1.964972	4.863242
H	-0.005383	-1.962932	5.173521
C	0.000000	0.000000	0.000000
S	0.396411	0.687007	1.580530
C	1.215245	2.105322	0.904911
C	0.498850	0.864369	-0.985400
C	1.158885	2.007781	-0.493528
H	0.381046	0.660280	-2.059934
H	1.599289	2.770727	-1.152593
H	1.655514	2.868056	1.556025
H	-0.909181	-7.361589	-0.008120
H	0.860264	-7.361192	0.304668
H	-1.063500	-1.478831	-0.188062
$end

$rem
JOBTYPE		SP
EXCHANGE	HF
CORRELATION	pRIMP2
BASIS		cc-pvtz
METHOD		rimp2
AUX_BASIS	rimp2-cc-pvtz
SOLVENT_METHOD	PCM
PURECART	11111
SYMMETRY	false
MEM_TOTAL	110000
SCF_CONVERGENCE = 6
THRESH=10
GUI = 2
$end

$solvent
dielectric 4.90
$end
--------------------------------------------------------------

             Standard Nuclear Orientation (Angstroms)
    I     Atom           X                Y                Z
 ----------------------------------------------------------------
    1      C      -0.0431600000    -6.7414040000     0.2532800000
    2      C      -0.2697770000    -6.1556380000     1.5392130000
    3      C       0.1455430000    -5.7914520000    -0.8142950000
    4      C      -0.3183770000    -4.8037860000     1.8135190000
    5      H      -0.4220580000    -6.8215180000     2.4039410000
    6      C       0.0941940000    -4.3786380000    -0.5271400000
    7      C      -0.1371910000    -3.8380320000     0.7830720000
    8      C       0.2751040000    -3.4130620000    -1.5564030000
    9      C      -0.1881160000    -2.4264730000     1.0679320000
   10      C       0.2267010000    -2.0593480000    -1.2854200000
   11      C       0.0000000000    -1.4782160000     0.0000000000
   12      H       0.3789310000    -1.3947830000    -2.1511470000
   13      C       0.3978450000    -6.1879870000    -2.2345820000
   14      C       0.5236370000    -3.7981640000    -2.9652730000
   15      N       0.5675860000    -5.1700030000    -3.2047440000
   16      C      -0.5674210000    -4.4249870000     3.2262570000
   17      C      -0.4395410000    -2.0366270000     2.4894460000
   18      N      -0.6096500000    -3.0491560000     3.4598010000
   19      O       0.4686080000    -7.3531310000    -2.6194680000
   20      O       0.6830340000    -2.9868540000    -3.8746680000
   21      O      -0.7251310000    -5.2489460000     4.1248060000
   22      O      -0.5126480000    -0.8788290000     2.8958190000
   23      C       0.8139080000    -5.5637990000    -4.5956910000
   24      H       0.8228910000    -6.6640850000    -4.6400220000
   25      H       1.7816000000    -5.1471010000    -4.9348300000
   26      H       0.0203600000    -5.1487850000    -5.2461570000
   27      C      -0.8516490000    -2.5874870000     4.8297160000
   28      H      -0.9621910000    -3.4833290000     5.4627420000
   29      H      -1.7658650000    -1.9649720000     4.8632420000
   30      H      -0.0053830000    -1.9629320000     5.1735210000
   31      C       0.0000000000     0.0000000000     0.0000000000
   32      S       0.3964110000     0.6870070000     1.5805300000
   33      C       1.2152450000     2.1053220000     0.9049110000
   34      C       0.4988500000     0.8643690000    -0.9854000000
   35      C       1.1588850000     2.0077810000    -0.4935280000
   36      H       0.3810460000     0.6602800000    -2.0599340000
   37      H       1.5992890000     2.7707270000    -1.1525930000
   38      H       1.6555140000     2.8680560000     1.5560250000
   39      H      -0.9091810000    -7.3615890000    -0.0081200000
   40      H       0.8602640000    -7.3611920000     0.3046680000
   41      H      -1.0635000000    -1.4788310000    -0.1880620000
 ----------------------------------------------------------------

   11   -1571.6880694310      5.97e-07  Convergence criterion met
 Total energy in the final basis set =    -1571.6880694310
        RIMP2         total energy =     -1576.3599726904 a.u.

                    Orbital Energies (a.u.)
 --------------------------------------------------------------

 Alpha MOs
 -- Occupied --
-91.9709 -20.5576 -20.5463 -20.5414 -20.5409 -15.6307 -15.6216 -11.4001
-11.3871 -11.3834 -11.3794 -11.3111 -11.3089 -11.3088 -11.3053 -11.2983
-11.2889 -11.2875 -11.2696 -11.2687 -11.2653 -11.2648 -11.2631 -11.2596
-11.2533 -11.2525 -11.2403  -8.9710  -6.6514  -6.6502  -6.6493  -1.4312
 -1.4123  -1.4027  -1.3915  -1.2672  -1.2558  -1.2310  -1.1857  -1.1473
 -1.1152  -1.0857  -1.0486  -0.9946  -0.9891  -0.9779  -0.9561  -0.9481
 -0.8980  -0.8905  -0.8791  -0.8620  -0.7912  -0.7814  -0.7749  -0.7600
 -0.7307  -0.7243  -0.7017  -0.6903  -0.6875  -0.6763  -0.6686  -0.6587
 -0.6508  -0.6452  -0.6372  -0.6328  -0.6326  -0.6316  -0.6222  -0.6063
 -0.5898  -0.5725  -0.5672  -0.5623  -0.5589  -0.5549  -0.5526  -0.5493
 -0.5480  -0.5453  -0.5234  -0.5117  -0.5103  -0.4887  -0.4729  -0.4628
 -0.4553  -0.4440  -0.4372  -0.4209  -0.4079  -0.3919  -0.3545  -0.3428
 -0.3284  -0.2755

          Ground-State Mulliken Net Atomic Charges

     Atom                 Charge (a.u.)
  ----------------------------------------
      1 C                    -0.084262
      2 C                    -0.029565
      3 C                    -0.108812
      4 C                    -0.122483
      5 H                     0.199417
      6 C                     0.024665
      7 C                     0.119026
      8 C                    -0.092878
      9 C                    -0.183735
     10 C                    -0.137625
     11 C                     0.179825
     12 H                     0.189857
     13 C                     0.340838
     14 C                     0.348559
     15 N                    -0.089979
     16 C                     0.357669
     17 C                     0.381403
     18 N                    -0.088325
     19 O                    -0.495443
     20 O                    -0.509337
     21 O                    -0.499585
     22 O                    -0.459324
     23 C                    -0.205081
     24 H                     0.139651
     25 H                     0.109286
     26 H                     0.109047
     27 C                    -0.198374
     28 H                     0.134913
     29 H                     0.112362
     30 H                     0.113211
     31 C                     0.001251
     32 S                     0.085566
     33 C                    -0.255379
     34 C                    -0.230888
     35 C                    -0.212252
     36 H                     0.180962
     37 H                     0.183620
     38 H                     0.202405
     39 H                     0.137721
     40 H                     0.138172
     41 H                     0.213901
  ----------------------------------------
  Sum of atomic charges =     0.000000

                    Cartesian Multipole Moments
 -----------------------------------------------------------------
    Charge (ESU x 10^10)
                 0.0000
    Dipole Moment (Debye)
         X      -0.5937      Y       0.9174      Z       0.9246
       Tot       1.4314
    Quadrupole Moments (Debye-Ang)
        XX    -161.3299     XY       6.8806     YY    -181.5057
        XZ       5.4843     YZ      -9.5546     ZZ    -185.9192

 Total job time:  301.60s(wall), 9091.08s(cpu)
        *  Thank you very much for using Q-Chem.  Have a nice day.  *
