 Q-Chem 5.4, Q-Chem, Inc., Pleasanton, CA (2021)
 Q-Chem 5.4.0 for Intel X86 EM64T Linux

User input:
--------------------------------------------------------------
$molecule
0 1
C	-0.043160	-6.741404	0.253280
C	-0.269777	-6.155638	1.539213
C	0.145543	-5.791452	-0.814295
C	-0.318377	-4.803786	1.813519
H	-0.422058	-6.821518	2.403941
C	0.094194	-4.378638	-0.527140
C	-0.137191	-3.838032	0.783072
C	0.275104	-3.413062	-1.556403
C	-0.188116	-2.426473	1.067932
C	0.226701	-2.059348	-1.285420
C	-0.000000	-1.478216	-0.000000
H	0.378931	-1.394783	-2.151147
C	0.397845	-6.187987	-2.234582
C	0.523637	-3.798164	-2.965273
N	0.567586	-5.170003	-3.204744
C	-0.567421	-4.424987	3.226257
C	-0.439541	-2.036627	2.489446
N	-0.609650	-3.049156	3.459801
O	0.468608	-7.353131	-2.619468
O	0.683034	-2.986854	-3.874668
O	-0.725131	-5.248946	4.124806
O	-0.512648	-0.878829	2.895819
C	0.813908	-5.563799	-4.595691
H	0.822891	-6.664085	-4.640022
H	1.781600	-5.147101	-4.934830
H	0.020360	-5.148785	-5.246157
C	-0.851649	-2.587487	4.829716
H	-0.962191	-3.483329	5.462742
H	-1.765865	-1.964972	4.863242
H	-0.005383	-1.962932	5.173521
C	0.000000	0.000000	0.000000
S	0.271091	0.745405	1.580530
C	0.831198	2.284363	0.904911
C	0.341175	0.937861	-0.985400
C	0.792631	2.178516	-0.493528
H	0.260601	0.716417	-2.059934
H	1.093860	3.006347	-1.152593
H	1.132330	3.111961	1.556025
H	-0.909181	-7.361589	-0.008120
H	0.860264	-7.361192	0.304668
H	-1.063500	-1.478831	-0.188062
$end

$rem
JOBTYPE		SP
EXCHANGE	HF
CORRELATION	pRIMP2
BASIS		cc-pvtz
METHOD		rimp2
AUX_BASIS	rimp2-cc-pvtz
SOLVENT_METHOD	PCM
PURECART	11111
SYMMETRY	false
MEM_TOTAL	110000
SCF_CONVERGENCE = 6
THRESH=10
GUI = 2
$end

$solvent
dielectric 4.90
$end
--------------------------------------------------------------

             Standard Nuclear Orientation (Angstroms)
    I     Atom           X                Y                Z
 ----------------------------------------------------------------
    1      C      -0.0431600000    -6.7414040000     0.2532800000
    2      C      -0.2697770000    -6.1556380000     1.5392130000
    3      C       0.1455430000    -5.7914520000    -0.8142950000
    4      C      -0.3183770000    -4.8037860000     1.8135190000
    5      H      -0.4220580000    -6.8215180000     2.4039410000
    6      C       0.0941940000    -4.3786380000    -0.5271400000
    7      C      -0.1371910000    -3.8380320000     0.7830720000
    8      C       0.2751040000    -3.4130620000    -1.5564030000
    9      C      -0.1881160000    -2.4264730000     1.0679320000
   10      C       0.2267010000    -2.0593480000    -1.2854200000
   11      C       0.0000000000    -1.4782160000     0.0000000000
   12      H       0.3789310000    -1.3947830000    -2.1511470000
   13      C       0.3978450000    -6.1879870000    -2.2345820000
   14      C       0.5236370000    -3.7981640000    -2.9652730000
   15      N       0.5675860000    -5.1700030000    -3.2047440000
   16      C      -0.5674210000    -4.4249870000     3.2262570000
   17      C      -0.4395410000    -2.0366270000     2.4894460000
   18      N      -0.6096500000    -3.0491560000     3.4598010000
   19      O       0.4686080000    -7.3531310000    -2.6194680000
   20      O       0.6830340000    -2.9868540000    -3.8746680000
   21      O      -0.7251310000    -5.2489460000     4.1248060000
   22      O      -0.5126480000    -0.8788290000     2.8958190000
   23      C       0.8139080000    -5.5637990000    -4.5956910000
   24      H       0.8228910000    -6.6640850000    -4.6400220000
   25      H       1.7816000000    -5.1471010000    -4.9348300000
   26      H       0.0203600000    -5.1487850000    -5.2461570000
   27      C      -0.8516490000    -2.5874870000     4.8297160000
   28      H      -0.9621910000    -3.4833290000     5.4627420000
   29      H      -1.7658650000    -1.9649720000     4.8632420000
   30      H      -0.0053830000    -1.9629320000     5.1735210000
   31      C       0.0000000000     0.0000000000     0.0000000000
   32      S       0.2710910000     0.7454050000     1.5805300000
   33      C       0.8311980000     2.2843630000     0.9049110000
   34      C       0.3411750000     0.9378610000    -0.9854000000
   35      C       0.7926310000     2.1785160000    -0.4935280000
   36      H       0.2606010000     0.7164170000    -2.0599340000
   37      H       1.0938600000     3.0063470000    -1.1525930000
   38      H       1.1323300000     3.1119610000     1.5560250000
   39      H      -0.9091810000    -7.3615890000    -0.0081200000
   40      H       0.8602640000    -7.3611920000     0.3046680000
   41      H      -1.0635000000    -1.4788310000    -0.1880620000
 ----------------------------------------------------------------

   11   -1571.6976787236      5.97e-07  Convergence criterion met
 Total energy in the final basis set =    -1571.6976787236
        RIMP2         total energy =     -1576.3666620111 a.u.

                    Orbital Energies (a.u.)
 --------------------------------------------------------------

 Alpha MOs
 -- Occupied --
-91.9705 -20.5573 -20.5467 -20.5422 -20.5415 -15.6309 -15.6221 -11.4005
-11.3875 -11.3842 -11.3800 -11.3122 -11.3098 -11.3092 -11.3060 -11.2991
-11.2924 -11.2907 -11.2702 -11.2701 -11.2664 -11.2650 -11.2599 -11.2587
-11.2541 -11.2490 -11.2390  -8.9705  -6.6510  -6.6497  -6.6488  -1.4313
 -1.4130  -1.4030  -1.3921  -1.2675  -1.2564  -1.2316  -1.1857  -1.1467
 -1.1159  -1.0865  -1.0493  -0.9946  -0.9894  -0.9762  -0.9565  -0.9481
 -0.8985  -0.8913  -0.8797  -0.8628  -0.7921  -0.7817  -0.7753  -0.7588
 -0.7313  -0.7249  -0.7019  -0.6900  -0.6879  -0.6769  -0.6689  -0.6591
 -0.6513  -0.6462  -0.6377  -0.6335  -0.6331  -0.6322  -0.6227  -0.6064
 -0.5899  -0.5726  -0.5669  -0.5626  -0.5572  -0.5547  -0.5530  -0.5498
 -0.5485  -0.5456  -0.5222  -0.5126  -0.5116  -0.4884  -0.4765  -0.4638
 -0.4560  -0.4447  -0.4378  -0.4206  -0.4085  -0.3913  -0.3552  -0.3415
 -0.3277  -0.2765

          Ground-State Mulliken Net Atomic Charges

     Atom                 Charge (a.u.)
  ----------------------------------------
      1 C                    -0.084214
      2 C                    -0.029299
      3 C                    -0.106436
      4 C                    -0.122209
      5 H                     0.199761
      6 C                     0.025853
      7 C                     0.124556
      8 C                    -0.094549
      9 C                    -0.180062
     10 C                    -0.145171
     11 C                     0.195125
     12 H                     0.190929
     13 C                     0.341374
     14 C                     0.348852
     15 N                    -0.090239
     16 C                     0.357971
     17 C                     0.380063
     18 N                    -0.088514
     19 O                    -0.494229
     20 O                    -0.508170
     21 O                    -0.499309
     22 O                    -0.456914
     23 C                    -0.204917
     24 H                     0.139726
     25 H                     0.109504
     26 H                     0.109232
     27 C                    -0.198490
     28 H                     0.134959
     29 H                     0.112559
     30 H                     0.113309
     31 C                    -0.002698
     32 S                     0.085042
     33 C                    -0.267190
     34 C                    -0.235969
     35 C                    -0.214400
     36 H                     0.178543
     37 H                     0.182597
     38 H                     0.201915
     39 H                     0.138310
     40 H                     0.138812
     41 H                     0.213987
  ----------------------------------------
  Sum of atomic charges =     0.000000

                    Cartesian Multipole Moments
 -----------------------------------------------------------------
    Charge (ESU x 10^10)
                 0.0000
    Dipole Moment (Debye)
         X      -0.9030      Y       0.4935      Z       0.9104
       Tot       1.3740
    Quadrupole Moments (Debye-Ang)
        XX    -162.5528     XY       5.7501     YY    -179.0303
        XZ       5.2554     YZ      -9.3458     ZZ    -185.7204

 Total job time:  350.29s(wall), 10433.79s(cpu)
        *  Thank you very much for using Q-Chem.  Have a nice day.  *
