 Q-Chem 5.4, Q-Chem, Inc., Pleasanton, CA (2021)
 Q-Chem 5.4.0 for Intel X86 EM64T Linux

User input:
--------------------------------------------------------------
$molecule
0 1
C	0.086486	-6.741404	-0.241938
C	0.532960	-6.155638	-1.468983
C	-0.284733	-5.791452	0.776651
C	0.628455	-4.803786	-1.730681
H	0.833086	-6.821518	-2.294130
C	-0.184300	-4.378638	0.502775
C	0.271086	-3.838032	-0.747353
C	-0.541191	-3.413062	1.484986
C	0.370703	-2.426473	-1.019042
C	-0.446468	-2.059348	1.226525
C	-0.000000	-1.478216	-0.000000
H	-0.746717	-1.394783	2.052666
C	-0.779832	-6.187987	2.131549
C	-1.030596	-3.798164	2.829295
N	-1.115461	-5.170003	3.057496
C	1.119034	-4.424987	-3.078712
C	0.865151	-2.036627	-2.375300
N	1.201176	-3.049156	-3.301374
O	-0.916355	-7.353131	2.498300
O	-1.345486	-2.986854	3.697195
O	1.430379	-5.248946	-3.936224
O	1.007714	-0.878829	-2.762805
C	-1.599576	-5.563799	4.384539
H	-1.616121	-6.664085	4.426636
H	-2.611458	-5.147101	4.550487
H	-0.931037	-5.148785	5.162921
C	1.677382	-2.587487	-4.608454
H	1.896168	-3.483329	-5.212668
H	2.583531	-1.964972	-4.482719
H	0.903674	-1.962932	-5.093988
C	0.000000	0.000000	0.000000
S	0.271091	0.745405	1.580530
C	0.831198	2.284363	0.904911
C	0.341175	0.937861	-0.985400
C	0.792631	2.178516	-0.493528
H	0.260601	0.716417	-2.059934
H	1.093860	3.006347	-1.152593
H	1.132330	3.111961	1.556025
H	0.893959	-7.361589	0.165874
H	-0.794290	-7.361192	-0.449423
H	1.014686	-1.478831	0.369880
$end

$rem
JOBTYPE		SP
EXCHANGE	HF
CORRELATION	pRIMP2
BASIS		cc-pvtz
METHOD		rimp2
AUX_BASIS	rimp2-cc-pvtz
SOLVENT_METHOD	PCM
PURECART	11111
SYMMETRY	false
MEM_TOTAL	110000
SCF_CONVERGENCE = 6
THRESH=10
GUI = 2
$end

$solvent
dielectric 4.90
$end
--------------------------------------------------------------

             Standard Nuclear Orientation (Angstroms)
    I     Atom           X                Y                Z
 ----------------------------------------------------------------
    1      C       0.0864860000    -6.7414040000    -0.2419380000
    2      C       0.5329600000    -6.1556380000    -1.4689830000
    3      C      -0.2847330000    -5.7914520000     0.7766510000
    4      C       0.6284550000    -4.8037860000    -1.7306810000
    5      H       0.8330860000    -6.8215180000    -2.2941300000
    6      C      -0.1843000000    -4.3786380000     0.5027750000
    7      C       0.2710860000    -3.8380320000    -0.7473530000
    8      C      -0.5411910000    -3.4130620000     1.4849860000
    9      C       0.3707030000    -2.4264730000    -1.0190420000
   10      C      -0.4464680000    -2.0593480000     1.2265250000
   11      C       0.0000000000    -1.4782160000     0.0000000000
   12      H      -0.7467170000    -1.3947830000     2.0526660000
   13      C      -0.7798320000    -6.1879870000     2.1315490000
   14      C      -1.0305960000    -3.7981640000     2.8292950000
   15      N      -1.1154610000    -5.1700030000     3.0574960000
   16      C       1.1190340000    -4.4249870000    -3.0787120000
   17      C       0.8651510000    -2.0366270000    -2.3753000000
   18      N       1.2011760000    -3.0491560000    -3.3013740000
   19      O      -0.9163550000    -7.3531310000     2.4983000000
   20      O      -1.3454860000    -2.9868540000     3.6971950000
   21      O       1.4303790000    -5.2489460000    -3.9362240000
   22      O       1.0077140000    -0.8788290000    -2.7628050000
   23      C      -1.5995760000    -5.5637990000     4.3845390000
   24      H      -1.6161210000    -6.6640850000     4.4266360000
   25      H      -2.6114580000    -5.1471010000     4.5504870000
   26      H      -0.9310370000    -5.1487850000     5.1629210000
   27      C       1.6773820000    -2.5874870000    -4.6084540000
   28      H       1.8961680000    -3.4833290000    -5.2126680000
   29      H       2.5835310000    -1.9649720000    -4.4827190000
   30      H       0.9036740000    -1.9629320000    -5.0939880000
   31      C       0.0000000000     0.0000000000     0.0000000000
   32      S       0.2710910000     0.7454050000     1.5805300000
   33      C       0.8311980000     2.2843630000     0.9049110000
   34      C       0.3411750000     0.9378610000    -0.9854000000
   35      C       0.7926310000     2.1785160000    -0.4935280000
   36      H       0.2606010000     0.7164170000    -2.0599340000
   37      H       1.0938600000     3.0063470000    -1.1525930000
   38      H       1.1323300000     3.1119610000     1.5560250000
   39      H       0.8939590000    -7.3615890000     0.1658740000
   40      H      -0.7942900000    -7.3611920000    -0.4494230000
   41      H       1.0146860000    -1.4788310000     0.3698800000
 ----------------------------------------------------------------

   11   -1571.7270454801      5.82e-07  Convergence criterion met
 Total energy in the final basis set =    -1571.7270454801
        RIMP2         total energy =     -1576.3866214857 a.u.

                    Orbital Energies (a.u.)
 --------------------------------------------------------------

 Alpha MOs
 -- Occupied --
-91.9880 -20.5520 -20.5457 -20.5424 -20.5414 -15.6289 -15.6218 -11.3970
-11.3864 -11.3842 -11.3799 -11.3096 -11.3090 -11.3062 -11.3053 -11.2974
-11.2931 -11.2909 -11.2780 -11.2705 -11.2690 -11.2671 -11.2643 -11.2596
-11.2535 -11.2465 -11.2386  -8.9883  -6.6692  -6.6687  -6.6680  -1.4232
 -1.4128  -1.3997  -1.3920  -1.2644  -1.2561  -1.2317  -1.1879  -1.1502
 -1.1151  -1.0871  -1.0484  -0.9958  -0.9887  -0.9816  -0.9558  -0.9492
 -0.8976  -0.8899  -0.8782  -0.8615  -0.7939  -0.7797  -0.7727  -0.7604
 -0.7407  -0.7204  -0.7027  -0.6891  -0.6801  -0.6752  -0.6680  -0.6582
 -0.6488  -0.6472  -0.6383  -0.6322  -0.6316  -0.6294  -0.6238  -0.6054
 -0.5911  -0.5710  -0.5644  -0.5602  -0.5577  -0.5524  -0.5510  -0.5486
 -0.5482  -0.5428  -0.5184  -0.5148  -0.5100  -0.4851  -0.4743  -0.4620
 -0.4576  -0.4497  -0.4430  -0.4360  -0.4155  -0.4082  -0.3566  -0.3492
 -0.3311  -0.2784

          Ground-State Mulliken Net Atomic Charges

     Atom                 Charge (a.u.)
  ----------------------------------------
      1 C                    -0.083938
      2 C                    -0.030516
      3 C                    -0.108130
      4 C                    -0.124967
      5 H                     0.199035
      6 C                     0.021772
      7 C                     0.123395
      8 C                    -0.058874
      9 C                    -0.190504
     10 C                    -0.168849
     11 C                     0.206711
     12 H                     0.180039
     13 C                     0.343175
     14 C                     0.348450
     15 N                    -0.090245
     16 C                     0.358105
     17 C                     0.383821
     18 N                    -0.087880
     19 O                    -0.493296
     20 O                    -0.505822
     21 O                    -0.500574
     22 O                    -0.478795
     23 C                    -0.204667
     24 H                     0.139475
     25 H                     0.109527
     26 H                     0.109493
     27 C                    -0.198716
     28 H                     0.134405
     29 H                     0.111629
     30 H                     0.111952
     31 C                    -0.019136
     32 S                    -0.002611
     33 C                    -0.237222
     34 C                    -0.203781
     35 C                    -0.196663
     36 H                     0.205702
     37 H                     0.190925
     38 H                     0.213357
     39 H                     0.138043
     40 H                     0.138465
     41 H                     0.217712
  ----------------------------------------
  Sum of atomic charges =     0.000000

                    Cartesian Multipole Moments
 -----------------------------------------------------------------
    Charge (ESU x 10^10)
                 0.0000
    Dipole Moment (Debye)
         X       1.8651      Y       1.5370      Z      -2.0217
       Tot       3.1509
    Quadrupole Moments (Debye-Ang)
        XX    -164.9714     XY      -0.7750     YY    -177.4716
        XZ      10.3533     YZ       8.2164     ZZ    -185.0285

 Total job time:  312.72s(wall), 9156.02s(cpu)
        *  Thank you very much for using Q-Chem.  Have a nice day.  *
