 Q-Chem 5.4, Q-Chem, Inc., Pleasanton, CA (2021)
 Q-Chem 5.4.0 for Intel X86 EM64T Linux

User input:
--------------------------------------------------------------
$molecule
0 1
C	-0.223244	-6.741404	-0.127184
C	-1.354118	-6.155638	-0.779949
C	0.715408	-5.791452	0.415271
C	-1.595259	-4.803786	-0.919437
H	-2.114613	-6.821518	-1.218801
C	0.463133	-4.378638	0.268806
C	-0.688925	-3.838032	-0.396744
C	1.368449	-3.413062	0.790835
C	-0.939189	-2.426473	-0.542026
C	1.130363	-2.059348	0.652669
C	0.000000	-1.478216	0.000000
H	1.891815	-1.394783	1.091814
C	1.963749	-6.187987	1.138124
C	2.607351	-3.798164	1.506241
N	2.817348	-5.170003	1.629443
C	-2.837621	-4.424987	-1.636646
C	-2.188982	-2.036627	-1.264474
N	-3.042637	-3.049156	-1.756205
O	2.301222	-7.353131	1.336258
O	3.407386	-2.986854	1.967056
O	-3.628041	-5.248946	-2.092167
O	-2.545844	-0.878829	-1.472160
C	4.040164	-5.563799	2.336642
H	4.078749	-6.664085	2.360245
H	4.027880	-5.147101	3.361968
H	4.922811	-5.148785	1.813424
C	-4.247167	-2.587487	-2.452149
H	-4.804209	-3.483329	-2.772531
H	-3.965991	-1.964972	-3.322697
H	-4.859678	-1.962932	-1.774507
C	0.000000	0.000000	0.000000
S	0.509686	0.607733	1.580530
C	1.562368	1.862312	0.904911
C	0.641367	0.764613	-0.985400
C	1.489926	1.776040	-0.493528
H	0.489914	0.584081	-2.059934
H	2.056124	2.450920	-1.152593
H	2.128395	2.537007	1.556025
H	0.318588	-7.361589	-0.851574
H	-0.580522	-7.361192	0.704181
H	0.540459	-1.478831	-0.935042
$end

$rem
JOBTYPE		SP
EXCHANGE	HF
CORRELATION	pRIMP2
BASIS		cc-pvtz
METHOD		rimp2
AUX_BASIS	rimp2-cc-pvtz
SOLVENT_METHOD	PCM
PURECART	11111
SYMMETRY	false
MEM_TOTAL	110000
SCF_CONVERGENCE = 6
THRESH=10
GUI = 2
$end

$solvent
dielectric 4.90
$end
--------------------------------------------------------------

             Standard Nuclear Orientation (Angstroms)
    I     Atom           X                Y                Z
 ----------------------------------------------------------------
    1      C      -0.2232440000    -6.7414040000    -0.1271840000
    2      C      -1.3541180000    -6.1556380000    -0.7799490000
    3      C       0.7154080000    -5.7914520000     0.4152710000
    4      C      -1.5952590000    -4.8037860000    -0.9194370000
    5      H      -2.1146130000    -6.8215180000    -1.2188010000
    6      C       0.4631330000    -4.3786380000     0.2688060000
    7      C      -0.6889250000    -3.8380320000    -0.3967440000
    8      C       1.3684490000    -3.4130620000     0.7908350000
    9      C      -0.9391890000    -2.4264730000    -0.5420260000
   10      C       1.1303630000    -2.0593480000     0.6526690000
   11      C       0.0000000000    -1.4782160000     0.0000000000
   12      H       1.8918150000    -1.3947830000     1.0918140000
   13      C       1.9637490000    -6.1879870000     1.1381240000
   14      C       2.6073510000    -3.7981640000     1.5062410000
   15      N       2.8173480000    -5.1700030000     1.6294430000
   16      C      -2.8376210000    -4.4249870000    -1.6366460000
   17      C      -2.1889820000    -2.0366270000    -1.2644740000
   18      N      -3.0426370000    -3.0491560000    -1.7562050000
   19      O       2.3012220000    -7.3531310000     1.3362580000
   20      O       3.4073860000    -2.9868540000     1.9670560000
   21      O      -3.6280410000    -5.2489460000    -2.0921670000
   22      O      -2.5458440000    -0.8788290000    -1.4721600000
   23      C       4.0401640000    -5.5637990000     2.3366420000
   24      H       4.0787490000    -6.6640850000     2.3602450000
   25      H       4.0278800000    -5.1471010000     3.3619680000
   26      H       4.9228110000    -5.1487850000     1.8134240000
   27      C      -4.2471670000    -2.5874870000    -2.4521490000
   28      H      -4.8042090000    -3.4833290000    -2.7725310000
   29      H      -3.9659910000    -1.9649720000    -3.3226970000
   30      H      -4.8596780000    -1.9629320000    -1.7745070000
   31      C       0.0000000000     0.0000000000     0.0000000000
   32      S       0.5096860000     0.6077330000     1.5805300000
   33      C       1.5623680000     1.8623120000     0.9049110000
   34      C       0.6413670000     0.7646130000    -0.9854000000
   35      C       1.4899260000     1.7760400000    -0.4935280000
   36      H       0.4899140000     0.5840810000    -2.0599340000
   37      H       2.0561240000     2.4509200000    -1.1525930000
   38      H       2.1283950000     2.5370070000     1.5560250000
   39      H       0.3185880000    -7.3615890000    -0.8515740000
   40      H      -0.5805220000    -7.3611920000     0.7041810000
   41      H       0.5404590000    -1.4788310000    -0.9350420000
 ----------------------------------------------------------------

   11   -1571.7159892137      5.70e-07  Convergence criterion met
 Total energy in the final basis set =    -1571.7159892137
        RIMP2         total energy =     -1576.3792832603 a.u.

                    Orbital Energies (a.u.)
 --------------------------------------------------------------

 Alpha MOs
 -- Occupied --
-91.9904 -20.5528 -20.5438 -20.5402 -20.5397 -15.6266 -15.6203 -11.3932
-11.3844 -11.3820 -11.3782 -11.3060 -11.3048 -11.3031 -11.3025 -11.2943
-11.2908 -11.2902 -11.2866 -11.2665 -11.2662 -11.2630 -11.2627 -11.2618
-11.2589 -11.2540 -11.2511  -8.9906  -6.6714  -6.6708  -6.6704  -1.4193
 -1.4111  -1.3968  -1.3903  -1.2616  -1.2544  -1.2308  -1.1906  -1.1521
 -1.1125  -1.0846  -1.0453  -0.9977  -0.9909  -0.9868  -0.9546  -0.9489
 -0.8958  -0.8864  -0.8750  -0.8576  -0.7956  -0.7784  -0.7696  -0.7633
 -0.7411  -0.7173  -0.7031  -0.6914  -0.6829  -0.6707  -0.6658  -0.6565
 -0.6460  -0.6438  -0.6347  -0.6329  -0.6296  -0.6265  -0.6211  -0.6040
 -0.5851  -0.5767  -0.5698  -0.5609  -0.5557  -0.5507  -0.5505  -0.5489
 -0.5469  -0.5428  -0.5207  -0.5097  -0.5038  -0.4844  -0.4754  -0.4663
 -0.4573  -0.4506  -0.4418  -0.4333  -0.4131  -0.4066  -0.3598  -0.3469
 -0.3319  -0.2836

          Ground-State Mulliken Net Atomic Charges

     Atom                 Charge (a.u.)
  ----------------------------------------
      1 C                    -0.085315
      2 C                    -0.034760
      3 C                    -0.113269
      4 C                    -0.119161
      5 H                     0.197745
      6 C                     0.017418
      7 C                     0.113825
      8 C                    -0.095493
      9 C                    -0.175675
     10 C                    -0.132818
     11 C                     0.164660
     12 H                     0.198429
     13 C                     0.341880
     14 C                     0.345143
     15 N                    -0.089435
     16 C                     0.356656
     17 C                     0.353560
     18 N                    -0.091119
     19 O                    -0.496499
     20 O                    -0.508875
     21 O                    -0.501889
     22 O                    -0.472752
     23 C                    -0.205275
     24 H                     0.139363
     25 H                     0.109026
     26 H                     0.108578
     27 C                    -0.197794
     28 H                     0.133248
     29 H                     0.110669
     30 H                     0.112107
     31 C                     0.000103
     32 S                     0.009278
     33 C                    -0.188474
     34 C                    -0.161933
     35 C                    -0.214134
     36 H                     0.186240
     37 H                     0.193701
     38 H                     0.212505
     39 H                     0.136040
     40 H                     0.136295
     41 H                     0.208202
  ----------------------------------------
  Sum of atomic charges =     0.000000

                    Cartesian Multipole Moments
 -----------------------------------------------------------------
    Charge (ESU x 10^10)
                 0.0000
    Dipole Moment (Debye)
         X       1.1834      Y       2.6148      Z      -2.1249
       Tot       3.5712
    Quadrupole Moments (Debye-Ang)
        XX    -183.2278     XY      12.9757     YY    -185.3997
        XZ     -14.1420     YZ       6.1502     ZZ    -164.2296

 Total job time:  302.00s(wall), 8703.45s(cpu)
        *  Thank you very much for using Q-Chem.  Have a nice day.  *
