 Q-Chem 5.4, Q-Chem, Inc., Pleasanton, CA (2021)
 Q-Chem 5.4.0 for Intel X86 EM64T Linux

User input:
--------------------------------------------------------------
$molecule
0 1
C	0.089263	-6.741404	0.240927
C	0.535973	-6.155638	1.467886
C	-0.281103	-5.791452	-0.777972
C	0.631036	-4.803786	1.729742
H	0.836458	-6.821518	2.292903
C	-0.181995	-4.378638	-0.503614
C	0.272725	-3.838032	0.746756
C	-0.539954	-3.413062	-1.485437
C	0.371053	-2.426473	1.018915
C	-0.446381	-2.059348	-1.226557
C	-0.000000	-1.478216	-0.000000
H	-0.747410	-1.394783	-2.052413
C	-0.772747	-6.187987	-2.134128
C	-1.029154	-3.798164	-2.829820
N	-1.110828	-5.170003	-3.059182
C	1.121728	-4.424987	3.077731
C	0.864069	-2.036627	2.375694
N	1.201928	-3.049156	3.301101
O	-0.903908	-7.353131	-2.502830
O	-1.345809	-2.986854	-3.697078
O	1.434422	-5.248946	3.934752
O	1.003943	-0.878829	2.764177
C	-1.592981	-5.563799	-4.386939
H	-1.607367	-6.664085	-4.429822
H	-0.924504	-5.147101	-5.164489
H	-2.605446	-5.148785	-4.553486
C	1.677308	-2.587487	4.608481
H	1.898089	-3.483329	5.211969
H	0.902337	-1.964972	5.094624
H	2.582098	-1.962932	4.483092
C	0.000000	0.000000	0.000000
S	0.335026	0.718942	1.580530
C	1.027130	2.203226	0.904911
C	0.421617	0.904557	-0.985400
C	0.979485	2.101144	-0.493528
H	0.322049	0.690978	-2.059934
H	1.351718	2.899571	-1.152593
H	1.399246	3.001430	1.556025
H	-0.791434	-7.361589	0.447559
H	0.897345	-7.361192	-0.166282
H	-1.015049	-1.478831	0.368883
$end

$rem
JOBTYPE		SP
EXCHANGE	HF
CORRELATION	pRIMP2
BASIS		cc-pvtz
METHOD		rimp2
AUX_BASIS	rimp2-cc-pvtz
SOLVENT_METHOD	PCM
PURECART	11111
SYMMETRY	false
MEM_TOTAL	110000
SCF_CONVERGENCE = 6
THRESH=10
GUI = 2
$end

$solvent
dielectric 4.90
$end
--------------------------------------------------------------

             Standard Nuclear Orientation (Angstroms)
    I     Atom           X                Y                Z
 ----------------------------------------------------------------
    1      C       0.0892630000    -6.7414040000     0.2409270000
    2      C       0.5359730000    -6.1556380000     1.4678860000
    3      C      -0.2811030000    -5.7914520000    -0.7779720000
    4      C       0.6310360000    -4.8037860000     1.7297420000
    5      H       0.8364580000    -6.8215180000     2.2929030000
    6      C      -0.1819950000    -4.3786380000    -0.5036140000
    7      C       0.2727250000    -3.8380320000     0.7467560000
    8      C      -0.5399540000    -3.4130620000    -1.4854370000
    9      C       0.3710530000    -2.4264730000     1.0189150000
   10      C      -0.4463810000    -2.0593480000    -1.2265570000
   11      C       0.0000000000    -1.4782160000     0.0000000000
   12      H      -0.7474100000    -1.3947830000    -2.0524130000
   13      C      -0.7727470000    -6.1879870000    -2.1341280000
   14      C      -1.0291540000    -3.7981640000    -2.8298200000
   15      N      -1.1108280000    -5.1700030000    -3.0591820000
   16      C       1.1217280000    -4.4249870000     3.0777310000
   17      C       0.8640690000    -2.0366270000     2.3756940000
   18      N       1.2019280000    -3.0491560000     3.3011010000
   19      O      -0.9039080000    -7.3531310000    -2.5028300000
   20      O      -1.3458090000    -2.9868540000    -3.6970780000
   21      O       1.4344220000    -5.2489460000     3.9347520000
   22      O       1.0039430000    -0.8788290000     2.7641770000
   23      C      -1.5929810000    -5.5637990000    -4.3869390000
   24      H      -1.6073670000    -6.6640850000    -4.4298220000
   25      H      -0.9245040000    -5.1471010000    -5.1644890000
   26      H      -2.6054460000    -5.1487850000    -4.5534860000
   27      C       1.6773080000    -2.5874870000     4.6084810000
   28      H       1.8980890000    -3.4833290000     5.2119690000
   29      H       0.9023370000    -1.9649720000     5.0946240000
   30      H       2.5820980000    -1.9629320000     4.4830920000
   31      C       0.0000000000     0.0000000000     0.0000000000
   32      S       0.3350260000     0.7189420000     1.5805300000
   33      C       1.0271300000     2.2032260000     0.9049110000
   34      C       0.4216170000     0.9045570000    -0.9854000000
   35      C       0.9794850000     2.1011440000    -0.4935280000
   36      H       0.3220490000     0.6909780000    -2.0599340000
   37      H       1.3517180000     2.8995710000    -1.1525930000
   38      H       1.3992460000     3.0014300000     1.5560250000
   39      H      -0.7914340000    -7.3615890000     0.4475590000
   40      H       0.8973450000    -7.3611920000    -0.1662820000
   41      H      -1.0150490000    -1.4788310000     0.3688830000
 ----------------------------------------------------------------

   11   -1571.6574757630      6.31e-07  Convergence criterion met
 Total energy in the final basis set =    -1571.6574757630
        RIMP2         total energy =     -1576.3366061604 a.u.

                    Orbital Energies (a.u.)
 --------------------------------------------------------------

 Alpha MOs
 -- Occupied --
-91.9734 -20.5563 -20.5473 -20.5416 -20.5406 -15.6323 -15.6216 -11.4035
-11.3880 -11.3836 -11.3792 -11.3122 -11.3091 -11.3087 -11.3057 -11.2994
-11.2875 -11.2807 -11.2703 -11.2692 -11.2659 -11.2650 -11.2621 -11.2596
-11.2539 -11.2440 -11.2317  -8.9738  -6.6542  -6.6528  -6.6518  -1.4367
 -1.4123  -1.4045  -1.3914  -1.2697  -1.2559  -1.2305  -1.1842  -1.1446
 -1.1154  -1.0853  -1.0490  -0.9945  -0.9894  -0.9754  -0.9567  -0.9469
 -0.8994  -0.8901  -0.8799  -0.8630  -0.7906  -0.7826  -0.7763  -0.7588
 -0.7308  -0.7276  -0.7014  -0.6909  -0.6879  -0.6739  -0.6686  -0.6591
 -0.6520  -0.6440  -0.6382  -0.6328  -0.6323  -0.6317  -0.6244  -0.6058
 -0.5894  -0.5719  -0.5664  -0.5639  -0.5564  -0.5541  -0.5533  -0.5494
 -0.5481  -0.5455  -0.5210  -0.5145  -0.5115  -0.4880  -0.4746  -0.4635
 -0.4556  -0.4440  -0.4384  -0.4223  -0.4079  -0.3976  -0.3550  -0.3257
 -0.3074  -0.2756

          Ground-State Mulliken Net Atomic Charges

     Atom                 Charge (a.u.)
  ----------------------------------------
      1 C                    -0.084405
      2 C                    -0.026777
      3 C                    -0.112199
      4 C                    -0.123701
      5 H                     0.199768
      6 C                     0.022416
      7 C                     0.124992
      8 C                    -0.102716
      9 C                    -0.229290
     10 C                    -0.132943
     11 C                     0.207300
     12 H                     0.195175
     13 C                     0.342438
     14 C                     0.348335
     15 N                    -0.089894
     16 C                     0.358516
     17 C                     0.411475
     18 N                    -0.088645
     19 O                    -0.495286
     20 O                    -0.508120
     21 O                    -0.498691
     22 O                    -0.428804
     23 C                    -0.204861
     24 H                     0.139480
     25 H                     0.109335
     26 H                     0.109138
     27 C                    -0.199719
     28 H                     0.135351
     29 H                     0.113102
     30 H                     0.113377
     31 C                    -0.079145
     32 S                     0.078150
     33 C                    -0.234922
     34 C                    -0.167491
     35 C                    -0.256099
     36 H                     0.180922
     37 H                     0.179774
     38 H                     0.202700
     39 H                     0.138297
     40 H                     0.138587
     41 H                     0.215081
  ----------------------------------------
  Sum of atomic charges =     0.000000

                    Cartesian Multipole Moments
 -----------------------------------------------------------------
    Charge (ESU x 10^10)
                 0.0000
    Dipole Moment (Debye)
         X       0.6496      Y       0.2677      Z       2.0916
       Tot       2.2065
    Quadrupole Moments (Debye-Ang)
        XX    -164.5405     XY       0.8313     YY    -180.6326
        XZ      -8.4789     YZ      -9.9909     ZZ    -181.9013

 Total job time:  315.50s(wall), 9109.78s(cpu)
        *  Thank you very much for using Q-Chem.  Have a nice day.  *
