 Q-Chem 5.4, Q-Chem, Inc., Pleasanton, CA (2021)
 Q-Chem 5.4.0 for Intel X86 EM64T Linux

User input:
--------------------------------------------------------------
$molecule
0 1
C	-0.043160	-6.741404	0.253280
C	-0.269777	-6.155638	1.539213
C	0.145543	-5.791452	-0.814295
C	-0.318377	-4.803786	1.813519
H	-0.422058	-6.821518	2.403941
C	0.094194	-4.378638	-0.527140
C	-0.137191	-3.838032	0.783072
C	0.275104	-3.413062	-1.556403
C	-0.188116	-2.426473	1.067932
C	0.226701	-2.059348	-1.285420
C	0.000000	-1.478216	0.000000
H	0.378931	-1.394783	-2.151147
C	0.397845	-6.187987	-2.234582
C	0.523637	-3.798164	-2.965273
N	0.567586	-5.170003	-3.204744
C	-0.567421	-4.424987	3.226257
C	-0.439541	-2.036627	2.489446
N	-0.609650	-3.049156	3.459801
O	0.468608	-7.353131	-2.619468
O	0.683034	-2.986854	-3.874668
O	-0.725131	-5.248946	4.124806
O	-0.512648	-0.878829	2.895819
C	0.813908	-5.563799	-4.595691
H	0.822891	-6.664085	-4.640022
H	1.781600	-5.147101	-4.934830
H	0.020360	-5.148785	-5.246157
C	-0.851649	-2.587487	4.829716
H	-0.962191	-3.483329	5.462742
H	-1.765865	-1.964972	4.863242
H	-0.005383	-1.962932	5.173521
C	0.000000	0.000000	0.000000
S	0.205093	0.766196	1.580530
C	0.628939	2.348114	0.904911
C	0.258137	0.964028	-0.985400
C	0.599745	2.239309	-0.493528
H	0.197169	0.736404	-2.059934
H	0.827678	3.090243	-1.152593
H	0.856796	3.198808	1.556025
H	-0.909181	-7.361589	-0.008120
H	0.860264	-7.361192	0.304668
H	-1.063500	-1.478831	-0.188062
$end

$rem
JOBTYPE		SP
EXCHANGE	HF
CORRELATION	pRIMP2
BASIS		cc-pvtz
METHOD		rimp2
AUX_BASIS	rimp2-cc-pvtz
SOLVENT_METHOD	PCM
PURECART	11111
SYMMETRY	false
MEM_TOTAL	110000
SCF_CONVERGENCE = 6
THRESH=10
GUI = 2
$end

$solvent
dielectric 4.90
$end
--------------------------------------------------------------

             Standard Nuclear Orientation (Angstroms)
    I     Atom           X                Y                Z
 ----------------------------------------------------------------
    1      C      -0.0431600000    -6.7414040000     0.2532800000
    2      C      -0.2697770000    -6.1556380000     1.5392130000
    3      C       0.1455430000    -5.7914520000    -0.8142950000
    4      C      -0.3183770000    -4.8037860000     1.8135190000
    5      H      -0.4220580000    -6.8215180000     2.4039410000
    6      C       0.0941940000    -4.3786380000    -0.5271400000
    7      C      -0.1371910000    -3.8380320000     0.7830720000
    8      C       0.2751040000    -3.4130620000    -1.5564030000
    9      C      -0.1881160000    -2.4264730000     1.0679320000
   10      C       0.2267010000    -2.0593480000    -1.2854200000
   11      C       0.0000000000    -1.4782160000     0.0000000000
   12      H       0.3789310000    -1.3947830000    -2.1511470000
   13      C       0.3978450000    -6.1879870000    -2.2345820000
   14      C       0.5236370000    -3.7981640000    -2.9652730000
   15      N       0.5675860000    -5.1700030000    -3.2047440000
   16      C      -0.5674210000    -4.4249870000     3.2262570000
   17      C      -0.4395410000    -2.0366270000     2.4894460000
   18      N      -0.6096500000    -3.0491560000     3.4598010000
   19      O       0.4686080000    -7.3531310000    -2.6194680000
   20      O       0.6830340000    -2.9868540000    -3.8746680000
   21      O      -0.7251310000    -5.2489460000     4.1248060000
   22      O      -0.5126480000    -0.8788290000     2.8958190000
   23      C       0.8139080000    -5.5637990000    -4.5956910000
   24      H       0.8228910000    -6.6640850000    -4.6400220000
   25      H       1.7816000000    -5.1471010000    -4.9348300000
   26      H       0.0203600000    -5.1487850000    -5.2461570000
   27      C      -0.8516490000    -2.5874870000     4.8297160000
   28      H      -0.9621910000    -3.4833290000     5.4627420000
   29      H      -1.7658650000    -1.9649720000     4.8632420000
   30      H      -0.0053830000    -1.9629320000     5.1735210000
   31      C       0.0000000000     0.0000000000     0.0000000000
   32      S       0.2050930000     0.7661960000     1.5805300000
   33      C       0.6289390000     2.3481140000     0.9049110000
   34      C       0.2581370000     0.9640280000    -0.9854000000
   35      C       0.5997450000     2.2393090000    -0.4935280000
   36      H       0.1971690000     0.7364040000    -2.0599340000
   37      H       0.8276780000     3.0902430000    -1.1525930000
   38      H       0.8567960000     3.1988080000     1.5560250000
   39      H      -0.9091810000    -7.3615890000    -0.0081200000
   40      H       0.8602640000    -7.3611920000     0.3046680000
   41      H      -1.0635000000    -1.4788310000    -0.1880620000
 ----------------------------------------------------------------

   11   -1571.7002416581      5.98e-07  Convergence criterion met
 Total energy in the final basis set =    -1571.7002416581
        RIMP2         total energy =     -1576.3682983428 a.u.

                    Orbital Energies (a.u.)
 --------------------------------------------------------------

 Alpha MOs
 -- Occupied --
-91.9702 -20.5571 -20.5468 -20.5426 -20.5417 -15.6311 -15.6223 -11.4008
-11.3876 -11.3845 -11.3803 -11.3127 -11.3101 -11.3094 -11.3063 -11.2994
-11.2939 -11.2915 -11.2708 -11.2704 -11.2668 -11.2651 -11.2601 -11.2569
-11.2543 -11.2477 -11.2384  -8.9702  -6.6507  -6.6494  -6.6485  -1.4315
 -1.4132  -1.4031  -1.3924  -1.2677  -1.2567  -1.2319  -1.1857  -1.1464
 -1.1162  -1.0868  -1.0495  -0.9946  -0.9896  -0.9756  -0.9567  -0.9481
 -0.8987  -0.8915  -0.8799  -0.8631  -0.7924  -0.7818  -0.7755  -0.7583
 -0.7316  -0.7252  -0.7020  -0.6898  -0.6881  -0.6771  -0.6690  -0.6593
 -0.6515  -0.6466  -0.6378  -0.6338  -0.6333  -0.6324  -0.6229  -0.6064
 -0.5900  -0.5725  -0.5669  -0.5628  -0.5565  -0.5546  -0.5532  -0.5500
 -0.5487  -0.5457  -0.5216  -0.5130  -0.5121  -0.4882  -0.4781  -0.4641
 -0.4562  -0.4449  -0.4380  -0.4205  -0.4086  -0.3908  -0.3555  -0.3405
 -0.3274  -0.2768

          Ground-State Mulliken Net Atomic Charges

     Atom                 Charge (a.u.)
  ----------------------------------------
      1 C                    -0.084223
      2 C                    -0.029247
      3 C                    -0.105724
      4 C                    -0.121877
      5 H                     0.199905
      6 C                     0.025286
      7 C                     0.127421
      8 C                    -0.094266
      9 C                    -0.177793
     10 C                    -0.151438
     11 C                     0.205348
     12 H                     0.191251
     13 C                     0.341641
     14 C                     0.349270
     15 N                    -0.090320
     16 C                     0.358176
     17 C                     0.379503
     18 N                    -0.088529
     19 O                    -0.493776
     20 O                    -0.507727
     21 O                    -0.499202
     22 O                    -0.455211
     23 C                    -0.204850
     24 H                     0.139751
     25 H                     0.109584
     26 H                     0.109304
     27 C                    -0.198567
     28 H                     0.134982
     29 H                     0.112659
     30 H                     0.113357
     31 C                    -0.016598
     32 S                     0.083584
     33 C                    -0.268880
     34 C                    -0.225749
     35 C                    -0.220713
     36 H                     0.178093
     37 H                     0.181812
     38 H                     0.201744
     39 H                     0.138543
     40 H                     0.139063
     41 H                     0.214417
  ----------------------------------------
  Sum of atomic charges =     0.000000

                    Cartesian Multipole Moments
 -----------------------------------------------------------------
    Charge (ESU x 10^10)
                 0.0000
    Dipole Moment (Debye)
         X      -1.0248      Y       0.3091      Z       0.9200
       Tot       1.4115
    Quadrupole Moments (Debye-Ang)
        XX    -162.9842     XY       5.1040     YY    -178.1216
        XZ       5.1532     YZ      -9.2849     ZZ    -185.6127

 Total job time:  299.55s(wall), 8939.86s(cpu)
        *  Thank you very much for using Q-Chem.  Have a nice day.  *
