 Q-Chem 5.4, Q-Chem, Inc., Pleasanton, CA (2021)
 Q-Chem 5.4.0 for Intel X86 EM64T Linux

User input:
--------------------------------------------------------------
$molecule
0 1
C	-0.129743	-6.741404	-0.221766
C	-0.782726	-6.155638	-1.352515
C	0.411926	-5.791452	0.717339
C	-0.921816	-4.803786	-1.593885
H	-1.221908	-6.821518	-2.112819
C	0.266682	-4.378638	0.464360
C	-0.398255	-3.838032	-0.688053
C	0.789694	-3.413062	1.369108
C	-0.542349	-2.426473	-0.939002
C	0.652589	-2.059348	1.130409
C	0.000000	-1.478216	0.000000
H	1.092453	-1.394783	1.891446
C	1.131595	-6.187987	1.967519
C	1.504912	-3.798164	2.608118
N	1.625174	-5.170003	2.819813
C	-1.639129	-4.424987	-2.836188
C	-1.263477	-2.036627	-2.189558
N	-1.756898	-3.049156	-3.042237
O	1.324787	-7.353131	2.307845
O	1.967354	-2.986854	3.407213
O	-2.095892	-5.248946	-3.625890
O	-1.468685	-0.878829	-2.547850
C	2.330564	-5.563799	4.043674
H	2.352178	-6.664085	4.083407
H	1.807263	-5.147101	4.925490
H	3.356568	-5.148785	4.031877
C	-2.452080	-2.587487	-4.247206
H	-2.774302	-3.483329	-4.803187
H	-1.773301	-1.964972	-4.860536
H	-3.321351	-1.962932	-3.966607
C	0.000000	0.000000	0.000000
S	0.205093	0.766196	1.580530
C	0.628939	2.348114	0.904911
C	0.258137	0.964028	-0.985400
C	0.599745	2.239309	-0.493528
H	0.197169	0.736404	-2.059934
H	0.827678	3.090243	-1.152593
H	0.856796	3.198808	1.556025
H	0.701693	-7.361589	-0.578191
H	-0.854838	-7.361192	0.319578
H	0.935572	-1.478831	-0.539540
$end

$rem
JOBTYPE		SP
EXCHANGE	HF
CORRELATION	pRIMP2
BASIS		cc-pvtz
METHOD		rimp2
AUX_BASIS	rimp2-cc-pvtz
SOLVENT_METHOD	PCM
PURECART	11111
SYMMETRY	false
MEM_TOTAL	110000
SCF_CONVERGENCE = 6
THRESH=10
GUI = 2
$end

$solvent
dielectric 4.90
$end
--------------------------------------------------------------

             Standard Nuclear Orientation (Angstroms)
    I     Atom           X                Y                Z
 ----------------------------------------------------------------
    1      C      -0.1297430000    -6.7414040000    -0.2217660000
    2      C      -0.7827260000    -6.1556380000    -1.3525150000
    3      C       0.4119260000    -5.7914520000     0.7173390000
    4      C      -0.9218160000    -4.8037860000    -1.5938850000
    5      H      -1.2219080000    -6.8215180000    -2.1128190000
    6      C       0.2666820000    -4.3786380000     0.4643600000
    7      C      -0.3982550000    -3.8380320000    -0.6880530000
    8      C       0.7896940000    -3.4130620000     1.3691080000
    9      C      -0.5423490000    -2.4264730000    -0.9390020000
   10      C       0.6525890000    -2.0593480000     1.1304090000
   11      C       0.0000000000    -1.4782160000     0.0000000000
   12      H       1.0924530000    -1.3947830000     1.8914460000
   13      C       1.1315950000    -6.1879870000     1.9675190000
   14      C       1.5049120000    -3.7981640000     2.6081180000
   15      N       1.6251740000    -5.1700030000     2.8198130000
   16      C      -1.6391290000    -4.4249870000    -2.8361880000
   17      C      -1.2634770000    -2.0366270000    -2.1895580000
   18      N      -1.7568980000    -3.0491560000    -3.0422370000
   19      O       1.3247870000    -7.3531310000     2.3078450000
   20      O       1.9673540000    -2.9868540000     3.4072130000
   21      O      -2.0958920000    -5.2489460000    -3.6258900000
   22      O      -1.4686850000    -0.8788290000    -2.5478500000
   23      C       2.3305640000    -5.5637990000     4.0436740000
   24      H       2.3521780000    -6.6640850000     4.0834070000
   25      H       1.8072630000    -5.1471010000     4.9254900000
   26      H       3.3565680000    -5.1487850000     4.0318770000
   27      C      -2.4520800000    -2.5874870000    -4.2472060000
   28      H      -2.7743020000    -3.4833290000    -4.8031870000
   29      H      -1.7733010000    -1.9649720000    -4.8605360000
   30      H      -3.3213510000    -1.9629320000    -3.9666070000
   31      C       0.0000000000     0.0000000000     0.0000000000
   32      S       0.2050930000     0.7661960000     1.5805300000
   33      C       0.6289390000     2.3481140000     0.9049110000
   34      C       0.2581370000     0.9640280000    -0.9854000000
   35      C       0.5997450000     2.2393090000    -0.4935280000
   36      H       0.1971690000     0.7364040000    -2.0599340000
   37      H       0.8276780000     3.0902430000    -1.1525930000
   38      H       0.8567960000     3.1988080000     1.5560250000
   39      H       0.7016930000    -7.3615890000    -0.5781910000
   40      H      -0.8548380000    -7.3611920000     0.3195780000
   41      H       0.9355720000    -1.4788310000    -0.5395400000
 ----------------------------------------------------------------

   11   -1571.7379867480      5.81e-07  Convergence criterion met
 Total energy in the final basis set =    -1571.7379867480
        RIMP2         total energy =     -1576.3961925870 a.u.

                    Orbital Energies (a.u.)
 --------------------------------------------------------------

 Alpha MOs
 -- Occupied --
-91.9908 -20.5532 -20.5451 -20.5419 -20.5409 -15.6279 -15.6215 -11.3950
-11.3858 -11.3837 -11.3795 -11.3093 -11.3079 -11.3056 -11.3048 -11.2990
-11.2971 -11.2919 -11.2775 -11.2694 -11.2686 -11.2660 -11.2636 -11.2595
-11.2531 -11.2495 -11.2465  -8.9907  -6.6715  -6.6710  -6.6704  -1.4210
 -1.4124  -1.3984  -1.3916  -1.2631  -1.2557  -1.2315  -1.1881  -1.1514
 -1.1147  -1.0870  -1.0478  -0.9958  -0.9883  -0.9844  -0.9555  -0.9498
 -0.8974  -0.8893  -0.8774  -0.8605  -0.7959  -0.7798  -0.7716  -0.7593
 -0.7401  -0.7163  -0.7020  -0.6915  -0.6829  -0.6724  -0.6676  -0.6576
 -0.6479  -0.6462  -0.6377  -0.6321  -0.6312  -0.6285  -0.6230  -0.6048
 -0.5899  -0.5736  -0.5649  -0.5607  -0.5581  -0.5520  -0.5506  -0.5496
 -0.5479  -0.5435  -0.5171  -0.5142  -0.5122  -0.4860  -0.4760  -0.4637
 -0.4579  -0.4517  -0.4431  -0.4352  -0.4142  -0.4079  -0.3547  -0.3520
 -0.3315  -0.2802

          Ground-State Mulliken Net Atomic Charges

     Atom                 Charge (a.u.)
  ----------------------------------------
      1 C                    -0.084835
      2 C                    -0.030406
      3 C                    -0.108900
      4 C                    -0.125407
      5 H                     0.199158
      6 C                     0.022977
      7 C                     0.116708
      8 C                    -0.066386
      9 C                    -0.186729
     10 C                    -0.159922
     11 C                     0.181181
     12 H                     0.186783
     13 C                     0.342041
     14 C                     0.347124
     15 N                    -0.089933
     16 C                     0.357510
     17 C                     0.356598
     18 N                    -0.089965
     19 O                    -0.494236
     20 O                    -0.506805
     21 O                    -0.501110
     22 O                    -0.475481
     23 C                    -0.204837
     24 H                     0.139474
     25 H                     0.109510
     26 H                     0.109177
     27 C                    -0.197881
     28 H                     0.133805
     29 H                     0.110890
     30 H                     0.112335
     31 C                     0.002746
     32 S                     0.004361
     33 C                    -0.210360
     34 C                    -0.160604
     35 C                    -0.225641
     36 H                     0.192761
     37 H                     0.189979
     38 H                     0.212355
     39 H                     0.137725
     40 H                     0.137997
     41 H                     0.216243
  ----------------------------------------
  Sum of atomic charges =     0.000000

                    Cartesian Multipole Moments
 -----------------------------------------------------------------
    Charge (ESU x 10^10)
                 0.0000
    Dipole Moment (Debye)
         X       0.7568      Y       1.7899      Z      -2.2910
       Tot       3.0042
    Quadrupole Moments (Debye-Ang)
        XX    -170.0945     XY       5.7920     YY    -178.0453
        XZ     -14.2240     YZ       8.8567     ZZ    -180.9733

 Total job time:  305.95s(wall), 8953.61s(cpu)
        *  Thank you very much for using Q-Chem.  Have a nice day.  *
