 Q-Chem 5.4, Q-Chem, Inc., Pleasanton, CA (2021)
 Q-Chem 5.4.0 for Intel X86 EM64T Linux

User input:
--------------------------------------------------------------
$molecule
0 1
C	-0.197767	-6.741404	-0.164018
C	-1.198109	-6.155638	-1.003240
C	0.632428	-5.791452	0.533192
C	-1.411364	-4.803786	-1.182482
H	-1.870845	-6.821518	-1.567483
C	0.409419	-4.378638	0.345145
C	-0.609565	-3.838032	-0.510347
C	1.210332	-3.413062	1.016449
C	-0.830799	-2.426473	-0.696879
C	0.999856	-2.059348	0.839039
C	0.000000	-1.478216	0.000000
H	1.673483	-1.394783	1.403737
C	1.736282	-6.187987	1.461835
C	2.306183	-3.798164	1.936119
N	2.491597	-5.170003	2.093916
C	-2.510310	-4.424987	-2.104529
C	-1.936153	-2.036627	-1.625377
N	-2.691451	-3.049156	-2.257873
O	2.034222	-7.353131	1.715561
O	3.014044	-2.986854	2.528858
O	-3.209622	-5.248946	-2.690385
O	-2.251529	-0.878829	-1.891876
C	3.573032	-5.563799	3.002711
H	3.606932	-6.664085	3.032655
H	3.382888	-5.147101	4.010326
H	4.533125	-5.148785	2.640711
C	-3.756832	-2.587487	-3.152408
H	-4.249778	-3.483329	-3.564653
H	-3.328759	-1.964972	-3.960905
H	-4.477709	-1.962932	-2.591422
C	0.000000	0.000000	0.000000
S	0.137535	0.781156	1.580530
C	0.421895	2.393994	0.904911
C	0.173134	0.982857	-0.985400
C	0.402294	2.283058	-0.493528
H	0.132237	0.750786	-2.059934
H	0.555196	3.150621	-1.152593
H	0.574741	3.261310	1.556025
H	0.461623	-7.361589	-0.783314
H	-0.693983	-7.361192	0.592677
H	0.694617	-1.478831	-0.826987
$end

$rem
JOBTYPE		SP
EXCHANGE	HF
CORRELATION	pRIMP2
BASIS		cc-pvtz
METHOD		rimp2
AUX_BASIS	rimp2-cc-pvtz
SOLVENT_METHOD	PCM
PURECART	11111
SYMMETRY	false
MEM_TOTAL	110000
SCF_CONVERGENCE = 6
THRESH=10
GUI = 2
$end

$solvent
dielectric 4.90
$end
--------------------------------------------------------------

             Standard Nuclear Orientation (Angstroms)
    I     Atom           X                Y                Z
 ----------------------------------------------------------------
    1      C      -0.1977670000    -6.7414040000    -0.1640180000
    2      C      -1.1981090000    -6.1556380000    -1.0032400000
    3      C       0.6324280000    -5.7914520000     0.5331920000
    4      C      -1.4113640000    -4.8037860000    -1.1824820000
    5      H      -1.8708450000    -6.8215180000    -1.5674830000
    6      C       0.4094190000    -4.3786380000     0.3451450000
    7      C      -0.6095650000    -3.8380320000    -0.5103470000
    8      C       1.2103320000    -3.4130620000     1.0164490000
    9      C      -0.8307990000    -2.4264730000    -0.6968790000
   10      C       0.9998560000    -2.0593480000     0.8390390000
   11      C       0.0000000000    -1.4782160000     0.0000000000
   12      H       1.6734830000    -1.3947830000     1.4037370000
   13      C       1.7362820000    -6.1879870000     1.4618350000
   14      C       2.3061830000    -3.7981640000     1.9361190000
   15      N       2.4915970000    -5.1700030000     2.0939160000
   16      C      -2.5103100000    -4.4249870000    -2.1045290000
   17      C      -1.9361530000    -2.0366270000    -1.6253770000
   18      N      -2.6914510000    -3.0491560000    -2.2578730000
   19      O       2.0342220000    -7.3531310000     1.7155610000
   20      O       3.0140440000    -2.9868540000     2.5288580000
   21      O      -3.2096220000    -5.2489460000    -2.6903850000
   22      O      -2.2515290000    -0.8788290000    -1.8918760000
   23      C       3.5730320000    -5.5637990000     3.0027110000
   24      H       3.6069320000    -6.6640850000     3.0326550000
   25      H       3.3828880000    -5.1471010000     4.0103260000
   26      H       4.5331250000    -5.1487850000     2.6407110000
   27      C      -3.7568320000    -2.5874870000    -3.1524080000
   28      H      -4.2497780000    -3.4833290000    -3.5646530000
   29      H      -3.3287590000    -1.9649720000    -3.9609050000
   30      H      -4.4777090000    -1.9629320000    -2.5914220000
   31      C       0.0000000000     0.0000000000     0.0000000000
   32      S       0.1375350000     0.7811560000     1.5805300000
   33      C       0.4218950000     2.3939940000     0.9049110000
   34      C       0.1731340000     0.9828570000    -0.9854000000
   35      C       0.4022940000     2.2830580000    -0.4935280000
   36      H       0.1322370000     0.7507860000    -2.0599340000
   37      H       0.5551960000     3.1506210000    -1.1525930000
   38      H       0.5747410000     3.2613100000     1.5560250000
   39      H       0.4616230000    -7.3615890000    -0.7833140000
   40      H      -0.6939830000    -7.3611920000     0.5926770000
   41      H       0.6946170000    -1.4788310000    -0.8269870000
 ----------------------------------------------------------------

   11   -1571.7452458681      5.67e-07  Convergence criterion met
 Total energy in the final basis set =    -1571.7452458681
        RIMP2         total energy =     -1576.4011520942 a.u.

                    Orbital Energies (a.u.)
 --------------------------------------------------------------

 Alpha MOs
 -- Occupied --
-91.9903 -20.5525 -20.5447 -20.5419 -20.5409 -15.6272 -15.6215 -11.3939
-11.3853 -11.3837 -11.3796 -11.3090 -11.3085 -11.3054 -11.3048 -11.2984
-11.2966 -11.2908 -11.2793 -11.2693 -11.2682 -11.2659 -11.2631 -11.2595
-11.2528 -11.2522 -11.2503  -8.9900  -6.6708  -6.6703  -6.6697  -1.4198
 -1.4124  -1.3975  -1.3916  -1.2624  -1.2557  -1.2306  -1.1871  -1.1521
 -1.1145  -1.0868  -1.0472  -0.9955  -0.9880  -0.9845  -0.9553  -0.9506
 -0.8969  -0.8884  -0.8770  -0.8601  -0.7957  -0.7782  -0.7711  -0.7603
 -0.7413  -0.7166  -0.7033  -0.6917  -0.6815  -0.6719  -0.6669  -0.6574
 -0.6472  -0.6446  -0.6371  -0.6325  -0.6310  -0.6279  -0.6225  -0.6046
 -0.5868  -0.5746  -0.5653  -0.5611  -0.5569  -0.5515  -0.5507  -0.5492
 -0.5478  -0.5437  -0.5176  -0.5167  -0.5106  -0.4844  -0.4758  -0.4649
 -0.4580  -0.4515  -0.4431  -0.4349  -0.4136  -0.4077  -0.3548  -0.3518
 -0.3298  -0.2844

          Ground-State Mulliken Net Atomic Charges

     Atom                 Charge (a.u.)
  ----------------------------------------
      1 C                    -0.084991
      2 C                    -0.030451
      3 C                    -0.111348
      4 C                    -0.125390
      5 H                     0.198886
      6 C                     0.020716
      7 C                     0.114601
      8 C                    -0.086804
      9 C                    -0.173712
     10 C                    -0.138373
     11 C                     0.196823
     12 H                     0.198086
     13 C                     0.343200
     14 C                     0.347914
     15 N                    -0.090043
     16 C                     0.357494
     17 C                     0.344814
     18 N                    -0.090568
     19 O                    -0.494193
     20 O                    -0.506358
     21 O                    -0.501515
     22 O                    -0.470495
     23 C                    -0.204668
     24 H                     0.139476
     25 H                     0.109427
     26 H                     0.109030
     27 C                    -0.197304
     28 H                     0.133399
     29 H                     0.110730
     30 H                     0.112307
     31 C                    -0.011411
     32 S                     0.011790
     33 C                    -0.215840
     34 C                    -0.176858
     35 C                    -0.208257
     36 H                     0.183838
     37 H                     0.190895
     38 H                     0.210875
     39 H                     0.137556
     40 H                     0.137783
     41 H                     0.208939
  ----------------------------------------
  Sum of atomic charges =     0.000000

                    Cartesian Multipole Moments
 -----------------------------------------------------------------
    Charge (ESU x 10^10)
                 0.0000
    Dipole Moment (Debye)
         X       0.1979      Y       2.0293      Z      -2.2599
       Tot       3.0437
    Quadrupole Moments (Debye-Ang)
        XX    -181.8052     XY       7.5389     YY    -177.9706
        XZ     -16.2980     YZ       7.1419     ZZ    -169.9725

 Total job time:  314.24s(wall), 9321.34s(cpu)
        *  Thank you very much for using Q-Chem.  Have a nice day.  *
