 Q-Chem 5.4, Q-Chem, Inc., Pleasanton, CA (2021)
 Q-Chem 5.4.0 for Intel X86 EM64T Linux

User input:
--------------------------------------------------------------
$molecule
0 1
C	0.223244	-6.741404	0.127184
C	1.354118	-6.155638	0.779949
C	-0.715408	-5.791452	-0.415271
C	1.595259	-4.803786	0.919437
H	2.114613	-6.821518	1.218801
C	-0.463133	-4.378638	-0.268806
C	0.688925	-3.838032	0.396744
C	-1.368449	-3.413062	-0.790835
C	0.939189	-2.426473	0.542026
C	-1.130363	-2.059348	-0.652669
C	-0.000000	-1.478216	-0.000000
H	-1.891815	-1.394783	-1.091814
C	-1.963749	-6.187987	-1.138124
C	-2.607351	-3.798164	-1.506241
N	-2.817348	-5.170003	-1.629443
C	2.837621	-4.424987	1.636646
C	2.188982	-2.036627	1.264474
N	3.042637	-3.049156	1.756205
O	-2.301222	-7.353131	-1.336258
O	-3.407386	-2.986854	-1.967056
O	3.628041	-5.248946	2.092167
O	2.545844	-0.878829	1.472160
C	-4.040164	-5.563799	-2.336642
H	-4.078749	-6.664085	-2.360245
H	-4.027880	-5.147101	-3.361968
H	-4.922811	-5.148785	-1.813424
C	4.247167	-2.587487	2.452149
H	4.804209	-3.483329	2.772531
H	3.965991	-1.964972	3.322697
H	4.859678	-1.962932	1.774507
C	0.000000	0.000000	0.000000
S	0.335026	0.718942	1.580530
C	1.027130	2.203226	0.904911
C	0.421617	0.904557	-0.985400
C	0.979485	2.101144	-0.493528
H	0.322049	0.690978	-2.059934
H	1.351718	2.899571	-1.152593
H	1.399246	3.001430	1.556025
H	-0.318588	-7.361589	0.851574
H	0.580522	-7.361192	-0.704181
H	-0.540459	-1.478831	0.935042
$end

$rem
JOBTYPE		SP
EXCHANGE	HF
CORRELATION	pRIMP2
BASIS		cc-pvtz
METHOD		rimp2
AUX_BASIS	rimp2-cc-pvtz
SOLVENT_METHOD	PCM
PURECART	11111
SYMMETRY	false
MEM_TOTAL	110000
SCF_CONVERGENCE = 6
THRESH=10
GUI = 2
$end

$solvent
dielectric 4.90
$end
--------------------------------------------------------------

             Standard Nuclear Orientation (Angstroms)
    I     Atom           X                Y                Z
 ----------------------------------------------------------------
    1      C       0.2232440000    -6.7414040000     0.1271840000
    2      C       1.3541180000    -6.1556380000     0.7799490000
    3      C      -0.7154080000    -5.7914520000    -0.4152710000
    4      C       1.5952590000    -4.8037860000     0.9194370000
    5      H       2.1146130000    -6.8215180000     1.2188010000
    6      C      -0.4631330000    -4.3786380000    -0.2688060000
    7      C       0.6889250000    -3.8380320000     0.3967440000
    8      C      -1.3684490000    -3.4130620000    -0.7908350000
    9      C       0.9391890000    -2.4264730000     0.5420260000
   10      C      -1.1303630000    -2.0593480000    -0.6526690000
   11      C       0.0000000000    -1.4782160000     0.0000000000
   12      H      -1.8918150000    -1.3947830000    -1.0918140000
   13      C      -1.9637490000    -6.1879870000    -1.1381240000
   14      C      -2.6073510000    -3.7981640000    -1.5062410000
   15      N      -2.8173480000    -5.1700030000    -1.6294430000
   16      C       2.8376210000    -4.4249870000     1.6366460000
   17      C       2.1889820000    -2.0366270000     1.2644740000
   18      N       3.0426370000    -3.0491560000     1.7562050000
   19      O      -2.3012220000    -7.3531310000    -1.3362580000
   20      O      -3.4073860000    -2.9868540000    -1.9670560000
   21      O       3.6280410000    -5.2489460000     2.0921670000
   22      O       2.5458440000    -0.8788290000     1.4721600000
   23      C      -4.0401640000    -5.5637990000    -2.3366420000
   24      H      -4.0787490000    -6.6640850000    -2.3602450000
   25      H      -4.0278800000    -5.1471010000    -3.3619680000
   26      H      -4.9228110000    -5.1487850000    -1.8134240000
   27      C       4.2471670000    -2.5874870000     2.4521490000
   28      H       4.8042090000    -3.4833290000     2.7725310000
   29      H       3.9659910000    -1.9649720000     3.3226970000
   30      H       4.8596780000    -1.9629320000     1.7745070000
   31      C       0.0000000000     0.0000000000     0.0000000000
   32      S       0.3350260000     0.7189420000     1.5805300000
   33      C       1.0271300000     2.2032260000     0.9049110000
   34      C       0.4216170000     0.9045570000    -0.9854000000
   35      C       0.9794850000     2.1011440000    -0.4935280000
   36      H       0.3220490000     0.6909780000    -2.0599340000
   37      H       1.3517180000     2.8995710000    -1.1525930000
   38      H       1.3992460000     3.0014300000     1.5560250000
   39      H      -0.3185880000    -7.3615890000     0.8515740000
   40      H       0.5805220000    -7.3611920000    -0.7041810000
   41      H      -0.5404590000    -1.4788310000     0.9350420000
 ----------------------------------------------------------------

   11   -1571.7227990543      5.74e-07  Convergence criterion met
 Total energy in the final basis set =    -1571.7227990543
        RIMP2         total energy =     -1576.3853337288 a.u.

                    Orbital Energies (a.u.)
 --------------------------------------------------------------

 Alpha MOs
 -- Occupied --
-91.9837 -20.5484 -20.5438 -20.5410 -20.5399 -15.6259 -15.6207 -11.3915
-11.3845 -11.3829 -11.3783 -11.3079 -11.3066 -11.3045 -11.3041 -11.2959
-11.2868 -11.2844 -11.2844 -11.2680 -11.2676 -11.2629 -11.2625 -11.2591
-11.2550 -11.2521 -11.2473  -8.9838  -6.6645  -6.6639  -6.6636  -1.4188
 -1.4116  -1.3967  -1.3908  -1.2613  -1.2548  -1.2286  -1.1851  -1.1507
 -1.1131  -1.0852  -1.0458  -0.9940  -0.9873  -0.9820  -0.9544  -0.9502
 -0.8948  -0.8860  -0.8764  -0.8596  -0.7905  -0.7750  -0.7737  -0.7667
 -0.7341  -0.7173  -0.7030  -0.6903  -0.6773  -0.6690  -0.6671  -0.6566
 -0.6464  -0.6392  -0.6382  -0.6315  -0.6304  -0.6263  -0.6232  -0.6039
 -0.5842  -0.5726  -0.5671  -0.5612  -0.5570  -0.5509  -0.5500  -0.5477
 -0.5474  -0.5430  -0.5169  -0.5121  -0.5076  -0.4812  -0.4721  -0.4629
 -0.4542  -0.4486  -0.4421  -0.4339  -0.4128  -0.4070  -0.3520  -0.3402
 -0.3282  -0.2872

          Ground-State Mulliken Net Atomic Charges

     Atom                 Charge (a.u.)
  ----------------------------------------
      1 C                    -0.084133
      2 C                    -0.031197
      3 C                    -0.113200
      4 C                    -0.120145
      5 H                     0.198461
      6 C                     0.008939
      7 C                     0.119252
      8 C                    -0.082330
      9 C                    -0.189418
     10 C                    -0.151826
     11 C                     0.232217
     12 H                     0.192073
     13 C                     0.342881
     14 C                     0.349064
     15 N                    -0.089770
     16 C                     0.355643
     17 C                     0.376384
     18 N                    -0.090021
     19 O                    -0.495257
     20 O                    -0.507928
     21 O                    -0.502268
     22 O                    -0.467915
     23 C                    -0.204842
     24 H                     0.139356
     25 H                     0.108893
     26 H                     0.108960
     27 C                    -0.197295
     28 H                     0.133258
     29 H                     0.110765
     30 H                     0.111328
     31 C                    -0.068017
     32 S                     0.027167
     33 C                    -0.193877
     34 C                    -0.174532
     35 C                    -0.208998
     36 H                     0.189926
     37 H                     0.189890
     38 H                     0.210820
     39 H                     0.137167
     40 H                     0.137246
     41 H                     0.193279
  ----------------------------------------
  Sum of atomic charges =     0.000000

                    Cartesian Multipole Moments
 -----------------------------------------------------------------
    Charge (ESU x 10^10)
                 0.0000
    Dipole Moment (Debye)
         X       1.7555      Y       2.3624      Z       0.4599
       Tot       2.9790
    Quadrupole Moments (Debye-Ang)
        XX    -185.6896     XY      -2.4540     YY    -181.2547
        XZ     -13.3910     YZ      -4.8334     ZZ    -164.2159

 Total job time:  297.10s(wall), 9018.68s(cpu)
        *  Thank you very much for using Q-Chem.  Have a nice day.  *
