 Q-Chem 5.4, Q-Chem, Inc., Pleasanton, CA (2021)
 Q-Chem 5.4.0 for Intel X86 EM64T Linux

User input:
--------------------------------------------------------------
$molecule
0 1
C	-0.197767	-6.741404	-0.164018
C	-1.198109	-6.155638	-1.003240
C	0.632428	-5.791452	0.533192
C	-1.411364	-4.803786	-1.182482
H	-1.870845	-6.821518	-1.567483
C	0.409419	-4.378638	0.345145
C	-0.609565	-3.838032	-0.510347
C	1.210332	-3.413062	1.016449
C	-0.830799	-2.426473	-0.696879
C	0.999856	-2.059348	0.839039
C	0.000000	-1.478216	0.000000
H	1.673483	-1.394783	1.403737
C	1.736282	-6.187987	1.461835
C	2.306183	-3.798164	1.936119
N	2.491597	-5.170003	2.093916
C	-2.510310	-4.424987	-2.104529
C	-1.936153	-2.036627	-1.625377
N	-2.691451	-3.049156	-2.257873
O	2.034222	-7.353131	1.715561
O	3.014044	-2.986854	2.528858
O	-3.209622	-5.248946	-2.690385
O	-2.251529	-0.878829	-1.891876
C	3.573032	-5.563799	3.002711
H	3.606932	-6.664085	3.032655
H	3.382888	-5.147101	4.010326
H	4.533125	-5.148785	2.640711
C	-3.756832	-2.587487	-3.152408
H	-4.249778	-3.483329	-3.564653
H	-3.328759	-1.964972	-3.960905
H	-4.477709	-1.962932	-2.591422
C	0.000000	0.000000	0.000000
S	0.205093	0.766196	1.580530
C	0.628939	2.348114	0.904911
C	0.258137	0.964028	-0.985400
C	0.599745	2.239309	-0.493528
H	0.197169	0.736404	-2.059934
H	0.827678	3.090243	-1.152593
H	0.856796	3.198808	1.556025
H	0.461623	-7.361589	-0.783314
H	-0.693983	-7.361192	0.592677
H	0.694617	-1.478831	-0.826987
$end

$rem
JOBTYPE		SP
EXCHANGE	HF
CORRELATION	pRIMP2
BASIS		cc-pvtz
METHOD		rimp2
AUX_BASIS	rimp2-cc-pvtz
SOLVENT_METHOD	PCM
PURECART	11111
SYMMETRY	false
MEM_TOTAL	110000
SCF_CONVERGENCE = 6
THRESH=10
GUI = 2
$end

$solvent
dielectric 4.90
$end
--------------------------------------------------------------

             Standard Nuclear Orientation (Angstroms)
    I     Atom           X                Y                Z
 ----------------------------------------------------------------
    1      C      -0.1977670000    -6.7414040000    -0.1640180000
    2      C      -1.1981090000    -6.1556380000    -1.0032400000
    3      C       0.6324280000    -5.7914520000     0.5331920000
    4      C      -1.4113640000    -4.8037860000    -1.1824820000
    5      H      -1.8708450000    -6.8215180000    -1.5674830000
    6      C       0.4094190000    -4.3786380000     0.3451450000
    7      C      -0.6095650000    -3.8380320000    -0.5103470000
    8      C       1.2103320000    -3.4130620000     1.0164490000
    9      C      -0.8307990000    -2.4264730000    -0.6968790000
   10      C       0.9998560000    -2.0593480000     0.8390390000
   11      C       0.0000000000    -1.4782160000     0.0000000000
   12      H       1.6734830000    -1.3947830000     1.4037370000
   13      C       1.7362820000    -6.1879870000     1.4618350000
   14      C       2.3061830000    -3.7981640000     1.9361190000
   15      N       2.4915970000    -5.1700030000     2.0939160000
   16      C      -2.5103100000    -4.4249870000    -2.1045290000
   17      C      -1.9361530000    -2.0366270000    -1.6253770000
   18      N      -2.6914510000    -3.0491560000    -2.2578730000
   19      O       2.0342220000    -7.3531310000     1.7155610000
   20      O       3.0140440000    -2.9868540000     2.5288580000
   21      O      -3.2096220000    -5.2489460000    -2.6903850000
   22      O      -2.2515290000    -0.8788290000    -1.8918760000
   23      C       3.5730320000    -5.5637990000     3.0027110000
   24      H       3.6069320000    -6.6640850000     3.0326550000
   25      H       3.3828880000    -5.1471010000     4.0103260000
   26      H       4.5331250000    -5.1487850000     2.6407110000
   27      C      -3.7568320000    -2.5874870000    -3.1524080000
   28      H      -4.2497780000    -3.4833290000    -3.5646530000
   29      H      -3.3287590000    -1.9649720000    -3.9609050000
   30      H      -4.4777090000    -1.9629320000    -2.5914220000
   31      C       0.0000000000     0.0000000000     0.0000000000
   32      S       0.2050930000     0.7661960000     1.5805300000
   33      C       0.6289390000     2.3481140000     0.9049110000
   34      C       0.2581370000     0.9640280000    -0.9854000000
   35      C       0.5997450000     2.2393090000    -0.4935280000
   36      H       0.1971690000     0.7364040000    -2.0599340000
   37      H       0.8276780000     3.0902430000    -1.1525930000
   38      H       0.8567960000     3.1988080000     1.5560250000
   39      H       0.4616230000    -7.3615890000    -0.7833140000
   40      H      -0.6939830000    -7.3611920000     0.5926770000
   41      H       0.6946170000    -1.4788310000    -0.8269870000
 ----------------------------------------------------------------

   11   -1571.7428774552      5.67e-07  Convergence criterion met
 Total energy in the final basis set =    -1571.7428774552
        RIMP2         total energy =     -1576.3993767390 a.u.

                    Orbital Energies (a.u.)
 --------------------------------------------------------------

 Alpha MOs
 -- Occupied --
-91.9904 -20.5527 -20.5446 -20.5417 -20.5408 -15.6272 -15.6214 -11.3939
-11.3853 -11.3836 -11.3794 -11.3085 -11.3082 -11.3052 -11.3047 -11.2984
-11.2964 -11.2907 -11.2799 -11.2690 -11.2681 -11.2656 -11.2631 -11.2594
-11.2527 -11.2527 -11.2506  -8.9902  -6.6710  -6.6705  -6.6699  -1.4199
 -1.4123  -1.3975  -1.3915  -1.2624  -1.2556  -1.2307  -1.1875  -1.1521
 -1.1143  -1.0866  -1.0471  -0.9957  -0.9879  -0.9851  -0.9553  -0.9504
 -0.8969  -0.8883  -0.8768  -0.8599  -0.7958  -0.7784  -0.7710  -0.7605
 -0.7412  -0.7166  -0.7032  -0.6918  -0.6818  -0.6719  -0.6668  -0.6574
 -0.6472  -0.6447  -0.6369  -0.6325  -0.6309  -0.6279  -0.6224  -0.6046
 -0.5868  -0.5748  -0.5656  -0.5612  -0.5568  -0.5514  -0.5507  -0.5493
 -0.5478  -0.5436  -0.5180  -0.5157  -0.5105  -0.4846  -0.4759  -0.4652
 -0.4580  -0.4514  -0.4430  -0.4348  -0.4136  -0.4076  -0.3553  -0.3515
 -0.3301  -0.2842

          Ground-State Mulliken Net Atomic Charges

     Atom                 Charge (a.u.)
  ----------------------------------------
      1 C                    -0.084702
      2 C                    -0.031003
      3 C                    -0.111864
      4 C                    -0.124367
      5 H                     0.198796
      6 C                     0.021576
      7 C                     0.114692
      8 C                    -0.083238
      9 C                    -0.172518
     10 C                    -0.140333
     11 C                     0.182760
     12 H                     0.198721
     13 C                     0.342981
     14 C                     0.346915
     15 N                    -0.089968
     16 C                     0.357360
     17 C                     0.344124
     18 N                    -0.090947
     19 O                    -0.494421
     20 O                    -0.506465
     21 O                    -0.501465
     22 O                    -0.471311
     23 C                    -0.204730
     24 H                     0.139468
     25 H                     0.109393
     26 H                     0.108989
     27 C                    -0.197349
     28 H                     0.133396
     29 H                     0.110752
     30 H                     0.112323
     31 C                     0.003555
     32 S                     0.009629
     33 C                    -0.213328
     34 C                    -0.180771
     35 C                    -0.208200
     36 H                     0.184557
     37 H                     0.191199
     38 H                     0.210918
     39 H                     0.137454
     40 H                     0.137683
     41 H                     0.209738
  ----------------------------------------
  Sum of atomic charges =     0.000000

                    Cartesian Multipole Moments
 -----------------------------------------------------------------
    Charge (ESU x 10^10)
                 0.0000
    Dipole Moment (Debye)
         X       0.3718      Y       2.0558      Z      -2.2347
       Tot       3.0592
    Quadrupole Moments (Debye-Ang)
        XX    -181.4184     XY       8.4704     YY    -178.6163
        XZ     -16.2721     YZ       7.1852     ZZ    -169.9423

 Total job time:  323.34s(wall), 8880.45s(cpu)
        *  Thank you very much for using Q-Chem.  Have a nice day.  *
