 Q-Chem 5.4, Q-Chem, Inc., Pleasanton, CA (2021)
 Q-Chem 5.4.0 for Intel X86 EM64T Linux

User input:
--------------------------------------------------------------
$molecule
0 1
C	-0.164018	-6.741404	0.197767
C	-1.003240	-6.155638	1.198109
C	0.533192	-5.791452	-0.632428
C	-1.182482	-4.803786	1.411364
H	-1.567483	-6.821518	1.870845
C	0.345145	-4.378638	-0.409419
C	-0.510347	-3.838032	0.609565
C	1.016449	-3.413062	-1.210332
C	-0.696879	-2.426473	0.830799
C	0.839039	-2.059348	-0.999856
C	0.000000	-1.478216	0.000000
H	1.403737	-1.394783	-1.673483
C	1.461835	-6.187987	-1.736282
C	1.936119	-3.798164	-2.306183
N	2.093916	-5.170003	-2.491597
C	-2.104529	-4.424987	2.510310
C	-1.625377	-2.036627	1.936153
N	-2.257873	-3.049156	2.691451
O	1.715561	-7.353131	-2.034222
O	2.528858	-2.986854	-3.014044
O	-2.690385	-5.248946	3.209622
O	-1.891876	-0.878829	2.251529
C	3.002711	-5.563799	-3.573032
H	3.032655	-6.664085	-3.606932
H	4.010326	-5.147101	-3.382888
H	2.640711	-5.148785	-4.533125
C	-3.152408	-2.587487	3.756832
H	-3.564653	-3.483329	4.249778
H	-3.960905	-1.964972	3.328759
H	-2.591422	-1.962932	4.477709
C	0.000000	0.000000	0.000000
S	0.509686	0.607733	1.580530
C	1.562368	1.862312	0.904911
C	0.641367	0.764613	-0.985400
C	1.489926	1.776040	-0.493528
H	0.489914	0.584081	-2.059934
H	2.056124	2.450920	-1.152593
H	2.128395	2.537007	1.556025
H	-0.783314	-7.361589	-0.461623
H	0.592677	-7.361192	0.693983
H	-0.826987	-1.478831	-0.694617
$end

$rem
JOBTYPE		SP
EXCHANGE	HF
CORRELATION	pRIMP2
BASIS		cc-pvtz
METHOD		rimp2
AUX_BASIS	rimp2-cc-pvtz
SOLVENT_METHOD	PCM
PURECART	11111
SYMMETRY	false
MEM_TOTAL	110000
SCF_CONVERGENCE = 6
THRESH=10
GUI = 2
$end

$solvent
dielectric 4.90
$end
--------------------------------------------------------------

             Standard Nuclear Orientation (Angstroms)
    I     Atom           X                Y                Z
 ----------------------------------------------------------------
    1      C      -0.1640180000    -6.7414040000     0.1977670000
    2      C      -1.0032400000    -6.1556380000     1.1981090000
    3      C       0.5331920000    -5.7914520000    -0.6324280000
    4      C      -1.1824820000    -4.8037860000     1.4113640000
    5      H      -1.5674830000    -6.8215180000     1.8708450000
    6      C       0.3451450000    -4.3786380000    -0.4094190000
    7      C      -0.5103470000    -3.8380320000     0.6095650000
    8      C       1.0164490000    -3.4130620000    -1.2103320000
    9      C      -0.6968790000    -2.4264730000     0.8307990000
   10      C       0.8390390000    -2.0593480000    -0.9998560000
   11      C       0.0000000000    -1.4782160000     0.0000000000
   12      H       1.4037370000    -1.3947830000    -1.6734830000
   13      C       1.4618350000    -6.1879870000    -1.7362820000
   14      C       1.9361190000    -3.7981640000    -2.3061830000
   15      N       2.0939160000    -5.1700030000    -2.4915970000
   16      C      -2.1045290000    -4.4249870000     2.5103100000
   17      C      -1.6253770000    -2.0366270000     1.9361530000
   18      N      -2.2578730000    -3.0491560000     2.6914510000
   19      O       1.7155610000    -7.3531310000    -2.0342220000
   20      O       2.5288580000    -2.9868540000    -3.0140440000
   21      O      -2.6903850000    -5.2489460000     3.2096220000
   22      O      -1.8918760000    -0.8788290000     2.2515290000
   23      C       3.0027110000    -5.5637990000    -3.5730320000
   24      H       3.0326550000    -6.6640850000    -3.6069320000
   25      H       4.0103260000    -5.1471010000    -3.3828880000
   26      H       2.6407110000    -5.1487850000    -4.5331250000
   27      C      -3.1524080000    -2.5874870000     3.7568320000
   28      H      -3.5646530000    -3.4833290000     4.2497780000
   29      H      -3.9609050000    -1.9649720000     3.3287590000
   30      H      -2.5914220000    -1.9629320000     4.4777090000
   31      C       0.0000000000     0.0000000000     0.0000000000
   32      S       0.5096860000     0.6077330000     1.5805300000
   33      C       1.5623680000     1.8623120000     0.9049110000
   34      C       0.6413670000     0.7646130000    -0.9854000000
   35      C       1.4899260000     1.7760400000    -0.4935280000
   36      H       0.4899140000     0.5840810000    -2.0599340000
   37      H       2.0561240000     2.4509200000    -1.1525930000
   38      H       2.1283950000     2.5370070000     1.5560250000
   39      H      -0.7833140000    -7.3615890000    -0.4616230000
   40      H       0.5926770000    -7.3611920000     0.6939830000
   41      H      -0.8269870000    -1.4788310000    -0.6946170000
 ----------------------------------------------------------------

   11   -1571.7141941179      5.79e-07  Convergence criterion met
 Total energy in the final basis set =    -1571.7141941179
        RIMP2         total energy =     -1576.3797512406 a.u.

                    Orbital Energies (a.u.)
 --------------------------------------------------------------

 Alpha MOs
 -- Occupied --
-91.9839 -20.5538 -20.5444 -20.5402 -20.5398 -15.6274 -15.6206 -11.3947
-11.3851 -11.3821 -11.3784 -11.3081 -11.3072 -11.3052 -11.3038 -11.2962
-11.2876 -11.2865 -11.2864 -11.2677 -11.2665 -11.2629 -11.2626 -11.2624
-11.2592 -11.2518 -11.2510  -8.9839  -6.6645  -6.6638  -6.6634  -1.4212
 -1.4113  -1.3981  -1.3905  -1.2626  -1.2547  -1.2303  -1.1884  -1.1518
 -1.1134  -1.0852  -1.0464  -0.9965  -0.9879  -0.9856  -0.9549  -0.9495
 -0.8962  -0.8877  -0.8764  -0.8591  -0.7922  -0.7772  -0.7723  -0.7648
 -0.7364  -0.7165  -0.7033  -0.6919  -0.6821  -0.6733  -0.6668  -0.6570
 -0.6469  -0.6443  -0.6368  -0.6325  -0.6302  -0.6277  -0.6207  -0.6053
 -0.5863  -0.5743  -0.5701  -0.5620  -0.5581  -0.5514  -0.5506  -0.5472
 -0.5467  -0.5437  -0.5255  -0.5098  -0.5065  -0.4808  -0.4719  -0.4591
 -0.4558  -0.4491  -0.4417  -0.4337  -0.4131  -0.4069  -0.3548  -0.3496
 -0.3321  -0.2798

          Ground-State Mulliken Net Atomic Charges

     Atom                 Charge (a.u.)
  ----------------------------------------
      1 C                    -0.084658
      2 C                    -0.031427
      3 C                    -0.112778
      4 C                    -0.123206
      5 H                     0.198715
      6 C                     0.022176
      7 C                     0.119877
      8 C                    -0.086905
      9 C                    -0.181525
     10 C                    -0.170460
     11 C                     0.212323
     12 H                     0.193745
     13 C                     0.340400
     14 C                     0.348908
     15 N                    -0.089349
     16 C                     0.356613
     17 C                     0.358165
     18 N                    -0.090253
     19 O                    -0.496972
     20 O                    -0.510764
     21 O                    -0.501344
     22 O                    -0.474572
     23 C                    -0.205266
     24 H                     0.139517
     25 H                     0.109005
     26 H                     0.108539
     27 C                    -0.197865
     28 H                     0.133496
     29 H                     0.111729
     30 H                     0.112150
     31 C                    -0.034005
     32 S                     0.050514
     33 C                    -0.201312
     34 C                    -0.204768
     35 C                    -0.197457
     36 H                     0.190456
     37 H                     0.192633
     38 H                     0.210661
     39 H                     0.136682
     40 H                     0.137167
     41 H                     0.211416
  ----------------------------------------
  Sum of atomic charges =     0.000000

                    Cartesian Multipole Moments
 -----------------------------------------------------------------
    Charge (ESU x 10^10)
                 0.0000
    Dipole Moment (Debye)
         X      -0.0186      Y       2.3094      Z      -0.5787
       Tot       2.3809
    Quadrupole Moments (Debye-Ang)
        XX    -171.6762     XY      12.9026     YY    -184.3980
        XZ      16.8940     YZ      -6.0195     ZZ    -175.6282

 Total job time:  330.07s(wall), 9685.48s(cpu)
        *  Thank you very much for using Q-Chem.  Have a nice day.  *
