 Q-Chem 5.4, Q-Chem, Inc., Pleasanton, CA (2021)
 Q-Chem 5.4.0 for Intel X86 EM64T Linux

User input:
--------------------------------------------------------------
$molecule
0 1
C	0.586080	-6.715879	-0.256927
C	0.534902	-6.132354	-1.562675
C	0.502834	-5.769583	0.827197
C	0.417309	-4.785626	-1.841253
H	0.592747	-6.795716	-2.440709
C	0.380402	-4.362083	0.535488
C	0.333638	-3.823504	-0.794999
C	0.296812	-3.400131	1.580529
C	0.211295	-2.417255	-1.084374
C	0.179438	-2.051515	1.305258
C	0.128835	-1.472591	0.000000
H	0.121931	-1.389444	2.184267
C	0.535563	-6.164769	2.269719
C	0.330267	-3.783778	3.011152
N	0.448140	-5.150545	3.254617
C	0.384235	-4.408274	-3.275775
C	0.178078	-2.028827	-2.527951
N	0.265353	-3.037588	-3.513104
O	0.634270	-7.325728	2.661046
O	0.260493	-2.975473	3.934410
O	0.455333	-5.229160	-4.188059
O	0.078594	-0.875310	-2.940845
C	0.481421	-5.542933	4.667206
H	0.576173	-6.639132	4.712423
H	-0.445595	-5.205747	5.169231
H	1.336290	-5.051542	5.169992
C	0.225553	-2.577637	-4.904229
H	0.302574	-3.470163	-5.546833
H	1.062399	-1.879530	-5.095998
H	-0.718592	-2.033299	-5.095858
C	0.000000	0.000000	0.000000
S	0.137535	0.781156	1.580530
C	0.421895	2.393994	0.904911
C	0.173134	0.982857	-0.985400
C	0.402294	2.283058	-0.493528
H	0.132237	0.750786	-2.059934
H	0.555196	3.150621	-1.152593
H	0.574741	3.261310	1.556025
H	1.534971	-7.255416	-0.149881
H	-0.255105	-7.411629	-0.150656
H	1.204779	-1.379075	0.000531
$end

$rem
JOBTYPE		SP
EXCHANGE	HF
CORRELATION	pRIMP2
BASIS		cc-pvtz
METHOD		rimp2
AUX_BASIS	rimp2-cc-pvtz
SOLVENT_METHOD	PCM
PURECART	11111
SYMMETRY	false
MEM_TOTAL	110000
SCF_CONVERGENCE = 6
THRESH=10
GUI = 2
$end

$solvent
dielectric 4.90
$end
--------------------------------------------------------------

             Standard Nuclear Orientation (Angstroms)
    I     Atom           X                Y                Z
 ----------------------------------------------------------------
    1      C       0.5860800000    -6.7158790000    -0.2569270000
    2      C       0.5349020000    -6.1323540000    -1.5626750000
    3      C       0.5028340000    -5.7695830000     0.8271970000
    4      C       0.4173090000    -4.7856260000    -1.8412530000
    5      H       0.5927470000    -6.7957160000    -2.4407090000
    6      C       0.3804020000    -4.3620830000     0.5354880000
    7      C       0.3336380000    -3.8235040000    -0.7949990000
    8      C       0.2968120000    -3.4001310000     1.5805290000
    9      C       0.2112950000    -2.4172550000    -1.0843740000
   10      C       0.1794380000    -2.0515150000     1.3052580000
   11      C       0.1288350000    -1.4725910000     0.0000000000
   12      H       0.1219310000    -1.3894440000     2.1842670000
   13      C       0.5355630000    -6.1647690000     2.2697190000
   14      C       0.3302670000    -3.7837780000     3.0111520000
   15      N       0.4481400000    -5.1505450000     3.2546170000
   16      C       0.3842350000    -4.4082740000    -3.2757750000
   17      C       0.1780780000    -2.0288270000    -2.5279510000
   18      N       0.2653530000    -3.0375880000    -3.5131040000
   19      O       0.6342700000    -7.3257280000     2.6610460000
   20      O       0.2604930000    -2.9754730000     3.9344100000
   21      O       0.4553330000    -5.2291600000    -4.1880590000
   22      O       0.0785940000    -0.8753100000    -2.9408450000
   23      C       0.4814210000    -5.5429330000     4.6672060000
   24      H       0.5761730000    -6.6391320000     4.7124230000
   25      H      -0.4455950000    -5.2057470000     5.1692310000
   26      H       1.3362900000    -5.0515420000     5.1699920000
   27      C       0.2255530000    -2.5776370000    -4.9042290000
   28      H       0.3025740000    -3.4701630000    -5.5468330000
   29      H       1.0623990000    -1.8795300000    -5.0959980000
   30      H      -0.7185920000    -2.0332990000    -5.0958580000
   31      C       0.0000000000     0.0000000000     0.0000000000
   32      S       0.1375350000     0.7811560000     1.5805300000
   33      C       0.4218950000     2.3939940000     0.9049110000
   34      C       0.1731340000     0.9828570000    -0.9854000000
   35      C       0.4022940000     2.2830580000    -0.4935280000
   36      H       0.1322370000     0.7507860000    -2.0599340000
   37      H       0.5551960000     3.1506210000    -1.1525930000
   38      H       0.5747410000     3.2613100000     1.5560250000
   39      H       1.5349710000    -7.2554160000    -0.1498810000
   40      H      -0.2551050000    -7.4116290000    -0.1506560000
   41      H       1.2047790000    -1.3790750000     0.0005310000
 ----------------------------------------------------------------

   11   -1571.7297047002      5.91e-07  Convergence criterion met
 Total energy in the final basis set =    -1571.7297047002
        RIMP2         total energy =     -1576.3891261558 a.u.

                    Orbital Energies (a.u.)
 --------------------------------------------------------------

 Alpha MOs
 -- Occupied --
-91.9890 -20.5540 -20.5461 -20.5427 -20.5416 -15.6295 -15.6220 -11.3983
-11.3868 -11.3845 -11.3801 -11.3104 -11.3094 -11.3065 -11.3056 -11.2980
-11.2975 -11.2927 -11.2746 -11.2710 -11.2694 -11.2675 -11.2645 -11.2597
-11.2539 -11.2461 -11.2347  -8.9892  -6.6701  -6.6696  -6.6689  -1.4244
 -1.4131  -1.4004  -1.3922  -1.2651  -1.2564  -1.2323  -1.1882  -1.1500
 -1.1156  -1.0876  -1.0491  -0.9959  -0.9890  -0.9819  -0.9561  -0.9492
 -0.8984  -0.8912  -0.8786  -0.8619  -0.7952  -0.7815  -0.7733  -0.7586
 -0.7400  -0.7213  -0.7022  -0.6899  -0.6832  -0.6746  -0.6688  -0.6585
 -0.6496  -0.6477  -0.6386  -0.6326  -0.6319  -0.6300  -0.6244  -0.6055
 -0.5933  -0.5714  -0.5637  -0.5611  -0.5577  -0.5526  -0.5518  -0.5493
 -0.5485  -0.5428  -0.5170  -0.5150  -0.5113  -0.4867  -0.4744  -0.4592
 -0.4580  -0.4496  -0.4432  -0.4367  -0.4163  -0.4086  -0.3580  -0.3493
 -0.3320  -0.2778

          Ground-State Mulliken Net Atomic Charges

     Atom                 Charge (a.u.)
  ----------------------------------------
      1 C                    -0.083912
      2 C                    -0.031584
      3 C                    -0.103531
      4 C                    -0.122060
      5 H                     0.199272
      6 C                     0.026765
      7 C                     0.117192
      8 C                    -0.041776
      9 C                    -0.204096
     10 C                    -0.165355
     11 C                     0.167090
     12 H                     0.185338
     13 C                     0.341939
     14 C                     0.346103
     15 N                    -0.090060
     16 C                     0.358274
     17 C                     0.385406
     18 N                    -0.087639
     19 O                    -0.493208
     20 O                    -0.506017
     21 O                    -0.500168
     22 O                    -0.481909
     23 C                    -0.204681
     24 H                     0.139549
     25 H                     0.109741
     26 H                     0.109449
     27 C                    -0.198716
     28 H                     0.134581
     29 H                     0.111605
     30 H                     0.112406
     31 C                     0.020679
     32 S                    -0.011617
     33 C                    -0.240452
     34 C                    -0.208047
     35 C                    -0.223720
     36 H                     0.228088
     37 H                     0.190535
     38 H                     0.214961
     39 H                     0.138412
     40 H                     0.138672
     41 H                     0.222491
  ----------------------------------------
  Sum of atomic charges =     0.000000

                    Cartesian Multipole Moments
 -----------------------------------------------------------------
    Charge (ESU x 10^10)
                -0.0000
    Dipole Moment (Debye)
         X       1.2173      Y       1.3873      Z      -2.2942
       Tot       2.9445
    Quadrupole Moments (Debye-Ang)
        XX    -162.1090     XY       2.4190     YY    -176.0898
        XZ      -0.8428     YZ       9.2567     ZZ    -188.5147

 Total job time:  313.80s(wall), 8957.45s(cpu)
        *  Thank you very much for using Q-Chem.  Have a nice day.  *
