 Q-Chem 5.4, Q-Chem, Inc., Pleasanton, CA (2021)
 Q-Chem 5.4.0 for Intel X86 EM64T Linux

User input:
--------------------------------------------------------------
$molecule
0 1
C	0.166281	-6.741404	0.195868
C	1.005696	-6.155638	1.196048
C	-0.530233	-5.791452	-0.634911
C	1.184587	-4.803786	1.409599
H	1.570232	-6.821518	1.868538
C	-0.343266	-4.378638	-0.410996
C	0.511683	-3.838032	0.608444
C	-1.015440	-3.413062	-1.211179
C	0.697165	-2.426473	0.830559
C	-0.838968	-2.059348	-0.999915
C	-0.000000	-1.478216	-0.000000
H	-1.404302	-1.394783	-1.673009
C	-1.456059	-6.187987	-1.741129
C	-1.934944	-3.798164	-2.307170
N	-2.090139	-5.170003	-2.494766
C	2.106725	-4.424987	2.508468
C	1.624494	-2.036627	1.936893
N	2.258486	-3.049156	2.690936
O	-1.705414	-7.353131	-2.042736
O	-2.529122	-2.986854	-3.013823
O	2.693680	-5.248946	3.206857
O	1.888802	-0.878829	2.254108
C	-2.997334	-5.563799	-3.577543
H	-3.025519	-6.664085	-3.612920
H	-2.635109	-5.147101	-4.536833
H	-4.005702	-5.148785	-3.387762
C	3.152347	-2.587487	3.756883
H	3.566218	-3.483329	4.248464
H	2.590383	-1.964972	4.478763
H	3.959687	-1.962932	3.329599
C	0.000000	0.000000	0.000000
S	-0.000201	0.793171	1.580530
C	-0.000228	2.430885	0.904911
C	-0.000168	0.997990	-0.985400
C	-0.000267	2.318231	-0.493528
H	-0.000145	0.762343	-2.059934
H	-0.000339	3.199164	-1.152593
H	-0.000311	3.311566	1.556025
H	-0.590631	-7.361589	0.691254
H	0.786357	-7.361192	-0.463164
H	-0.827669	-1.478831	0.693804
$end

$rem
JOBTYPE		SP
EXCHANGE	HF
CORRELATION	pRIMP2
BASIS		cc-pvtz
METHOD		rimp2
AUX_BASIS	rimp2-cc-pvtz
SOLVENT_METHOD	PCM
PURECART	11111
SYMMETRY	false
MEM_TOTAL	110000
SCF_CONVERGENCE = 6
THRESH=10
GUI = 2
$end

$solvent
dielectric 4.90
$end
--------------------------------------------------------------

             Standard Nuclear Orientation (Angstroms)
    I     Atom           X                Y                Z
 ----------------------------------------------------------------
    1      C       0.1662810000    -6.7414040000     0.1958680000
    2      C       1.0056960000    -6.1556380000     1.1960480000
    3      C      -0.5302330000    -5.7914520000    -0.6349110000
    4      C       1.1845870000    -4.8037860000     1.4095990000
    5      H       1.5702320000    -6.8215180000     1.8685380000
    6      C      -0.3432660000    -4.3786380000    -0.4109960000
    7      C       0.5116830000    -3.8380320000     0.6084440000
    8      C      -1.0154400000    -3.4130620000    -1.2111790000
    9      C       0.6971650000    -2.4264730000     0.8305590000
   10      C      -0.8389680000    -2.0593480000    -0.9999150000
   11      C       0.0000000000    -1.4782160000     0.0000000000
   12      H      -1.4043020000    -1.3947830000    -1.6730090000
   13      C      -1.4560590000    -6.1879870000    -1.7411290000
   14      C      -1.9349440000    -3.7981640000    -2.3071700000
   15      N      -2.0901390000    -5.1700030000    -2.4947660000
   16      C       2.1067250000    -4.4249870000     2.5084680000
   17      C       1.6244940000    -2.0366270000     1.9368930000
   18      N       2.2584860000    -3.0491560000     2.6909360000
   19      O      -1.7054140000    -7.3531310000    -2.0427360000
   20      O      -2.5291220000    -2.9868540000    -3.0138230000
   21      O       2.6936800000    -5.2489460000     3.2068570000
   22      O       1.8888020000    -0.8788290000     2.2541080000
   23      C      -2.9973340000    -5.5637990000    -3.5775430000
   24      H      -3.0255190000    -6.6640850000    -3.6129200000
   25      H      -2.6351090000    -5.1471010000    -4.5368330000
   26      H      -4.0057020000    -5.1487850000    -3.3877620000
   27      C       3.1523470000    -2.5874870000     3.7568830000
   28      H       3.5662180000    -3.4833290000     4.2484640000
   29      H       2.5903830000    -1.9649720000     4.4787630000
   30      H       3.9596870000    -1.9629320000     3.3295990000
   31      C       0.0000000000     0.0000000000     0.0000000000
   32      S      -0.0002010000     0.7931710000     1.5805300000
   33      C      -0.0002280000     2.4308850000     0.9049110000
   34      C      -0.0001680000     0.9979900000    -0.9854000000
   35      C      -0.0002670000     2.3182310000    -0.4935280000
   36      H      -0.0001450000     0.7623430000    -2.0599340000
   37      H      -0.0003390000     3.1991640000    -1.1525930000
   38      H      -0.0003110000     3.3115660000     1.5560250000
   39      H      -0.5906310000    -7.3615890000     0.6912540000
   40      H       0.7863570000    -7.3611920000    -0.4631640000
   41      H      -0.8276690000    -1.4788310000     0.6938040000
 ----------------------------------------------------------------

   11   -1571.7320733088      5.84e-07  Convergence criterion met
 Total energy in the final basis set =    -1571.7320733088
        RIMP2         total energy =     -1576.3921369406 a.u.

                    Orbital Energies (a.u.)
 --------------------------------------------------------------

 Alpha MOs
 -- Occupied --
-91.9803 -20.5505 -20.5448 -20.5424 -20.5412 -15.6273 -15.6219 -11.3941
-11.3855 -11.3843 -11.3798 -11.3104 -11.3092 -11.3062 -11.3054 -11.2976
-11.2945 -11.2905 -11.2747 -11.2703 -11.2689 -11.2656 -11.2631 -11.2598
-11.2535 -11.2500 -11.2435  -8.9804  -6.6610  -6.6604  -6.6599  -1.4214
 -1.4128  -1.3985  -1.3920  -1.2630  -1.2561  -1.2305  -1.1858  -1.1495
 -1.1149  -1.0867  -1.0477  -0.9942  -0.9884  -0.9793  -0.9554  -0.9497
 -0.8964  -0.8888  -0.8778  -0.8611  -0.7925  -0.7772  -0.7738  -0.7643
 -0.7323  -0.7185  -0.7021  -0.6910  -0.6819  -0.6715  -0.6681  -0.6578
 -0.6481  -0.6425  -0.6388  -0.6329  -0.6316  -0.6287  -0.6228  -0.6054
 -0.5862  -0.5740  -0.5638  -0.5622  -0.5588  -0.5518  -0.5513  -0.5484
 -0.5473  -0.5441  -0.5178  -0.5150  -0.5106  -0.4840  -0.4773  -0.4611
 -0.4559  -0.4465  -0.4414  -0.4349  -0.4125  -0.4080  -0.3540  -0.3400
 -0.3278  -0.2833

          Ground-State Mulliken Net Atomic Charges

     Atom                 Charge (a.u.)
  ----------------------------------------
      1 C                    -0.085055
      2 C                    -0.028906
      3 C                    -0.108835
      4 C                    -0.125597
      5 H                     0.199405
      6 C                     0.022887
      7 C                     0.119766
      8 C                    -0.109103
      9 C                    -0.195861
     10 C                    -0.130680
     11 C                     0.253093
     12 H                     0.195594
     13 C                     0.343389
     14 C                     0.351846
     15 N                    -0.090124
     16 C                     0.356883
     17 C                     0.373554
     18 N                    -0.090733
     19 O                    -0.493713
     20 O                    -0.507356
     21 O                    -0.501509
     22 O                    -0.468501
     23 C                    -0.204613
     24 H                     0.139587
     25 H                     0.109196
     26 H                     0.109244
     27 C                    -0.197318
     28 H                     0.133510
     29 H                     0.111500
     30 H                     0.112030
     31 C                    -0.078810
     32 S                     0.048810
     33 C                    -0.225363
     34 C                    -0.178822
     35 C                    -0.223179
     36 H                     0.189341
     37 H                     0.187229
     38 H                     0.209111
     39 H                     0.138286
     40 H                     0.138359
     41 H                     0.201459
  ----------------------------------------
  Sum of atomic charges =     0.000000

                    Cartesian Multipole Moments
 -----------------------------------------------------------------
    Charge (ESU x 10^10)
                 0.0000
    Dipole Moment (Debye)
         X       0.3050      Y       1.5047      Z       0.7389
       Tot       1.7039
    Quadrupole Moments (Debye-Ang)
        XX    -176.1791     XY      -4.4219     YY    -177.4210
        XZ     -15.5976     YZ      -6.8367     ZZ    -174.9945

 Total job time:  304.85s(wall), 8841.80s(cpu)
        *  Thank you very much for using Q-Chem.  Have a nice day.  *
