 Q-Chem 5.4, Q-Chem, Inc., Pleasanton, CA (2021)
 Q-Chem 5.4.0 for Intel X86 EM64T Linux

User input:
--------------------------------------------------------------
$molecule
0 1
C	-0.127184	-6.741404	0.223244
C	-0.779949	-6.155638	1.354118
C	0.415271	-5.791452	-0.715408
C	-0.919437	-4.803786	1.595259
H	-1.218801	-6.821518	2.114613
C	0.268806	-4.378638	-0.463133
C	-0.396744	-3.838032	0.688925
C	0.790835	-3.413062	-1.368449
C	-0.542026	-2.426473	0.939189
C	0.652669	-2.059348	-1.130363
C	-0.000000	-1.478216	-0.000000
H	1.091814	-1.394783	-1.891815
C	1.138124	-6.187987	-1.963749
C	1.506241	-3.798164	-2.607351
N	1.629443	-5.170003	-2.817348
C	-1.636646	-4.424987	2.837621
C	-1.264474	-2.036627	2.188982
N	-1.756205	-3.049156	3.042637
O	1.336258	-7.353131	-2.301222
O	1.967056	-2.986854	-3.407386
O	-2.092167	-5.248946	3.628041
O	-1.472160	-0.878829	2.545844
C	2.336642	-5.563799	-4.040164
H	2.360245	-6.664085	-4.078749
H	3.361968	-5.147101	-4.027880
H	1.813424	-5.148785	-4.922811
C	-2.452149	-2.587487	4.247167
H	-2.772531	-3.483329	4.804209
H	-3.322697	-1.964972	3.965991
H	-1.774507	-1.962932	4.859678
C	0.000000	0.000000	0.000000
S	0.271091	0.745405	1.580530
C	0.831198	2.284363	0.904911
C	0.341175	0.937861	-0.985400
C	0.792631	2.178516	-0.493528
H	0.260601	0.716417	-2.059934
H	1.093860	3.006347	-1.152593
H	1.132330	3.111961	1.556025
H	-0.851574	-7.361589	-0.318588
H	0.704181	-7.361192	0.580522
H	-0.935042	-1.478831	-0.540459
$end

$rem
JOBTYPE		SP
EXCHANGE	HF
CORRELATION	pRIMP2
BASIS		cc-pvtz
METHOD		rimp2
AUX_BASIS	rimp2-cc-pvtz
SOLVENT_METHOD	PCM
PURECART	11111
SYMMETRY	false
MEM_TOTAL	110000
SCF_CONVERGENCE = 6
THRESH=10
GUI = 2
$end

$solvent
dielectric 4.90
$end
--------------------------------------------------------------

             Standard Nuclear Orientation (Angstroms)
    I     Atom           X                Y                Z
 ----------------------------------------------------------------
    1      C      -0.1271840000    -6.7414040000     0.2232440000
    2      C      -0.7799490000    -6.1556380000     1.3541180000
    3      C       0.4152710000    -5.7914520000    -0.7154080000
    4      C      -0.9194370000    -4.8037860000     1.5952590000
    5      H      -1.2188010000    -6.8215180000     2.1146130000
    6      C       0.2688060000    -4.3786380000    -0.4631330000
    7      C      -0.3967440000    -3.8380320000     0.6889250000
    8      C       0.7908350000    -3.4130620000    -1.3684490000
    9      C      -0.5420260000    -2.4264730000     0.9391890000
   10      C       0.6526690000    -2.0593480000    -1.1303630000
   11      C       0.0000000000    -1.4782160000     0.0000000000
   12      H       1.0918140000    -1.3947830000    -1.8918150000
   13      C       1.1381240000    -6.1879870000    -1.9637490000
   14      C       1.5062410000    -3.7981640000    -2.6073510000
   15      N       1.6294430000    -5.1700030000    -2.8173480000
   16      C      -1.6366460000    -4.4249870000     2.8376210000
   17      C      -1.2644740000    -2.0366270000     2.1889820000
   18      N      -1.7562050000    -3.0491560000     3.0426370000
   19      O       1.3362580000    -7.3531310000    -2.3012220000
   20      O       1.9670560000    -2.9868540000    -3.4073860000
   21      O      -2.0921670000    -5.2489460000     3.6280410000
   22      O      -1.4721600000    -0.8788290000     2.5458440000
   23      C       2.3366420000    -5.5637990000    -4.0401640000
   24      H       2.3602450000    -6.6640850000    -4.0787490000
   25      H       3.3619680000    -5.1471010000    -4.0278800000
   26      H       1.8134240000    -5.1487850000    -4.9228110000
   27      C      -2.4521490000    -2.5874870000     4.2471670000
   28      H      -2.7725310000    -3.4833290000     4.8042090000
   29      H      -3.3226970000    -1.9649720000     3.9659910000
   30      H      -1.7745070000    -1.9629320000     4.8596780000
   31      C       0.0000000000     0.0000000000     0.0000000000
   32      S       0.2710910000     0.7454050000     1.5805300000
   33      C       0.8311980000     2.2843630000     0.9049110000
   34      C       0.3411750000     0.9378610000    -0.9854000000
   35      C       0.7926310000     2.1785160000    -0.4935280000
   36      H       0.2606010000     0.7164170000    -2.0599340000
   37      H       1.0938600000     3.0063470000    -1.1525930000
   38      H       1.1323300000     3.1119610000     1.5560250000
   39      H      -0.8515740000    -7.3615890000    -0.3185880000
   40      H       0.7041810000    -7.3611920000     0.5805220000
   41      H      -0.9350420000    -1.4788310000    -0.5404590000
 ----------------------------------------------------------------

   11   -1571.7260130107      5.85e-07  Convergence criterion met
 Total energy in the final basis set =    -1571.7260130107
        RIMP2         total energy =     -1576.3888606977 a.u.

                    Orbital Energies (a.u.)
 --------------------------------------------------------------

 Alpha MOs
 -- Occupied --
-91.9788 -20.5536 -20.5453 -20.5418 -20.5410 -15.6283 -15.6217 -11.3960
-11.3860 -11.3837 -11.3796 -11.3107 -11.3094 -11.3072 -11.3052 -11.2978
-11.2948 -11.2906 -11.2716 -11.2694 -11.2691 -11.2652 -11.2635 -11.2597
-11.2533 -11.2527 -11.2447  -8.9786  -6.6592  -6.6585  -6.6579  -1.4234
 -1.4125  -1.3996  -1.3917  -1.2640  -1.2559  -1.2309  -1.1861  -1.1496
 -1.1150  -1.0866  -1.0480  -0.9945  -0.9885  -0.9796  -0.9556  -0.9495
 -0.8971  -0.8895  -0.8781  -0.8611  -0.7927  -0.7787  -0.7728  -0.7608
 -0.7347  -0.7182  -0.7025  -0.6915  -0.6831  -0.6751  -0.6677  -0.6580
 -0.6485  -0.6462  -0.6370  -0.6329  -0.6314  -0.6302  -0.6214  -0.6057
 -0.5869  -0.5742  -0.5643  -0.5625  -0.5594  -0.5525  -0.5516  -0.5486
 -0.5481  -0.5446  -0.5217  -0.5119  -0.5105  -0.4839  -0.4756  -0.4611
 -0.4556  -0.4450  -0.4386  -0.4327  -0.4121  -0.4079  -0.3547  -0.3439
 -0.3292  -0.2796

          Ground-State Mulliken Net Atomic Charges

     Atom                 Charge (a.u.)
  ----------------------------------------
      1 C                    -0.084465
      2 C                    -0.029782
      3 C                    -0.108480
      4 C                    -0.125093
      5 H                     0.199564
      6 C                     0.025955
      7 C                     0.125636
      8 C                    -0.093901
      9 C                    -0.168875
     10 C                    -0.157214
     11 C                     0.211807
     12 H                     0.192170
     13 C                     0.341249
     14 C                     0.349249
     15 N                    -0.089966
     16 C                     0.357231
     17 C                     0.366902
     18 N                    -0.090878
     19 O                    -0.494636
     20 O                    -0.508453
     21 O                    -0.500702
     22 O                    -0.474307
     23 C                    -0.204923
     24 H                     0.139618
     25 H                     0.109439
     26 H                     0.108978
     27 C                    -0.197588
     28 H                     0.133938
     29 H                     0.111807
     30 H                     0.112466
     31 C                    -0.015159
     32 S                     0.067632
     33 C                    -0.239137
     34 C                    -0.235784
     35 C                    -0.200329
     36 H                     0.182386
     37 H                     0.187810
     38 H                     0.206708
     39 H                     0.137851
     40 H                     0.138374
     41 H                     0.212905
  ----------------------------------------
  Sum of atomic charges =     0.000000

                    Cartesian Multipole Moments
 -----------------------------------------------------------------
    Charge (ESU x 10^10)
                 0.0000
    Dipole Moment (Debye)
         X      -1.0111      Y       1.3853      Z      -0.0794
       Tot       1.7169
    Quadrupole Moments (Debye-Ang)
        XX    -169.5404     XY       8.9717     YY    -179.1741
        XZ      13.9854     YZ      -6.8717     ZZ    -180.3566

 Total job time:  420.19s(wall), 9318.07s(cpu)
        *  Thank you very much for using Q-Chem.  Have a nice day.  *
