 Q-Chem 5.4, Q-Chem, Inc., Pleasanton, CA (2021)
 Q-Chem 5.4.0 for Intel X86 EM64T Linux

User input:
--------------------------------------------------------------
$molecule
0 1
C	0.256927	-6.741404	-0.001478
C	1.562675	-6.155638	-0.001603
C	-0.827197	-5.791452	-0.001931
C	1.841253	-4.803786	-0.001374
H	2.440709	-6.821518	-0.001794
C	-0.535488	-4.378638	-0.001227
C	0.794999	-3.838032	-0.000872
C	-1.580529	-3.413062	-0.000658
C	1.084374	-2.426473	-0.000186
C	-1.305258	-2.059348	-0.000046
C	-0.000000	-1.478216	-0.000000
H	-2.184267	-1.394783	0.000369
C	-2.269719	-6.187987	-0.003770
C	-3.011152	-3.798164	-0.000767
N	-3.254617	-5.170003	-0.002465
C	3.275775	-4.424987	-0.001433
C	2.527951	-2.036627	0.000576
N	3.513104	-3.049156	-0.000400
O	-2.661046	-7.353131	-0.006623
O	-3.934410	-2.986854	0.000172
O	4.188059	-5.248946	-0.002151
O	2.940845	-0.878829	0.002006
C	-4.667206	-5.563799	-0.003509
H	-4.712423	-6.664085	-0.004658
H	-5.169231	-5.147101	-0.897610
H	-5.169992	-5.148785	0.890935
C	4.904229	-2.587487	0.000039
H	5.546833	-3.483329	-0.001022
H	5.095998	-1.964972	0.894545
H	5.095858	-1.962932	-0.893071
C	0.000000	0.000000	0.000000
S	0.335026	0.718942	1.580530
C	1.027130	2.203226	0.904911
C	0.421617	0.904557	-0.985400
C	0.979485	2.101144	-0.493528
H	0.322049	0.690978	-2.059934
H	1.351718	2.899571	-1.152593
H	1.399246	3.001430	1.556025
H	0.149881	-7.361589	0.896779
H	0.150656	-7.361192	-0.900100
H	-0.000531	-1.478831	1.080000
$end

$rem
JOBTYPE		SP
EXCHANGE	HF
CORRELATION	pRIMP2
BASIS		cc-pvtz
METHOD		rimp2
AUX_BASIS	rimp2-cc-pvtz
SOLVENT_METHOD	PCM
PURECART	11111
SYMMETRY	false
MEM_TOTAL	110000
SCF_CONVERGENCE = 6
THRESH=10
GUI = 2
$end

$solvent
dielectric 4.90
$end
--------------------------------------------------------------

             Standard Nuclear Orientation (Angstroms)
    I     Atom           X                Y                Z
 ----------------------------------------------------------------
    1      C       0.2569270000    -6.7414040000    -0.0014780000
    2      C       1.5626750000    -6.1556380000    -0.0016030000
    3      C      -0.8271970000    -5.7914520000    -0.0019310000
    4      C       1.8412530000    -4.8037860000    -0.0013740000
    5      H       2.4407090000    -6.8215180000    -0.0017940000
    6      C      -0.5354880000    -4.3786380000    -0.0012270000
    7      C       0.7949990000    -3.8380320000    -0.0008720000
    8      C      -1.5805290000    -3.4130620000    -0.0006580000
    9      C       1.0843740000    -2.4264730000    -0.0001860000
   10      C      -1.3052580000    -2.0593480000    -0.0000460000
   11      C       0.0000000000    -1.4782160000     0.0000000000
   12      H      -2.1842670000    -1.3947830000     0.0003690000
   13      C      -2.2697190000    -6.1879870000    -0.0037700000
   14      C      -3.0111520000    -3.7981640000    -0.0007670000
   15      N      -3.2546170000    -5.1700030000    -0.0024650000
   16      C       3.2757750000    -4.4249870000    -0.0014330000
   17      C       2.5279510000    -2.0366270000     0.0005760000
   18      N       3.5131040000    -3.0491560000    -0.0004000000
   19      O      -2.6610460000    -7.3531310000    -0.0066230000
   20      O      -3.9344100000    -2.9868540000     0.0001720000
   21      O       4.1880590000    -5.2489460000    -0.0021510000
   22      O       2.9408450000    -0.8788290000     0.0020060000
   23      C      -4.6672060000    -5.5637990000    -0.0035090000
   24      H      -4.7124230000    -6.6640850000    -0.0046580000
   25      H      -5.1692310000    -5.1471010000    -0.8976100000
   26      H      -5.1699920000    -5.1487850000     0.8909350000
   27      C       4.9042290000    -2.5874870000     0.0000390000
   28      H       5.5468330000    -3.4833290000    -0.0010220000
   29      H       5.0959980000    -1.9649720000     0.8945450000
   30      H       5.0958580000    -1.9629320000    -0.8930710000
   31      C       0.0000000000     0.0000000000     0.0000000000
   32      S       0.3350260000     0.7189420000     1.5805300000
   33      C       1.0271300000     2.2032260000     0.9049110000
   34      C       0.4216170000     0.9045570000    -0.9854000000
   35      C       0.9794850000     2.1011440000    -0.4935280000
   36      H       0.3220490000     0.6909780000    -2.0599340000
   37      H       1.3517180000     2.8995710000    -1.1525930000
   38      H       1.3992460000     3.0014300000     1.5560250000
   39      H       0.1498810000    -7.3615890000     0.8967790000
   40      H       0.1506560000    -7.3611920000    -0.9001000000
   41      H      -0.0005310000    -1.4788310000     1.0800000000
 ----------------------------------------------------------------

   11   -1571.7330146103      5.60e-07  Convergence criterion met
 Total energy in the final basis set =    -1571.7330146103
        RIMP2         total energy =     -1576.3907697464 a.u.

                    Orbital Energies (a.u.)
 --------------------------------------------------------------

 Alpha MOs
 -- Occupied --
-91.9910 -20.5500 -20.5438 -20.5408 -20.5394 -15.6259 -15.6204 -11.3916
-11.3845 -11.3827 -11.3779 -11.3074 -11.3061 -11.3038 -11.3036 -11.2957
-11.2871 -11.2863 -11.2853 -11.2677 -11.2674 -11.2624 -11.2621 -11.2589
-11.2565 -11.2520 -11.2503  -8.9908  -6.6716  -6.6711  -6.6705  -1.4180
 -1.4113  -1.3961  -1.3905  -1.2610  -1.2545  -1.2286  -1.1863  -1.1519
 -1.1127  -1.0854  -1.0453  -0.9953  -0.9870  -0.9850  -0.9542  -0.9507
 -0.8947  -0.8852  -0.8759  -0.8591  -0.7913  -0.7752  -0.7736  -0.7680
 -0.7377  -0.7162  -0.7038  -0.6905  -0.6756  -0.6691  -0.6667  -0.6564
 -0.6461  -0.6401  -0.6368  -0.6310  -0.6301  -0.6257  -0.6224  -0.6041
 -0.5835  -0.5740  -0.5675  -0.5608  -0.5560  -0.5506  -0.5495  -0.5473
 -0.5459  -0.5430  -0.5202  -0.5130  -0.5064  -0.4793  -0.4727  -0.4685
 -0.4550  -0.4491  -0.4417  -0.4336  -0.4127  -0.4067  -0.3547  -0.3504
 -0.3282  -0.2894

          Ground-State Mulliken Net Atomic Charges

     Atom                 Charge (a.u.)
  ----------------------------------------
      1 C                    -0.084114
      2 C                    -0.031451
      3 C                    -0.114242
      4 C                    -0.119315
      5 H                     0.198187
      6 C                     0.007943
      7 C                     0.115006
      8 C                    -0.069746
      9 C                    -0.147816
     10 C                    -0.166711
     11 C                     0.236477
     12 H                     0.189871
     13 C                     0.343007
     14 C                     0.349778
     15 N                    -0.089846
     16 C                     0.356280
     17 C                     0.355269
     18 N                    -0.089475
     19 O                    -0.495511
     20 O                    -0.507953
     21 O                    -0.502116
     22 O                    -0.469555
     23 C                    -0.204935
     24 H                     0.139278
     25 H                     0.108876
     26 H                     0.108932
     27 C                    -0.197912
     28 H                     0.133194
     29 H                     0.111285
     30 H                     0.110956
     31 C                    -0.057872
     32 S                     0.007630
     33 C                    -0.204664
     34 C                    -0.183090
     35 C                    -0.187760
     36 H                     0.187229
     37 H                     0.190501
     38 H                     0.213251
     39 H                     0.137056
     40 H                     0.137209
     41 H                     0.186865
  ----------------------------------------
  Sum of atomic charges =     0.000000

                    Cartesian Multipole Moments
 -----------------------------------------------------------------
    Charge (ESU x 10^10)
                 0.0000
    Dipole Moment (Debye)
         X       2.0705      Y       2.7162      Z      -0.2846
       Tot       3.4272
    Quadrupole Moments (Debye-Ang)
        XX    -194.3623     XY      -4.3725     YY    -180.8861
        XZ       0.4785     YZ      -0.4751     ZZ    -156.0757

 Total job time:  313.38s(wall), 9231.02s(cpu)
        *  Thank you very much for using Q-Chem.  Have a nice day.  *
