 Q-Chem 5.4, Q-Chem, Inc., Pleasanton, CA (2021)
 Q-Chem 5.4.0 for Intel X86 EM64T Linux

User input:
--------------------------------------------------------------
$molecule
0 1
C	0.001478	-6.741404	0.256927
C	0.001603	-6.155638	1.562675
C	0.001931	-5.791452	-0.827197
C	0.001374	-4.803786	1.841253
H	0.001794	-6.821518	2.440709
C	0.001227	-4.378638	-0.535488
C	0.000872	-3.838032	0.794999
C	0.000658	-3.413062	-1.580529
C	0.000186	-2.426473	1.084374
C	0.000046	-2.059348	-1.305258
C	-0.000000	-1.478216	-0.000000
H	-0.000369	-1.394783	-2.184267
C	0.003770	-6.187987	-2.269719
C	0.000767	-3.798164	-3.011152
N	0.002465	-5.170003	-3.254617
C	0.001433	-4.424987	3.275775
C	-0.000576	-2.036627	2.527951
N	0.000400	-3.049156	3.513104
O	0.006623	-7.353131	-2.661046
O	-0.000172	-2.986854	-3.934410
O	0.002151	-5.248946	4.188059
O	-0.002006	-0.878829	2.940845
C	0.003509	-5.563799	-4.667206
H	0.004658	-6.664085	-4.712423
H	0.897610	-5.147101	-5.169231
H	-0.890935	-5.148785	-5.169992
C	-0.000039	-2.587487	4.904229
H	0.001022	-3.483329	5.546833
H	-0.894545	-1.964972	5.095998
H	0.893071	-1.962932	5.095858
C	0.000000	0.000000	0.000000
S	0.686805	0.396760	1.580530
C	2.105095	1.215640	0.904911
C	0.864201	0.499140	-0.985400
C	2.007514	1.159347	-0.493528
H	0.660136	0.381296	-2.059934
H	2.770388	1.599875	-1.152593
H	2.867745	1.656053	1.556025
H	-0.896779	-7.361589	0.149881
H	0.900100	-7.361192	0.150656
H	-1.080000	-1.478831	-0.000531
$end

$rem
JOBTYPE		SP
EXCHANGE	HF
CORRELATION	pRIMP2
BASIS		cc-pvtz
METHOD		rimp2
AUX_BASIS	rimp2-cc-pvtz
SOLVENT_METHOD	PCM
PURECART	11111
SYMMETRY	false
MEM_TOTAL	110000
SCF_CONVERGENCE = 6
THRESH=10
GUI = 2
$end

$solvent
dielectric 4.90
$end
--------------------------------------------------------------

             Standard Nuclear Orientation (Angstroms)
    I     Atom           X                Y                Z
 ----------------------------------------------------------------
    1      C       0.0014780000    -6.7414040000     0.2569270000
    2      C       0.0016030000    -6.1556380000     1.5626750000
    3      C       0.0019310000    -5.7914520000    -0.8271970000
    4      C       0.0013740000    -4.8037860000     1.8412530000
    5      H       0.0017940000    -6.8215180000     2.4407090000
    6      C       0.0012270000    -4.3786380000    -0.5354880000
    7      C       0.0008720000    -3.8380320000     0.7949990000
    8      C       0.0006580000    -3.4130620000    -1.5805290000
    9      C       0.0001860000    -2.4264730000     1.0843740000
   10      C       0.0000460000    -2.0593480000    -1.3052580000
   11      C       0.0000000000    -1.4782160000     0.0000000000
   12      H      -0.0003690000    -1.3947830000    -2.1842670000
   13      C       0.0037700000    -6.1879870000    -2.2697190000
   14      C       0.0007670000    -3.7981640000    -3.0111520000
   15      N       0.0024650000    -5.1700030000    -3.2546170000
   16      C       0.0014330000    -4.4249870000     3.2757750000
   17      C      -0.0005760000    -2.0366270000     2.5279510000
   18      N       0.0004000000    -3.0491560000     3.5131040000
   19      O       0.0066230000    -7.3531310000    -2.6610460000
   20      O      -0.0001720000    -2.9868540000    -3.9344100000
   21      O       0.0021510000    -5.2489460000     4.1880590000
   22      O      -0.0020060000    -0.8788290000     2.9408450000
   23      C       0.0035090000    -5.5637990000    -4.6672060000
   24      H       0.0046580000    -6.6640850000    -4.7124230000
   25      H       0.8976100000    -5.1471010000    -5.1692310000
   26      H      -0.8909350000    -5.1487850000    -5.1699920000
   27      C      -0.0000390000    -2.5874870000     4.9042290000
   28      H       0.0010220000    -3.4833290000     5.5468330000
   29      H      -0.8945450000    -1.9649720000     5.0959980000
   30      H       0.8930710000    -1.9629320000     5.0958580000
   31      C       0.0000000000     0.0000000000     0.0000000000
   32      S       0.6868050000     0.3967600000     1.5805300000
   33      C       2.1050950000     1.2156400000     0.9049110000
   34      C       0.8642010000     0.4991400000    -0.9854000000
   35      C       2.0075140000     1.1593470000    -0.4935280000
   36      H       0.6601360000     0.3812960000    -2.0599340000
   37      H       2.7703880000     1.5998750000    -1.1525930000
   38      H       2.8677450000     1.6560530000     1.5560250000
   39      H      -0.8967790000    -7.3615890000     0.1498810000
   40      H       0.9001000000    -7.3611920000     0.1506560000
   41      H      -1.0800000000    -1.4788310000    -0.0005310000
 ----------------------------------------------------------------

   11   -1571.5736387260      7.21e-07  Convergence criterion met
 Total energy in the final basis set =    -1571.5736387260
        RIMP2         total energy =     -1576.2696804006 a.u.

                    Orbital Energies (a.u.)
 --------------------------------------------------------------

 Alpha MOs
 -- Occupied --
-91.9704 -20.5670 -20.5471 -20.5381 -20.5376 -15.6343 -15.6192 -11.4058
-11.3879 -11.3799 -11.3765 -11.3090 -11.3079 -11.3041 -11.3029 -11.2976
-11.2802 -11.2742 -11.2687 -11.2668 -11.2628 -11.2628 -11.2605 -11.2583
-11.2522 -11.2512 -11.2377  -8.9713  -6.6517  -6.6494  -6.6483  -1.4490
 -1.4096  -1.4058  -1.3887  -1.2724  -1.2534  -1.2303  -1.1876  -1.1463
 -1.1130  -1.0816  -1.0473  -0.9966  -0.9894  -0.9851  -0.9558  -0.9462
 -0.9003  -0.8875  -0.8790  -0.8609  -0.7905  -0.7842  -0.7771  -0.7627
 -0.7347  -0.7265  -0.7014  -0.6908  -0.6889  -0.6783  -0.6683  -0.6578
 -0.6525  -0.6432  -0.6361  -0.6329  -0.6311  -0.6299  -0.6220  -0.6062
 -0.5934  -0.5770  -0.5693  -0.5643  -0.5615  -0.5584  -0.5534  -0.5478
 -0.5460  -0.5447  -0.5286  -0.5116  -0.5066  -0.4896  -0.4650  -0.4557
 -0.4449  -0.4408  -0.4368  -0.4225  -0.4057  -0.3775  -0.3522  -0.3295
 -0.3127  -0.2688

          Ground-State Mulliken Net Atomic Charges

     Atom                 Charge (a.u.)
  ----------------------------------------
      1 C                    -0.086034
      2 C                    -0.028102
      3 C                    -0.122013
      4 C                    -0.120328
      5 H                     0.198939
      6 C                     0.015171
      7 C                     0.122746
      8 C                    -0.083954
      9 C                    -0.227796
     10 C                    -0.148961
     11 C                     0.196592
     12 H                     0.188428
     13 C                     0.340142
     14 C                     0.345015
     15 N                    -0.088510
     16 C                     0.357448
     17 C                     0.390083
     18 N                    -0.082180
     19 O                    -0.501343
     20 O                    -0.513593
     21 O                    -0.498396
     22 O                    -0.407595
     23 C                    -0.205721
     24 H                     0.139206
     25 H                     0.108449
     26 H                     0.108411
     27 C                    -0.198131
     28 H                     0.136067
     29 H                     0.112792
     30 H                     0.113657
     31 C                    -0.142448
     32 S                     0.085740
     33 C                    -0.195822
     34 C                    -0.110994
     35 C                    -0.263981
     36 H                     0.192510
     37 H                     0.178313
     38 H                     0.200863
     39 H                     0.136080
     40 H                     0.136237
     41 H                     0.223012
  ----------------------------------------
  Sum of atomic charges =     0.000000

                    Cartesian Multipole Moments
 -----------------------------------------------------------------
    Charge (ESU x 10^10)
                 0.0000
    Dipole Moment (Debye)
         X       1.0057      Y       1.2976      Z       2.3553
       Tot       2.8710
    Quadrupole Moments (Debye-Ang)
        XX    -155.5747     XY       5.3771     YY    -190.8550
        XZ       1.1777     YZ     -12.8056     ZZ    -184.7709

 Total job time:  371.76s(wall), 10042.83s(cpu)
        *  Thank you very much for using Q-Chem.  Have a nice day.  *
