 Q-Chem 5.4, Q-Chem, Inc., Pleasanton, CA (2021)
 Q-Chem 5.4.0 for Intel X86 EM64T Linux

User input:
--------------------------------------------------------------
$molecule
0 1
C	-0.256927	-6.741404	0.001478
C	-1.562675	-6.155638	0.001603
C	0.827197	-5.791452	0.001931
C	-1.841253	-4.803786	0.001374
H	-2.440709	-6.821518	0.001794
C	0.535488	-4.378638	0.001227
C	-0.794999	-3.838032	0.000872
C	1.580529	-3.413062	0.000658
C	-1.084374	-2.426473	0.000186
C	1.305258	-2.059348	0.000046
C	-0.000000	-1.478216	-0.000000
H	2.184267	-1.394783	-0.000369
C	2.269719	-6.187987	0.003770
C	3.011152	-3.798164	0.000767
N	3.254617	-5.170003	0.002465
C	-3.275775	-4.424987	0.001433
C	-2.527951	-2.036627	-0.000576
N	-3.513104	-3.049156	0.000400
O	2.661046	-7.353131	0.006623
O	3.934410	-2.986854	-0.000172
O	-4.188059	-5.248946	0.002151
O	-2.940845	-0.878829	-0.002006
C	4.667206	-5.563799	0.003509
H	4.712423	-6.664085	0.004658
H	5.169231	-5.147101	0.897610
H	5.169992	-5.148785	-0.890935
C	-4.904229	-2.587487	-0.000039
H	-5.546833	-3.483329	0.001022
H	-5.095998	-1.964972	-0.894545
H	-5.095858	-1.962932	0.893071
C	0.000000	0.000000	0.000000
S	0.686805	0.396760	1.580530
C	2.105095	1.215640	0.904911
C	0.864201	0.499140	-0.985400
C	2.007514	1.159347	-0.493528
H	0.660136	0.381296	-2.059934
H	2.770388	1.599875	-1.152593
H	2.867745	1.656053	1.556025
H	-0.149881	-7.361589	-0.896779
H	-0.150656	-7.361192	0.900100
H	0.000531	-1.478831	-1.080000
$end

$rem
JOBTYPE		SP
EXCHANGE	HF
CORRELATION	pRIMP2
BASIS		cc-pvtz
METHOD		rimp2
AUX_BASIS	rimp2-cc-pvtz
SOLVENT_METHOD	PCM
PURECART	11111
SYMMETRY	false
MEM_TOTAL	110000
SCF_CONVERGENCE = 6
THRESH=10
GUI = 2
$end

$solvent
dielectric 4.90
$end
--------------------------------------------------------------

             Standard Nuclear Orientation (Angstroms)
    I     Atom           X                Y                Z
 ----------------------------------------------------------------
    1      C      -0.2569270000    -6.7414040000     0.0014780000
    2      C      -1.5626750000    -6.1556380000     0.0016030000
    3      C       0.8271970000    -5.7914520000     0.0019310000
    4      C      -1.8412530000    -4.8037860000     0.0013740000
    5      H      -2.4407090000    -6.8215180000     0.0017940000
    6      C       0.5354880000    -4.3786380000     0.0012270000
    7      C      -0.7949990000    -3.8380320000     0.0008720000
    8      C       1.5805290000    -3.4130620000     0.0006580000
    9      C      -1.0843740000    -2.4264730000     0.0001860000
   10      C       1.3052580000    -2.0593480000     0.0000460000
   11      C       0.0000000000    -1.4782160000     0.0000000000
   12      H       2.1842670000    -1.3947830000    -0.0003690000
   13      C       2.2697190000    -6.1879870000     0.0037700000
   14      C       3.0111520000    -3.7981640000     0.0007670000
   15      N       3.2546170000    -5.1700030000     0.0024650000
   16      C      -3.2757750000    -4.4249870000     0.0014330000
   17      C      -2.5279510000    -2.0366270000    -0.0005760000
   18      N      -3.5131040000    -3.0491560000     0.0004000000
   19      O       2.6610460000    -7.3531310000     0.0066230000
   20      O       3.9344100000    -2.9868540000    -0.0001720000
   21      O      -4.1880590000    -5.2489460000     0.0021510000
   22      O      -2.9408450000    -0.8788290000    -0.0020060000
   23      C       4.6672060000    -5.5637990000     0.0035090000
   24      H       4.7124230000    -6.6640850000     0.0046580000
   25      H       5.1692310000    -5.1471010000     0.8976100000
   26      H       5.1699920000    -5.1487850000    -0.8909350000
   27      C      -4.9042290000    -2.5874870000    -0.0000390000
   28      H      -5.5468330000    -3.4833290000     0.0010220000
   29      H      -5.0959980000    -1.9649720000    -0.8945450000
   30      H      -5.0958580000    -1.9629320000     0.8930710000
   31      C       0.0000000000     0.0000000000     0.0000000000
   32      S       0.6868050000     0.3967600000     1.5805300000
   33      C       2.1050950000     1.2156400000     0.9049110000
   34      C       0.8642010000     0.4991400000    -0.9854000000
   35      C       2.0075140000     1.1593470000    -0.4935280000
   36      H       0.6601360000     0.3812960000    -2.0599340000
   37      H       2.7703880000     1.5998750000    -1.1525930000
   38      H       2.8677450000     1.6560530000     1.5560250000
   39      H      -0.1498810000    -7.3615890000    -0.8967790000
   40      H      -0.1506560000    -7.3611920000     0.9001000000
   41      H       0.0005310000    -1.4788310000    -1.0800000000
 ----------------------------------------------------------------

   11   -1571.6848853042      5.60e-07  Convergence criterion met
 Total energy in the final basis set =    -1571.6848853042
        RIMP2         total energy =     -1576.3554080517 a.u.

                    Orbital Energies (a.u.)
 --------------------------------------------------------------

 Alpha MOs
 -- Occupied --
-91.9918 -20.5506 -20.5426 -20.5398 -20.5394 -15.6250 -15.6197 -11.3909
-11.3831 -11.3815 -11.3776 -11.3064 -11.3035 -11.3022 -11.3008 -11.2992
-11.2921 -11.2826 -11.2756 -11.2741 -11.2651 -11.2650 -11.2616 -11.2614
-11.2588 -11.2579 -11.2500  -8.9923  -6.6729  -6.6722  -6.6719  -1.4174
 -1.4108  -1.3953  -1.3900  -1.2601  -1.2539  -1.2330  -1.1950  -1.1514
 -1.1109  -1.0828  -1.0432  -1.0018  -0.9960  -0.9858  -0.9538  -0.9478
 -0.8943  -0.8841  -0.8733  -0.8558  -0.7960  -0.7779  -0.7686  -0.7673
 -0.7437  -0.7166  -0.7036  -0.6897  -0.6833  -0.6698  -0.6649  -0.6557
 -0.6448  -0.6428  -0.6364  -0.6322  -0.6287  -0.6251  -0.6196  -0.6038
 -0.5841  -0.5816  -0.5698  -0.5598  -0.5551  -0.5504  -0.5498  -0.5470
 -0.5461  -0.5420  -0.5235  -0.5061  -0.4941  -0.4841  -0.4737  -0.4601
 -0.4574  -0.4494  -0.4411  -0.4321  -0.4117  -0.4060  -0.3660  -0.3434
 -0.3351  -0.2856

          Ground-State Mulliken Net Atomic Charges

     Atom                 Charge (a.u.)
  ----------------------------------------
      1 C                    -0.087112
      2 C                    -0.037446
      3 C                    -0.110889
      4 C                    -0.119151
      5 H                     0.196889
      6 C                     0.015390
      7 C                     0.119935
      8 C                    -0.104266
      9 C                    -0.209290
     10 C                    -0.154597
     11 C                     0.226579
     12 H                     0.201488
     13 C                     0.342912
     14 C                     0.335801
     15 N                    -0.088974
     16 C                     0.355102
     17 C                     0.356580
     18 N                    -0.090830
     19 O                    -0.497233
     20 O                    -0.510954
     21 O                    -0.502883
     22 O                    -0.465729
     23 C                    -0.205718
     24 H                     0.139429
     25 H                     0.108628
     26 H                     0.108227
     27 C                    -0.198473
     28 H                     0.132886
     29 H                     0.110734
     30 H                     0.111488
     31 C                    -0.100201
     32 S                     0.028996
     33 C                    -0.134132
     34 C                    -0.101418
     35 C                    -0.234889
     36 H                     0.193705
     37 H                     0.194600
     38 H                     0.216192
     39 H                     0.135154
     40 H                     0.135473
     41 H                     0.187996
  ----------------------------------------
  Sum of atomic charges =     0.000000

                    Cartesian Multipole Moments
 -----------------------------------------------------------------
    Charge (ESU x 10^10)
                 0.0000
    Dipole Moment (Debye)
         X       1.8114      Y       2.9592      Z      -1.7170
       Tot       3.8711
    Quadrupole Moments (Debye-Ang)
        XX    -187.4145     XY      14.7881     YY    -191.2398
        XZ       1.0281     YZ       1.7202     ZZ    -155.3437

 Total job time:  357.56s(wall), 11776.19s(cpu)
        *  Thank you very much for using Q-Chem.  Have a nice day.  *
