 Q-Chem 5.4, Q-Chem, Inc., Pleasanton, CA (2021)
 Q-Chem 5.4.0 for Intel X86 EM64T Linux

User input:
--------------------------------------------------------------
$molecule
0 1
C	-0.166281	-6.741404	-0.195868
C	-1.005696	-6.155638	-1.196048
C	0.530233	-5.791452	0.634911
C	-1.184587	-4.803786	-1.409599
H	-1.570232	-6.821518	-1.868538
C	0.343266	-4.378638	0.410996
C	-0.511683	-3.838032	-0.608444
C	1.015440	-3.413062	1.211179
C	-0.697165	-2.426473	-0.830559
C	0.838968	-2.059348	0.999915
C	0.000000	-1.478216	0.000000
H	1.404302	-1.394783	1.673009
C	1.456059	-6.187987	1.741129
C	1.934944	-3.798164	2.307170
N	2.090139	-5.170003	2.494766
C	-2.106725	-4.424987	-2.508468
C	-1.624494	-2.036627	-1.936893
N	-2.258486	-3.049156	-2.690936
O	1.705414	-7.353131	2.042736
O	2.529122	-2.986854	3.013823
O	-2.693680	-5.248946	-3.206857
O	-1.888802	-0.878829	-2.254108
C	2.997334	-5.563799	3.577543
H	3.025519	-6.664085	3.612920
H	2.635109	-5.147101	4.536833
H	4.005702	-5.148785	3.387762
C	-3.152347	-2.587487	-3.756883
H	-3.566218	-3.483329	-4.248464
H	-2.590383	-1.964972	-4.478763
H	-3.959687	-1.962932	-3.329599
C	0.000000	0.000000	0.000000
S	0.137535	0.781156	1.580530
C	0.421895	2.393994	0.904911
C	0.173134	0.982857	-0.985400
C	0.402294	2.283058	-0.493528
H	0.132237	0.750786	-2.059934
H	0.555196	3.150621	-1.152593
H	0.574741	3.261310	1.556025
H	0.590631	-7.361589	-0.691254
H	-0.786357	-7.361192	0.463164
H	0.827669	-1.478831	-0.693804
$end

$rem
JOBTYPE		SP
EXCHANGE	HF
CORRELATION	pRIMP2
BASIS		cc-pvtz
METHOD		rimp2
AUX_BASIS	rimp2-cc-pvtz
SOLVENT_METHOD	PCM
PURECART	11111
SYMMETRY	false
MEM_TOTAL	110000
SCF_CONVERGENCE = 6
THRESH=10
GUI = 2
$end

$solvent
dielectric 4.90
$end
--------------------------------------------------------------

             Standard Nuclear Orientation (Angstroms)
    I     Atom           X                Y                Z
 ----------------------------------------------------------------
    1      C      -0.1662810000    -6.7414040000    -0.1958680000
    2      C      -1.0056960000    -6.1556380000    -1.1960480000
    3      C       0.5302330000    -5.7914520000     0.6349110000
    4      C      -1.1845870000    -4.8037860000    -1.4095990000
    5      H      -1.5702320000    -6.8215180000    -1.8685380000
    6      C       0.3432660000    -4.3786380000     0.4109960000
    7      C      -0.5116830000    -3.8380320000    -0.6084440000
    8      C       1.0154400000    -3.4130620000     1.2111790000
    9      C      -0.6971650000    -2.4264730000    -0.8305590000
   10      C       0.8389680000    -2.0593480000     0.9999150000
   11      C       0.0000000000    -1.4782160000     0.0000000000
   12      H       1.4043020000    -1.3947830000     1.6730090000
   13      C       1.4560590000    -6.1879870000     1.7411290000
   14      C       1.9349440000    -3.7981640000     2.3071700000
   15      N       2.0901390000    -5.1700030000     2.4947660000
   16      C      -2.1067250000    -4.4249870000    -2.5084680000
   17      C      -1.6244940000    -2.0366270000    -1.9368930000
   18      N      -2.2584860000    -3.0491560000    -2.6909360000
   19      O       1.7054140000    -7.3531310000     2.0427360000
   20      O       2.5291220000    -2.9868540000     3.0138230000
   21      O      -2.6936800000    -5.2489460000    -3.2068570000
   22      O      -1.8888020000    -0.8788290000    -2.2541080000
   23      C       2.9973340000    -5.5637990000     3.5775430000
   24      H       3.0255190000    -6.6640850000     3.6129200000
   25      H       2.6351090000    -5.1471010000     4.5368330000
   26      H       4.0057020000    -5.1487850000     3.3877620000
   27      C      -3.1523470000    -2.5874870000    -3.7568830000
   28      H      -3.5662180000    -3.4833290000    -4.2484640000
   29      H      -2.5903830000    -1.9649720000    -4.4787630000
   30      H      -3.9596870000    -1.9629320000    -3.3295990000
   31      C       0.0000000000     0.0000000000     0.0000000000
   32      S       0.1375350000     0.7811560000     1.5805300000
   33      C       0.4218950000     2.3939940000     0.9049110000
   34      C       0.1731340000     0.9828570000    -0.9854000000
   35      C       0.4022940000     2.2830580000    -0.4935280000
   36      H       0.1322370000     0.7507860000    -2.0599340000
   37      H       0.5551960000     3.1506210000    -1.1525930000
   38      H       0.5747410000     3.2613100000     1.5560250000
   39      H       0.5906310000    -7.3615890000    -0.6912540000
   40      H      -0.7863570000    -7.3611920000     0.4631640000
   41      H       0.8276690000    -1.4788310000    -0.6938040000
 ----------------------------------------------------------------

   11   -1571.7430895928      5.74e-07  Convergence criterion met
 Total energy in the final basis set =    -1571.7430895928
        RIMP2         total energy =     -1576.3998560697 a.u.

                    Orbital Energies (a.u.)
 --------------------------------------------------------------

 Alpha MOs
 -- Occupied --
-91.9906 -20.5527 -20.5449 -20.5419 -20.5410 -15.6275 -15.6215 -11.3943
-11.3856 -11.3838 -11.3796 -11.3089 -11.3087 -11.3057 -11.3049 -11.2988
-11.2969 -11.2914 -11.2781 -11.2694 -11.2684 -11.2661 -11.2634 -11.2595
-11.2530 -11.2502 -11.2490  -8.9903  -6.6712  -6.6707  -6.6701  -1.4203
 -1.4125  -1.3979  -1.3916  -1.2627  -1.2557  -1.2310  -1.1874  -1.1518
 -1.1147  -1.0870  -1.0476  -0.9955  -0.9881  -0.9842  -0.9554  -0.9503
 -0.8972  -0.8889  -0.8772  -0.8604  -0.7958  -0.7789  -0.7713  -0.7597
 -0.7407  -0.7163  -0.7027  -0.6916  -0.6820  -0.6721  -0.6672  -0.6575
 -0.6475  -0.6454  -0.6375  -0.6323  -0.6311  -0.6282  -0.6228  -0.6047
 -0.5882  -0.5741  -0.5648  -0.5609  -0.5574  -0.5518  -0.5507  -0.5495
 -0.5479  -0.5436  -0.5171  -0.5160  -0.5116  -0.4851  -0.4760  -0.4648
 -0.4580  -0.4516  -0.4432  -0.4351  -0.4139  -0.4078  -0.3534  -0.3531
 -0.3305  -0.2822

          Ground-State Mulliken Net Atomic Charges

     Atom                 Charge (a.u.)
  ----------------------------------------
      1 C                    -0.085163
      2 C                    -0.030058
      3 C                    -0.110601
      4 C                    -0.126008
      5 H                     0.199056
      6 C                     0.022072
      7 C                     0.114253
      8 C                    -0.081210
      9 C                    -0.177850
     10 C                    -0.148041
     11 C                     0.199117
     12 H                     0.192389
     13 C                     0.342948
     14 C                     0.348172
     15 N                    -0.090009
     16 C                     0.357465
     17 C                     0.348675
     18 N                    -0.090026
     19 O                    -0.494203
     20 O                    -0.506454
     21 O                    -0.501383
     22 O                    -0.471589
     23 C                    -0.204700
     24 H                     0.139483
     25 H                     0.109435
     26 H                     0.109119
     27 C                    -0.197519
     28 H                     0.133562
     29 H                     0.110747
     30 H                     0.112336
     31 C                    -0.012900
     32 S                     0.010037
     33 C                    -0.215428
     34 C                    -0.167262
     35 C                    -0.214814
     36 H                     0.186274
     37 H                     0.190295
     38 H                     0.211396
     39 H                     0.137679
     40 H                     0.137909
     41 H                     0.212800
  ----------------------------------------
  Sum of atomic charges =     0.000000

                    Cartesian Multipole Moments
 -----------------------------------------------------------------
    Charge (ESU x 10^10)
                 0.0000
    Dipole Moment (Debye)
         X       0.3949      Y       1.9163      Z      -2.3007
       Tot       3.0202
    Quadrupole Moments (Debye-Ang)
        XX    -175.9549     XY       6.2950     YY    -177.8217
        XZ     -16.2633     YZ       8.0838     ZZ    -175.6837

 Total job time:  316.61s(wall), 9376.15s(cpu)
        *  Thank you very much for using Q-Chem.  Have a nice day.  *
