 Q-Chem 5.4, Q-Chem, Inc., Pleasanton, CA (2021)
 Q-Chem 5.4.0 for Intel X86 EM64T Linux

User input:
--------------------------------------------------------------
$molecule
0 1
C	0.043160	-6.741404	-0.253280
C	0.269777	-6.155638	-1.539213
C	-0.145543	-5.791452	0.814295
C	0.318377	-4.803786	-1.813519
H	0.422058	-6.821518	-2.403941
C	-0.094194	-4.378638	0.527140
C	0.137191	-3.838032	-0.783072
C	-0.275104	-3.413062	1.556403
C	0.188116	-2.426473	-1.067932
C	-0.226701	-2.059348	1.285420
C	-0.000000	-1.478216	-0.000000
H	-0.378931	-1.394783	2.151147
C	-0.397845	-6.187987	2.234582
C	-0.523637	-3.798164	2.965273
N	-0.567586	-5.170003	3.204744
C	0.567421	-4.424987	-3.226257
C	0.439541	-2.036627	-2.489446
N	0.609650	-3.049156	-3.459801
O	-0.468608	-7.353131	2.619468
O	-0.683034	-2.986854	3.874668
O	0.725131	-5.248946	-4.124806
O	0.512648	-0.878829	-2.895819
C	-0.813908	-5.563799	4.595691
H	-0.822891	-6.664085	4.640022
H	-1.781600	-5.147101	4.934830
H	-0.020360	-5.148785	5.246157
C	0.851649	-2.587487	-4.829716
H	0.962191	-3.483329	-5.462742
H	1.765865	-1.964972	-4.863242
H	0.005383	-1.962932	-5.173521
C	0.000000	0.000000	0.000000
S	0.509686	0.607733	1.580530
C	1.562368	1.862312	0.904911
C	0.641367	0.764613	-0.985400
C	1.489926	1.776040	-0.493528
H	0.489914	0.584081	-2.059934
H	2.056124	2.450920	-1.152593
H	2.128395	2.537007	1.556025
H	0.909181	-7.361589	0.008120
H	-0.860264	-7.361192	-0.304668
H	1.063500	-1.478831	0.188062
$end

$rem
JOBTYPE		SP
EXCHANGE	HF
CORRELATION	pRIMP2
BASIS		cc-pvtz
METHOD		rimp2
AUX_BASIS	rimp2-cc-pvtz
SOLVENT_METHOD	PCM
PURECART	11111
SYMMETRY	false
MEM_TOTAL	110000
SCF_CONVERGENCE = 6
THRESH=10
GUI = 2
$end

$solvent
dielectric 4.90
$end
--------------------------------------------------------------

             Standard Nuclear Orientation (Angstroms)
    I     Atom           X                Y                Z
 ----------------------------------------------------------------
    1      C       0.0431600000    -6.7414040000    -0.2532800000
    2      C       0.2697770000    -6.1556380000    -1.5392130000
    3      C      -0.1455430000    -5.7914520000     0.8142950000
    4      C       0.3183770000    -4.8037860000    -1.8135190000
    5      H       0.4220580000    -6.8215180000    -2.4039410000
    6      C      -0.0941940000    -4.3786380000     0.5271400000
    7      C       0.1371910000    -3.8380320000    -0.7830720000
    8      C      -0.2751040000    -3.4130620000     1.5564030000
    9      C       0.1881160000    -2.4264730000    -1.0679320000
   10      C      -0.2267010000    -2.0593480000     1.2854200000
   11      C       0.0000000000    -1.4782160000     0.0000000000
   12      H      -0.3789310000    -1.3947830000     2.1511470000
   13      C      -0.3978450000    -6.1879870000     2.2345820000
   14      C      -0.5236370000    -3.7981640000     2.9652730000
   15      N      -0.5675860000    -5.1700030000     3.2047440000
   16      C       0.5674210000    -4.4249870000    -3.2262570000
   17      C       0.4395410000    -2.0366270000    -2.4894460000
   18      N       0.6096500000    -3.0491560000    -3.4598010000
   19      O      -0.4686080000    -7.3531310000     2.6194680000
   20      O      -0.6830340000    -2.9868540000     3.8746680000
   21      O       0.7251310000    -5.2489460000    -4.1248060000
   22      O       0.5126480000    -0.8788290000    -2.8958190000
   23      C      -0.8139080000    -5.5637990000     4.5956910000
   24      H      -0.8228910000    -6.6640850000     4.6400220000
   25      H      -1.7816000000    -5.1471010000     4.9348300000
   26      H      -0.0203600000    -5.1487850000     5.2461570000
   27      C       0.8516490000    -2.5874870000    -4.8297160000
   28      H       0.9621910000    -3.4833290000    -5.4627420000
   29      H       1.7658650000    -1.9649720000    -4.8632420000
   30      H       0.0053830000    -1.9629320000    -5.1735210000
   31      C       0.0000000000     0.0000000000     0.0000000000
   32      S       0.5096860000     0.6077330000     1.5805300000
   33      C       1.5623680000     1.8623120000     0.9049110000
   34      C       0.6413670000     0.7646130000    -0.9854000000
   35      C       1.4899260000     1.7760400000    -0.4935280000
   36      H       0.4899140000     0.5840810000    -2.0599340000
   37      H       2.0561240000     2.4509200000    -1.1525930000
   38      H       2.1283950000     2.5370070000     1.5560250000
   39      H       0.9091810000    -7.3615890000     0.0081200000
   40      H      -0.8602640000    -7.3611920000    -0.3046680000
   41      H       1.0635000000    -1.4788310000     0.1880620000
 ----------------------------------------------------------------

   11   -1571.6924236275      5.51e-07  Convergence criterion met
 Total energy in the final basis set =    -1571.6924236275
        RIMP2         total energy =     -1576.3596645047 a.u.

                    Orbital Energies (a.u.)
 --------------------------------------------------------------

 Alpha MOs
 -- Occupied --
-91.9850 -20.5534 -20.5461 -20.5413 -20.5403 -15.6301 -15.6209 -11.3997
-11.3867 -11.3832 -11.3787 -11.3087 -11.3062 -11.3052 -11.3044 -11.2972
-11.2882 -11.2850 -11.2835 -11.2689 -11.2687 -11.2649 -11.2649 -11.2591
-11.2529 -11.2459 -11.2372  -8.9860  -6.6668  -6.6662  -6.6656  -1.4266
 -1.4119  -1.4013  -1.3910  -1.2659  -1.2553  -1.2320  -1.1899  -1.1496
 -1.1141  -1.0855  -1.0480  -0.9966  -0.9887  -0.9846  -0.9556  -0.9478
 -0.8978  -0.8891  -0.8780  -0.8609  -0.7930  -0.7813  -0.7734  -0.7603
 -0.7393  -0.7278  -0.7020  -0.6889  -0.6820  -0.6744  -0.6681  -0.6580
 -0.6492  -0.6478  -0.6374  -0.6318  -0.6311  -0.6305  -0.6241  -0.6046
 -0.5925  -0.5700  -0.5644  -0.5637  -0.5574  -0.5525  -0.5521  -0.5484
 -0.5475  -0.5421  -0.5173  -0.5130  -0.5061  -0.4810  -0.4723  -0.4600
 -0.4563  -0.4460  -0.4407  -0.4357  -0.4171  -0.4076  -0.3585  -0.3464
 -0.3323  -0.2755

          Ground-State Mulliken Net Atomic Charges

     Atom                 Charge (a.u.)
  ----------------------------------------
      1 C                    -0.083923
      2 C                    -0.032162
      3 C                    -0.109571
      4 C                    -0.118197
      5 H                     0.198662
      6 C                     0.019676
      7 C                     0.123736
      8 C                    -0.058978
      9 C                    -0.210439
     10 C                    -0.147507
     11 C                     0.178678
     12 H                     0.183520
     13 C                     0.342159
     14 C                     0.344501
     15 N                    -0.089917
     16 C                     0.357858
     17 C                     0.387859
     18 N                    -0.087147
     19 O                    -0.494856
     20 O                    -0.507308
     21 O                    -0.499866
     22 O                    -0.472221
     23 C                    -0.205073
     24 H                     0.139389
     25 H                     0.109318
     26 H                     0.109190
     27 C                    -0.199221
     28 H                     0.134840
     29 H                     0.111633
     30 H                     0.112511
     31 C                    -0.013418
     32 S                    -0.010509
     33 C                    -0.211790
     34 C                    -0.208711
     35 C                    -0.216503
     36 H                     0.231078
     37 H                     0.191699
     38 H                     0.214066
     39 H                     0.137620
     40 H                     0.138054
     41 H                     0.211272
  ----------------------------------------
  Sum of atomic charges =     0.000000

                    Cartesian Multipole Moments
 -----------------------------------------------------------------
    Charge (ESU x 10^10)
                 0.0000
    Dipole Moment (Debye)
         X       2.5088      Y       1.6294      Z      -2.4838
       Tot       3.8882
    Quadrupole Moments (Debye-Ang)
        XX    -158.8800     XY       2.5146     YY    -181.7898
        XZ       5.6120     YZ       9.5917     ZZ    -187.3292

 Total job time:  379.23s(wall), 9287.67s(cpu)
        *  Thank you very much for using Q-Chem.  Have a nice day.  *
