 Q-Chem 5.4, Q-Chem, Inc., Pleasanton, CA (2021)
 Q-Chem 5.4.0 for Intel X86 EM64T Linux

User input:
--------------------------------------------------------------
$molecule
0 1
C	-0.241938	-6.741404	-0.086486
C	-1.468983	-6.155638	-0.532960
C	0.776651	-5.791452	0.284733
C	-1.730681	-4.803786	-0.628455
H	-2.294130	-6.821518	-0.833086
C	0.502775	-4.378638	0.184300
C	-0.747353	-3.838032	-0.271086
C	1.484986	-3.413062	0.541191
C	-1.019042	-2.426473	-0.370703
C	1.226525	-2.059348	0.446468
C	0.000000	-1.478216	0.000000
H	2.052666	-1.394783	0.746717
C	2.131549	-6.187987	0.779832
C	2.829295	-3.798164	1.030596
N	3.057496	-5.170003	1.115461
C	-3.078712	-4.424987	-1.119034
C	-2.375300	-2.036627	-0.865151
N	-3.301374	-3.049156	-1.201176
O	2.498300	-7.353131	0.916355
O	3.697195	-2.986854	1.345486
O	-3.936224	-5.248946	-1.430379
O	-2.762805	-0.878829	-1.007714
C	4.384539	-5.563799	1.599576
H	4.426636	-6.664085	1.616121
H	4.550487	-5.147101	2.611458
H	5.162921	-5.148785	0.931037
C	-4.608454	-2.587487	-1.677382
H	-5.212668	-3.483329	-1.896168
H	-4.482719	-1.964972	-2.583531
H	-5.093988	-1.962932	-0.903674
C	0.000000	0.000000	0.000000
S	0.509686	0.607733	1.580530
C	1.562368	1.862312	0.904911
C	0.641367	0.764613	-0.985400
C	1.489926	1.776040	-0.493528
H	0.489914	0.584081	-2.059934
H	2.056124	2.450920	-1.152593
H	2.128395	2.537007	1.556025
H	0.165874	-7.361589	-0.893959
H	-0.449423	-7.361192	0.794290
H	0.369880	-1.478831	-1.014686
$end

$rem
JOBTYPE		SP
EXCHANGE	HF
CORRELATION	pRIMP2
BASIS		cc-pvtz
METHOD		rimp2
AUX_BASIS	rimp2-cc-pvtz
SOLVENT_METHOD	PCM
PURECART	11111
SYMMETRY	false
MEM_TOTAL	110000
SCF_CONVERGENCE = 6
THRESH=10
GUI = 2
$end

$solvent
dielectric 4.90
$end
--------------------------------------------------------------

             Standard Nuclear Orientation (Angstroms)
    I     Atom           X                Y                Z
 ----------------------------------------------------------------
    1      C      -0.2419380000    -6.7414040000    -0.0864860000
    2      C      -1.4689830000    -6.1556380000    -0.5329600000
    3      C       0.7766510000    -5.7914520000     0.2847330000
    4      C      -1.7306810000    -4.8037860000    -0.6284550000
    5      H      -2.2941300000    -6.8215180000    -0.8330860000
    6      C       0.5027750000    -4.3786380000     0.1843000000
    7      C      -0.7473530000    -3.8380320000    -0.2710860000
    8      C       1.4849860000    -3.4130620000     0.5411910000
    9      C      -1.0190420000    -2.4264730000    -0.3707030000
   10      C       1.2265250000    -2.0593480000     0.4464680000
   11      C       0.0000000000    -1.4782160000     0.0000000000
   12      H       2.0526660000    -1.3947830000     0.7467170000
   13      C       2.1315490000    -6.1879870000     0.7798320000
   14      C       2.8292950000    -3.7981640000     1.0305960000
   15      N       3.0574960000    -5.1700030000     1.1154610000
   16      C      -3.0787120000    -4.4249870000    -1.1190340000
   17      C      -2.3753000000    -2.0366270000    -0.8651510000
   18      N      -3.3013740000    -3.0491560000    -1.2011760000
   19      O       2.4983000000    -7.3531310000     0.9163550000
   20      O       3.6971950000    -2.9868540000     1.3454860000
   21      O      -3.9362240000    -5.2489460000    -1.4303790000
   22      O      -2.7628050000    -0.8788290000    -1.0077140000
   23      C       4.3845390000    -5.5637990000     1.5995760000
   24      H       4.4266360000    -6.6640850000     1.6161210000
   25      H       4.5504870000    -5.1471010000     2.6114580000
   26      H       5.1629210000    -5.1487850000     0.9310370000
   27      C      -4.6084540000    -2.5874870000    -1.6773820000
   28      H      -5.2126680000    -3.4833290000    -1.8961680000
   29      H      -4.4827190000    -1.9649720000    -2.5835310000
   30      H      -5.0939880000    -1.9629320000    -0.9036740000
   31      C       0.0000000000     0.0000000000     0.0000000000
   32      S       0.5096860000     0.6077330000     1.5805300000
   33      C       1.5623680000     1.8623120000     0.9049110000
   34      C       0.6413670000     0.7646130000    -0.9854000000
   35      C       1.4899260000     1.7760400000    -0.4935280000
   36      H       0.4899140000     0.5840810000    -2.0599340000
   37      H       2.0561240000     2.4509200000    -1.1525930000
   38      H       2.1283950000     2.5370070000     1.5560250000
   39      H       0.1658740000    -7.3615890000    -0.8939590000
   40      H      -0.4494230000    -7.3611920000     0.7942900000
   41      H       0.3698800000    -1.4788310000    -1.0146860000
 ----------------------------------------------------------------

   11   -1571.7203889538      5.57e-07  Convergence criterion met
 Total energy in the final basis set =    -1571.7203889538
        RIMP2         total energy =     -1576.3823086174 a.u.

                    Orbital Energies (a.u.)
 --------------------------------------------------------------

 Alpha MOs
 -- Occupied --
-91.9900 -20.5525 -20.5437 -20.5407 -20.5400 -15.6264 -15.6205 -11.3928
-11.3843 -11.3825 -11.3785 -11.3071 -11.3046 -11.3033 -11.3023 -11.2942
-11.2908 -11.2901 -11.2863 -11.2670 -11.2665 -11.2636 -11.2631 -11.2625
-11.2590 -11.2543 -11.2513  -8.9901  -6.6709  -6.6703  -6.6699  -1.4190
 -1.4115  -1.3966  -1.3906  -1.2614  -1.2547  -1.2304  -1.1903  -1.1524
 -1.1127  -1.0846  -1.0452  -0.9977  -0.9903  -0.9869  -0.9546  -0.9492
 -0.8958  -0.8863  -0.8750  -0.8577  -0.7953  -0.7779  -0.7696  -0.7639
 -0.7420  -0.7172  -0.7037  -0.6912  -0.6825  -0.6708  -0.6658  -0.6566
 -0.6460  -0.6433  -0.6347  -0.6332  -0.6298  -0.6265  -0.6210  -0.6041
 -0.5840  -0.5770  -0.5701  -0.5609  -0.5558  -0.5507  -0.5505  -0.5484
 -0.5470  -0.5428  -0.5211  -0.5102  -0.5037  -0.4839  -0.4751  -0.4649
 -0.4578  -0.4506  -0.4420  -0.4335  -0.4129  -0.4067  -0.3613  -0.3465
 -0.3312  -0.2860

          Ground-State Mulliken Net Atomic Charges

     Atom                 Charge (a.u.)
  ----------------------------------------
      1 C                    -0.085621
      2 C                    -0.034932
      3 C                    -0.112280
      4 C                    -0.119765
      5 H                     0.197739
      6 C                     0.017931
      7 C                     0.118125
      8 C                    -0.105032
      9 C                    -0.181173
     10 C                    -0.117303
     11 C                     0.152978
     12 H                     0.199795
     13 C                     0.342961
     14 C                     0.343392
     15 N                    -0.089674
     16 C                     0.356864
     17 C                     0.353585
     18 N                    -0.091571
     19 O                    -0.495783
     20 O                    -0.508278
     21 O                    -0.502005
     22 O                    -0.471282
     23 C                    -0.205209
     24 H                     0.139384
     25 H                     0.109066
     26 H                     0.108701
     27 C                    -0.197611
     28 H                     0.133095
     29 H                     0.110723
     30 H                     0.112038
     31 C                     0.008866
     32 S                     0.011038
     33 C                    -0.187886
     34 C                    -0.171353
     35 C                    -0.207567
     36 H                     0.185055
     37 H                     0.194192
     38 H                     0.212260
     39 H                     0.136208
     40 H                     0.136496
     41 H                     0.203832
  ----------------------------------------
  Sum of atomic charges =     0.000000

                    Cartesian Multipole Moments
 -----------------------------------------------------------------
    Charge (ESU x 10^10)
                 0.0000
    Dipole Moment (Debye)
         X       1.0201      Y       2.6041      Z      -2.0504
       Tot       3.4679
    Quadrupole Moments (Debye-Ang)
        XX    -187.6786     XY      13.6803     YY    -184.7918
        XZ     -10.3294     YZ       4.7461     ZZ    -159.7936

 Total job time:  387.58s(wall), 11816.57s(cpu)
        *  Thank you very much for using Q-Chem.  Have a nice day.  *
