 Q-Chem 5.4, Q-Chem, Inc., Pleasanton, CA (2021)
 Q-Chem 5.4.0 for Intel X86 EM64T Linux

User input:
--------------------------------------------------------------
$molecule
0 1
C	0.253280	-6.741404	0.043160
C	1.539213	-6.155638	0.269777
C	-0.814295	-5.791452	-0.145543
C	1.813519	-4.803786	0.318377
H	2.403941	-6.821518	0.422058
C	-0.527140	-4.378638	-0.094194
C	0.783072	-3.838032	0.137191
C	-1.556403	-3.413062	-0.275104
C	1.067932	-2.426473	0.188116
C	-1.285420	-2.059348	-0.226701
C	0.000000	-1.478216	0.000000
H	-2.151147	-1.394783	-0.378931
C	-2.234582	-6.187987	-0.397845
C	-2.965273	-3.798164	-0.523637
N	-3.204744	-5.170003	-0.567586
C	3.226257	-4.424987	0.567421
C	2.489446	-2.036627	0.439541
N	3.459801	-3.049156	0.609650
O	-2.619468	-7.353131	-0.468608
O	-3.874668	-2.986854	-0.683034
O	4.124806	-5.248946	0.725131
O	2.895819	-0.878829	0.512648
C	-4.595691	-5.563799	-0.813908
H	-4.640022	-6.664085	-0.822891
H	-4.934830	-5.147101	-1.781600
H	-5.246157	-5.148785	-0.020360
C	4.829716	-2.587487	0.851649
H	5.462742	-3.483329	0.962191
H	4.863242	-1.964972	1.765865
H	5.173521	-1.962932	0.005383
C	0.000000	0.000000	0.000000
S	0.137535	0.781156	1.580530
C	0.421895	2.393994	0.904911
C	0.173134	0.982857	-0.985400
C	0.402294	2.283058	-0.493528
H	0.132237	0.750786	-2.059934
H	0.555196	3.150621	-1.152593
H	0.574741	3.261310	1.556025
H	-0.008120	-7.361589	0.909181
H	0.304668	-7.361192	-0.860264
H	-0.188062	-1.478831	1.063500
$end

$rem
JOBTYPE		SP
EXCHANGE	HF
CORRELATION	pRIMP2
BASIS		cc-pvtz
METHOD		rimp2
AUX_BASIS	rimp2-cc-pvtz
SOLVENT_METHOD	PCM
PURECART	11111
SYMMETRY	false
MEM_TOTAL	110000
SCF_CONVERGENCE = 6
THRESH=10
GUI = 2
$end

$solvent
dielectric 4.90
$end
--------------------------------------------------------------

             Standard Nuclear Orientation (Angstroms)
    I     Atom           X                Y                Z
 ----------------------------------------------------------------
    1      C       0.2532800000    -6.7414040000     0.0431600000
    2      C       1.5392130000    -6.1556380000     0.2697770000
    3      C      -0.8142950000    -5.7914520000    -0.1455430000
    4      C       1.8135190000    -4.8037860000     0.3183770000
    5      H       2.4039410000    -6.8215180000     0.4220580000
    6      C      -0.5271400000    -4.3786380000    -0.0941940000
    7      C       0.7830720000    -3.8380320000     0.1371910000
    8      C      -1.5564030000    -3.4130620000    -0.2751040000
    9      C       1.0679320000    -2.4264730000     0.1881160000
   10      C      -1.2854200000    -2.0593480000    -0.2267010000
   11      C       0.0000000000    -1.4782160000     0.0000000000
   12      H      -2.1511470000    -1.3947830000    -0.3789310000
   13      C      -2.2345820000    -6.1879870000    -0.3978450000
   14      C      -2.9652730000    -3.7981640000    -0.5236370000
   15      N      -3.2047440000    -5.1700030000    -0.5675860000
   16      C       3.2262570000    -4.4249870000     0.5674210000
   17      C       2.4894460000    -2.0366270000     0.4395410000
   18      N       3.4598010000    -3.0491560000     0.6096500000
   19      O      -2.6194680000    -7.3531310000    -0.4686080000
   20      O      -3.8746680000    -2.9868540000    -0.6830340000
   21      O       4.1248060000    -5.2489460000     0.7251310000
   22      O       2.8958190000    -0.8788290000     0.5126480000
   23      C      -4.5956910000    -5.5637990000    -0.8139080000
   24      H      -4.6400220000    -6.6640850000    -0.8228910000
   25      H      -4.9348300000    -5.1471010000    -1.7816000000
   26      H      -5.2461570000    -5.1487850000    -0.0203600000
   27      C       4.8297160000    -2.5874870000     0.8516490000
   28      H       5.4627420000    -3.4833290000     0.9621910000
   29      H       4.8632420000    -1.9649720000     1.7658650000
   30      H       5.1735210000    -1.9629320000     0.0053830000
   31      C       0.0000000000     0.0000000000     0.0000000000
   32      S       0.1375350000     0.7811560000     1.5805300000
   33      C       0.4218950000     2.3939940000     0.9049110000
   34      C       0.1731340000     0.9828570000    -0.9854000000
   35      C       0.4022940000     2.2830580000    -0.4935280000
   36      H       0.1322370000     0.7507860000    -2.0599340000
   37      H       0.5551960000     3.1506210000    -1.1525930000
   38      H       0.5747410000     3.2613100000     1.5560250000
   39      H      -0.0081200000    -7.3615890000     0.9091810000
   40      H       0.3046680000    -7.3611920000    -0.8602640000
   41      H      -0.1880620000    -1.4788310000     1.0635000000
 ----------------------------------------------------------------

   11   -1571.7436796755      5.59e-07  Convergence criterion met
 Total energy in the final basis set =    -1571.7436796755
        RIMP2         total energy =     -1576.3986042231 a.u.

                    Orbital Energies (a.u.)
 --------------------------------------------------------------

 Alpha MOs
 -- Occupied --
-91.9913 -20.5510 -20.5442 -20.5419 -20.5405 -15.6263 -15.6212 -11.3924
-11.3848 -11.3837 -11.3790 -11.3084 -11.3081 -11.3047 -11.3046 -11.2963
-11.2926 -11.2888 -11.2833 -11.2693 -11.2679 -11.2642 -11.2624 -11.2594
-11.2538 -11.2527 -11.2505  -8.9909  -6.6717  -6.6713  -6.6706  -1.4187
 -1.4122  -1.3966  -1.3914  -1.2615  -1.2554  -1.2296  -1.1864  -1.1524
 -1.1139  -1.0865  -1.0464  -0.9956  -0.9876  -0.9842  -0.9548  -0.9512
 -0.8958  -0.8869  -0.8765  -0.8599  -0.7929  -0.7759  -0.7739  -0.7681
 -0.7372  -0.7169  -0.7041  -0.6912  -0.6773  -0.6700  -0.6674  -0.6570
 -0.6468  -0.6402  -0.6379  -0.6320  -0.6308  -0.6268  -0.6227  -0.6049
 -0.5844  -0.5748  -0.5668  -0.5611  -0.5570  -0.5510  -0.5502  -0.5479
 -0.5457  -0.5434  -0.5193  -0.5165  -0.5087  -0.4807  -0.4741  -0.4683
 -0.4566  -0.4504  -0.4426  -0.4346  -0.4130  -0.4074  -0.3548  -0.3511
 -0.3277  -0.2909

          Ground-State Mulliken Net Atomic Charges

     Atom                 Charge (a.u.)
  ----------------------------------------
      1 C                    -0.084470
      2 C                    -0.030717
      3 C                    -0.110399
      4 C                    -0.121469
      5 H                     0.198517
      6 C                     0.008899
      7 C                     0.121077
      8 C                    -0.086155
      9 C                    -0.174953
     10 C                    -0.136352
     11 C                     0.251685
     12 H                     0.190342
     13 C                     0.343545
     14 C                     0.351890
     15 N                    -0.090341
     16 C                     0.356952
     17 C                     0.359131
     18 N                    -0.091174
     19 O                    -0.493973
     20 O                    -0.507255
     21 O                    -0.501846
     22 O                    -0.471148
     23 C                    -0.204719
     24 H                     0.139473
     25 H                     0.109057
     26 H                     0.109176
     27 C                    -0.197339
     28 H                     0.132991
     29 H                     0.111511
     30 H                     0.111554
     31 C                    -0.072123
     32 S                     0.014590
     33 C                    -0.213479
     34 C                    -0.176886
     35 C                    -0.199683
     36 H                     0.188851
     37 H                     0.191197
     38 H                     0.212430
     39 H                     0.137633
     40 H                     0.137721
     41 H                     0.186260
  ----------------------------------------
  Sum of atomic charges =     0.000000

                    Cartesian Multipole Moments
 -----------------------------------------------------------------
    Charge (ESU x 10^10)
                 0.0000
    Dipole Moment (Debye)
         X       1.1615      Y       2.3709      Z      -0.0615
       Tot       2.6408
    Quadrupole Moments (Debye-Ang)
        XX    -194.7670     XY      -6.2606     YY    -177.6966
        XZ      -5.3819     YZ      -1.9577     ZZ    -157.1215

 Total job time:  310.41s(wall), 9367.38s(cpu)
        *  Thank you very much for using Q-Chem.  Have a nice day.  *
