 Q-Chem 5.4, Q-Chem, Inc., Pleasanton, CA (2021)
 Q-Chem 5.4.0 for Intel X86 EM64T Linux

User input:
--------------------------------------------------------------
$molecule
0 1
C	-0.127184	-6.741404	0.223244
C	-0.779949	-6.155638	1.354118
C	0.415271	-5.791452	-0.715408
C	-0.919437	-4.803786	1.595259
H	-1.218801	-6.821518	2.114613
C	0.268806	-4.378638	-0.463133
C	-0.396744	-3.838032	0.688925
C	0.790835	-3.413062	-1.368449
C	-0.542026	-2.426473	0.939189
C	0.652669	-2.059348	-1.130363
C	-0.000000	-1.478216	-0.000000
H	1.091814	-1.394783	-1.891815
C	1.138124	-6.187987	-1.963749
C	1.506241	-3.798164	-2.607351
N	1.629443	-5.170003	-2.817348
C	-1.636646	-4.424987	2.837621
C	-1.264474	-2.036627	2.188982
N	-1.756205	-3.049156	3.042637
O	1.336258	-7.353131	-2.301222
O	1.967056	-2.986854	-3.407386
O	-2.092167	-5.248946	3.628041
O	-1.472160	-0.878829	2.545844
C	2.336642	-5.563799	-4.040164
H	2.360245	-6.664085	-4.078749
H	3.361968	-5.147101	-4.027880
H	1.813424	-5.148785	-4.922811
C	-2.452149	-2.587487	4.247167
H	-2.772531	-3.483329	4.804209
H	-3.322697	-1.964972	3.965991
H	-1.774507	-1.962932	4.859678
C	0.000000	0.000000	0.000000
S	0.335026	0.718942	1.580530
C	1.027130	2.203226	0.904911
C	0.421617	0.904557	-0.985400
C	0.979485	2.101144	-0.493528
H	0.322049	0.690978	-2.059934
H	1.351718	2.899571	-1.152593
H	1.399246	3.001430	1.556025
H	-0.851574	-7.361589	-0.318588
H	0.704181	-7.361192	0.580522
H	-0.935042	-1.478831	-0.540459
$end

$rem
JOBTYPE		SP
EXCHANGE	HF
CORRELATION	pRIMP2
BASIS		cc-pvtz
METHOD		rimp2
AUX_BASIS	rimp2-cc-pvtz
SOLVENT_METHOD	PCM
PURECART	11111
SYMMETRY	false
MEM_TOTAL	110000
SCF_CONVERGENCE = 6
THRESH=10
GUI = 2
$end

$solvent
dielectric 4.90
$end
--------------------------------------------------------------

             Standard Nuclear Orientation (Angstroms)
    I     Atom           X                Y                Z
 ----------------------------------------------------------------
    1      C      -0.1271840000    -6.7414040000     0.2232440000
    2      C      -0.7799490000    -6.1556380000     1.3541180000
    3      C       0.4152710000    -5.7914520000    -0.7154080000
    4      C      -0.9194370000    -4.8037860000     1.5952590000
    5      H      -1.2188010000    -6.8215180000     2.1146130000
    6      C       0.2688060000    -4.3786380000    -0.4631330000
    7      C      -0.3967440000    -3.8380320000     0.6889250000
    8      C       0.7908350000    -3.4130620000    -1.3684490000
    9      C      -0.5420260000    -2.4264730000     0.9391890000
   10      C       0.6526690000    -2.0593480000    -1.1303630000
   11      C       0.0000000000    -1.4782160000     0.0000000000
   12      H       1.0918140000    -1.3947830000    -1.8918150000
   13      C       1.1381240000    -6.1879870000    -1.9637490000
   14      C       1.5062410000    -3.7981640000    -2.6073510000
   15      N       1.6294430000    -5.1700030000    -2.8173480000
   16      C      -1.6366460000    -4.4249870000     2.8376210000
   17      C      -1.2644740000    -2.0366270000     2.1889820000
   18      N      -1.7562050000    -3.0491560000     3.0426370000
   19      O       1.3362580000    -7.3531310000    -2.3012220000
   20      O       1.9670560000    -2.9868540000    -3.4073860000
   21      O      -2.0921670000    -5.2489460000     3.6280410000
   22      O      -1.4721600000    -0.8788290000     2.5458440000
   23      C       2.3366420000    -5.5637990000    -4.0401640000
   24      H       2.3602450000    -6.6640850000    -4.0787490000
   25      H       3.3619680000    -5.1471010000    -4.0278800000
   26      H       1.8134240000    -5.1487850000    -4.9228110000
   27      C      -2.4521490000    -2.5874870000     4.2471670000
   28      H      -2.7725310000    -3.4833290000     4.8042090000
   29      H      -3.3226970000    -1.9649720000     3.9659910000
   30      H      -1.7745070000    -1.9629320000     4.8596780000
   31      C       0.0000000000     0.0000000000     0.0000000000
   32      S       0.3350260000     0.7189420000     1.5805300000
   33      C       1.0271300000     2.2032260000     0.9049110000
   34      C       0.4216170000     0.9045570000    -0.9854000000
   35      C       0.9794850000     2.1011440000    -0.4935280000
   36      H       0.3220490000     0.6909780000    -2.0599340000
   37      H       1.3517180000     2.8995710000    -1.1525930000
   38      H       1.3992460000     3.0014300000     1.5560250000
   39      H      -0.8515740000    -7.3615890000    -0.3185880000
   40      H       0.7041810000    -7.3611920000     0.5805220000
   41      H      -0.9350420000    -1.4788310000    -0.5404590000
 ----------------------------------------------------------------

   11   -1571.7233720264      5.85e-07  Convergence criterion met
 Total energy in the final basis set =    -1571.7233720264
        RIMP2         total energy =     -1576.3870212134 a.u.

                    Orbital Energies (a.u.)
 --------------------------------------------------------------

 Alpha MOs
 -- Occupied --
-91.9794 -20.5539 -20.5452 -20.5415 -20.5407 -15.6282 -15.6215 -11.3960
-11.3859 -11.3834 -11.3793 -11.3103 -11.3090 -11.3070 -11.3050 -11.2976
-11.2933 -11.2899 -11.2737 -11.2689 -11.2688 -11.2647 -11.2635 -11.2596
-11.2544 -11.2530 -11.2457  -8.9792  -6.6598  -6.6591  -6.6585  -1.4233
 -1.4123  -1.3995  -1.3914  -1.2639  -1.2557  -1.2307  -1.1864  -1.1500
 -1.1147  -1.0863  -1.0477  -0.9948  -0.9884  -0.9806  -0.9555  -0.9495
 -0.8969  -0.8892  -0.8778  -0.8608  -0.7925  -0.7785  -0.7727  -0.7616
 -0.7345  -0.7179  -0.7026  -0.6917  -0.6830  -0.6749  -0.6676  -0.6578
 -0.6483  -0.6458  -0.6370  -0.6327  -0.6312  -0.6298  -0.6213  -0.6057
 -0.5869  -0.5743  -0.5649  -0.5627  -0.5593  -0.5524  -0.5515  -0.5484
 -0.5479  -0.5445  -0.5226  -0.5114  -0.5097  -0.4837  -0.4746  -0.4608
 -0.4555  -0.4450  -0.4389  -0.4331  -0.4123  -0.4077  -0.3546  -0.3453
 -0.3297  -0.2793

          Ground-State Mulliken Net Atomic Charges

     Atom                 Charge (a.u.)
  ----------------------------------------
      1 C                    -0.084509
      2 C                    -0.030038
      3 C                    -0.108902
      4 C                    -0.124839
      5 H                     0.199401
      6 C                     0.025488
      7 C                     0.124418
      8 C                    -0.093156
      9 C                    -0.170149
     10 C                    -0.157698
     11 C                     0.205979
     12 H                     0.191978
     13 C                     0.340930
     14 C                     0.349266
     15 N                    -0.089881
     16 C                     0.357089
     17 C                     0.366425
     18 N                    -0.090641
     19 O                    -0.495097
     20 O                    -0.508954
     21 O                    -0.500747
     22 O                    -0.475334
     23 C                    -0.205010
     24 H                     0.139602
     25 H                     0.109365
     26 H                     0.108912
     27 C                    -0.197658
     28 H                     0.133925
     29 H                     0.111792
     30 H                     0.112449
     31 C                    -0.007514
     32 S                     0.066606
     33 C                    -0.235646
     34 C                    -0.240450
     35 C                    -0.195224
     36 H                     0.182844
     37 H                     0.188825
     38 H                     0.207189
     39 H                     0.137622
     40 H                     0.138134
     41 H                     0.213208
  ----------------------------------------
  Sum of atomic charges =     0.000000

                    Cartesian Multipole Moments
 -----------------------------------------------------------------
    Charge (ESU x 10^10)
                 0.0000
    Dipole Moment (Debye)
         X      -0.8192      Y       1.5517      Z      -0.1140
       Tot       1.7584
    Quadrupole Moments (Debye-Ang)
        XX    -168.9251     XY       9.7216     YY    -180.1985
        XZ      14.1446     YZ      -6.9710     ZZ    -180.4539

 Total job time:  292.14s(wall), 8923.90s(cpu)
        *  Thank you very much for using Q-Chem.  Have a nice day.  *
