 Q-Chem 5.4, Q-Chem, Inc., Pleasanton, CA (2021)
 Q-Chem 5.4.0 for Intel X86 EM64T Linux

User input:
--------------------------------------------------------------
$molecule
0 1
C	-0.241938	-6.741404	-0.086486
C	-1.468983	-6.155638	-0.532960
C	0.776651	-5.791452	0.284733
C	-1.730681	-4.803786	-0.628455
H	-2.294130	-6.821518	-0.833086
C	0.502775	-4.378638	0.184300
C	-0.747353	-3.838032	-0.271086
C	1.484986	-3.413062	0.541191
C	-1.019042	-2.426473	-0.370703
C	1.226525	-2.059348	0.446468
C	0.000000	-1.478216	0.000000
H	2.052666	-1.394783	0.746717
C	2.131549	-6.187987	0.779832
C	2.829295	-3.798164	1.030596
N	3.057496	-5.170003	1.115461
C	-3.078712	-4.424987	-1.119034
C	-2.375300	-2.036627	-0.865151
N	-3.301374	-3.049156	-1.201176
O	2.498300	-7.353131	0.916355
O	3.697195	-2.986854	1.345486
O	-3.936224	-5.248946	-1.430379
O	-2.762805	-0.878829	-1.007714
C	4.384539	-5.563799	1.599576
H	4.426636	-6.664085	1.616121
H	4.550487	-5.147101	2.611458
H	5.162921	-5.148785	0.931037
C	-4.608454	-2.587487	-1.677382
H	-5.212668	-3.483329	-1.896168
H	-4.482719	-1.964972	-2.583531
H	-5.093988	-1.962932	-0.903674
C	0.000000	0.000000	0.000000
S	0.205093	0.766196	1.580530
C	0.628939	2.348114	0.904911
C	0.258137	0.964028	-0.985400
C	0.599745	2.239309	-0.493528
H	0.197169	0.736404	-2.059934
H	0.827678	3.090243	-1.152593
H	0.856796	3.198808	1.556025
H	0.165874	-7.361589	-0.893959
H	-0.449423	-7.361192	0.794290
H	0.369880	-1.478831	-1.014686
$end

$rem
JOBTYPE		SP
EXCHANGE	HF
CORRELATION	pRIMP2
BASIS		cc-pvtz
METHOD		rimp2
AUX_BASIS	rimp2-cc-pvtz
SOLVENT_METHOD	PCM
PURECART	11111
SYMMETRY	false
MEM_TOTAL	110000
SCF_CONVERGENCE = 6
THRESH=10
GUI = 2
$end

$solvent
dielectric 4.90
$end
--------------------------------------------------------------

             Standard Nuclear Orientation (Angstroms)
    I     Atom           X                Y                Z
 ----------------------------------------------------------------
    1      C      -0.2419380000    -6.7414040000    -0.0864860000
    2      C      -1.4689830000    -6.1556380000    -0.5329600000
    3      C       0.7766510000    -5.7914520000     0.2847330000
    4      C      -1.7306810000    -4.8037860000    -0.6284550000
    5      H      -2.2941300000    -6.8215180000    -0.8330860000
    6      C       0.5027750000    -4.3786380000     0.1843000000
    7      C      -0.7473530000    -3.8380320000    -0.2710860000
    8      C       1.4849860000    -3.4130620000     0.5411910000
    9      C      -1.0190420000    -2.4264730000    -0.3707030000
   10      C       1.2265250000    -2.0593480000     0.4464680000
   11      C       0.0000000000    -1.4782160000     0.0000000000
   12      H       2.0526660000    -1.3947830000     0.7467170000
   13      C       2.1315490000    -6.1879870000     0.7798320000
   14      C       2.8292950000    -3.7981640000     1.0305960000
   15      N       3.0574960000    -5.1700030000     1.1154610000
   16      C      -3.0787120000    -4.4249870000    -1.1190340000
   17      C      -2.3753000000    -2.0366270000    -0.8651510000
   18      N      -3.3013740000    -3.0491560000    -1.2011760000
   19      O       2.4983000000    -7.3531310000     0.9163550000
   20      O       3.6971950000    -2.9868540000     1.3454860000
   21      O      -3.9362240000    -5.2489460000    -1.4303790000
   22      O      -2.7628050000    -0.8788290000    -1.0077140000
   23      C       4.3845390000    -5.5637990000     1.5995760000
   24      H       4.4266360000    -6.6640850000     1.6161210000
   25      H       4.5504870000    -5.1471010000     2.6114580000
   26      H       5.1629210000    -5.1487850000     0.9310370000
   27      C      -4.6084540000    -2.5874870000    -1.6773820000
   28      H      -5.2126680000    -3.4833290000    -1.8961680000
   29      H      -4.4827190000    -1.9649720000    -2.5835310000
   30      H      -5.0939880000    -1.9629320000    -0.9036740000
   31      C       0.0000000000     0.0000000000     0.0000000000
   32      S       0.2050930000     0.7661960000     1.5805300000
   33      C       0.6289390000     2.3481140000     0.9049110000
   34      C       0.2581370000     0.9640280000    -0.9854000000
   35      C       0.5997450000     2.2393090000    -0.4935280000
   36      H       0.1971690000     0.7364040000    -2.0599340000
   37      H       0.8276780000     3.0902430000    -1.1525930000
   38      H       0.8567960000     3.1988080000     1.5560250000
   39      H       0.1658740000    -7.3615890000    -0.8939590000
   40      H      -0.4494230000    -7.3611920000     0.7942900000
   41      H       0.3698800000    -1.4788310000    -1.0146860000
 ----------------------------------------------------------------

   11   -1571.7464946021      5.51e-07  Convergence criterion met
 Total energy in the final basis set =    -1571.7464946021
        RIMP2         total energy =     -1576.4013908582 a.u.

                    Orbital Energies (a.u.)
 --------------------------------------------------------------

 Alpha MOs
 -- Occupied --
-91.9893 -20.5525 -20.5444 -20.5419 -20.5408 -15.6269 -15.6214 -11.3935
-11.3851 -11.3837 -11.3795 -11.3093 -11.3077 -11.3048 -11.3047 -11.2978
-11.2961 -11.2897 -11.2817 -11.2693 -11.2679 -11.2655 -11.2628 -11.2595
-11.2564 -11.2527 -11.2513  -8.9890  -6.6698  -6.6693  -6.6688  -1.4195
 -1.4124  -1.3972  -1.3916  -1.2621  -1.2556  -1.2300  -1.1871  -1.1527
 -1.1142  -1.0864  -1.0467  -0.9957  -0.9878  -0.9855  -0.9552  -0.9509
 -0.8967  -0.8878  -0.8766  -0.8597  -0.7955  -0.7775  -0.7707  -0.7618
 -0.7424  -0.7172  -0.7042  -0.6918  -0.6813  -0.6718  -0.6666  -0.6573
 -0.6470  -0.6438  -0.6362  -0.6330  -0.6309  -0.6277  -0.6221  -0.6045
 -0.5851  -0.5756  -0.5667  -0.5613  -0.5567  -0.5513  -0.5506  -0.5483
 -0.5477  -0.5436  -0.5191  -0.5165  -0.5090  -0.4835  -0.4755  -0.4636
 -0.4585  -0.4513  -0.4430  -0.4347  -0.4134  -0.4075  -0.3574  -0.3500
 -0.3287  -0.2886

          Ground-State Mulliken Net Atomic Charges

     Atom                 Charge (a.u.)
  ----------------------------------------
      1 C                    -0.084374
      2 C                    -0.031618
      3 C                    -0.111354
      4 C                    -0.122665
      5 H                     0.198646
      6 C                     0.017459
      7 C                     0.117553
      8 C                    -0.087674
      9 C                    -0.177753
     10 C                    -0.112797
     11 C                     0.168237
     12 H                     0.201422
     13 C                     0.343422
     14 C                     0.346000
     15 N                    -0.090278
     16 C                     0.357695
     17 C                     0.343990
     18 N                    -0.092307
     19 O                    -0.493993
     20 O                    -0.506428
     21 O                    -0.501580
     22 O                    -0.471782
     23 C                    -0.204714
     24 H                     0.139447
     25 H                     0.109383
     26 H                     0.109048
     27 C                    -0.196972
     28 H                     0.133175
     29 H                     0.110915
     30 H                     0.112246
     31 C                     0.012725
     32 S                     0.012389
     33 C                    -0.213630
     34 C                    -0.196642
     35 C                    -0.201409
     36 H                     0.183567
     37 H                     0.192384
     38 H                     0.210502
     39 H                     0.137421
     40 H                     0.137642
     41 H                     0.202703
  ----------------------------------------
  Sum of atomic charges =     0.000000

                    Cartesian Multipole Moments
 -----------------------------------------------------------------
    Charge (ESU x 10^10)
                 0.0000
    Dipole Moment (Debye)
         X       0.0116      Y       2.1571      Z      -2.0925
       Tot       3.0053
    Quadrupole Moments (Debye-Ang)
        XX    -191.3463     XY      10.3513     YY    -178.3154
        XZ     -10.5524     YZ       4.7550     ZZ    -160.1360

 Total job time:  302.93s(wall), 8951.25s(cpu)
        *  Thank you very much for using Q-Chem.  Have a nice day.  *
