 Q-Chem 5.4, Q-Chem, Inc., Pleasanton, CA (2021)
 Q-Chem 5.4.0 for Intel X86 EM64T Linux

User input:
--------------------------------------------------------------
$molecule
0 1
C	-0.241938	-6.741404	-0.086486
C	-1.468983	-6.155638	-0.532960
C	0.776651	-5.791452	0.284733
C	-1.730681	-4.803786	-0.628455
H	-2.294130	-6.821518	-0.833086
C	0.502775	-4.378638	0.184300
C	-0.747353	-3.838032	-0.271086
C	1.484986	-3.413062	0.541191
C	-1.019042	-2.426473	-0.370703
C	1.226525	-2.059348	0.446468
C	-0.000000	-1.478216	-0.000000
H	2.052666	-1.394783	0.746717
C	2.131549	-6.187987	0.779832
C	2.829295	-3.798164	1.030596
N	3.057496	-5.170003	1.115461
C	-3.078712	-4.424987	-1.119034
C	-2.375300	-2.036627	-0.865151
N	-3.301374	-3.049156	-1.201176
O	2.498300	-7.353131	0.916355
O	3.697195	-2.986854	1.345486
O	-3.936224	-5.248946	-1.430379
O	-2.762805	-0.878829	-1.007714
C	4.384539	-5.563799	1.599576
H	4.426636	-6.664085	1.616121
H	4.550487	-5.147101	2.611458
H	5.162921	-5.148785	0.931037
C	-4.608454	-2.587487	-1.677382
H	-5.212668	-3.483329	-1.896168
H	-4.482719	-1.964972	-2.583531
H	-5.093988	-1.962932	-0.903674
C	0.000000	0.000000	0.000000
S	0.607475	0.509994	1.580530
C	1.862020	1.562717	0.904911
C	0.764397	0.641624	-0.985400
C	1.775697	1.490335	-0.493528
H	0.583895	0.490135	-2.059934
H	2.450484	2.056643	-1.152593
H	2.536607	2.128872	1.556025
H	0.165874	-7.361589	-0.893959
H	-0.449423	-7.361192	0.794290
H	0.369880	-1.478831	-1.014686
$end

$rem
JOBTYPE		SP
EXCHANGE	HF
CORRELATION	pRIMP2
BASIS		cc-pvtz
METHOD		rimp2
AUX_BASIS	rimp2-cc-pvtz
SOLVENT_METHOD	PCM
PURECART	11111
SYMMETRY	false
MEM_TOTAL	110000
SCF_CONVERGENCE = 6
THRESH=10
GUI = 2
$end

$solvent
dielectric 4.90
$end
--------------------------------------------------------------

             Standard Nuclear Orientation (Angstroms)
    I     Atom           X                Y                Z
 ----------------------------------------------------------------
    1      C      -0.2419380000    -6.7414040000    -0.0864860000
    2      C      -1.4689830000    -6.1556380000    -0.5329600000
    3      C       0.7766510000    -5.7914520000     0.2847330000
    4      C      -1.7306810000    -4.8037860000    -0.6284550000
    5      H      -2.2941300000    -6.8215180000    -0.8330860000
    6      C       0.5027750000    -4.3786380000     0.1843000000
    7      C      -0.7473530000    -3.8380320000    -0.2710860000
    8      C       1.4849860000    -3.4130620000     0.5411910000
    9      C      -1.0190420000    -2.4264730000    -0.3707030000
   10      C       1.2265250000    -2.0593480000     0.4464680000
   11      C       0.0000000000    -1.4782160000     0.0000000000
   12      H       2.0526660000    -1.3947830000     0.7467170000
   13      C       2.1315490000    -6.1879870000     0.7798320000
   14      C       2.8292950000    -3.7981640000     1.0305960000
   15      N       3.0574960000    -5.1700030000     1.1154610000
   16      C      -3.0787120000    -4.4249870000    -1.1190340000
   17      C      -2.3753000000    -2.0366270000    -0.8651510000
   18      N      -3.3013740000    -3.0491560000    -1.2011760000
   19      O       2.4983000000    -7.3531310000     0.9163550000
   20      O       3.6971950000    -2.9868540000     1.3454860000
   21      O      -3.9362240000    -5.2489460000    -1.4303790000
   22      O      -2.7628050000    -0.8788290000    -1.0077140000
   23      C       4.3845390000    -5.5637990000     1.5995760000
   24      H       4.4266360000    -6.6640850000     1.6161210000
   25      H       4.5504870000    -5.1471010000     2.6114580000
   26      H       5.1629210000    -5.1487850000     0.9310370000
   27      C      -4.6084540000    -2.5874870000    -1.6773820000
   28      H      -5.2126680000    -3.4833290000    -1.8961680000
   29      H      -4.4827190000    -1.9649720000    -2.5835310000
   30      H      -5.0939880000    -1.9629320000    -0.9036740000
   31      C       0.0000000000     0.0000000000     0.0000000000
   32      S       0.6074750000     0.5099940000     1.5805300000
   33      C       1.8620200000     1.5627170000     0.9049110000
   34      C       0.7643970000     0.6416240000    -0.9854000000
   35      C       1.7756970000     1.4903350000    -0.4935280000
   36      H       0.5838950000     0.4901350000    -2.0599340000
   37      H       2.4504840000     2.0566430000    -1.1525930000
   38      H       2.5366070000     2.1288720000     1.5560250000
   39      H       0.1658740000    -7.3615890000    -0.8939590000
   40      H      -0.4494230000    -7.3611920000     0.7942900000
   41      H       0.3698800000    -1.4788310000    -1.0146860000
 ----------------------------------------------------------------

   11   -1571.7008354865      5.69e-07  Convergence criterion met
 Total energy in the final basis set =    -1571.7008354865
        RIMP2         total energy =     -1576.3677131949 a.u.

                    Orbital Energies (a.u.)
 --------------------------------------------------------------

 Alpha MOs
 -- Occupied --
-91.9908 -20.5520 -20.5432 -20.5399 -20.5395 -15.6259 -15.6199 -11.3922
-11.3837 -11.3816 -11.3779 -11.3056 -11.3030 -11.3021 -11.3009 -11.2975
-11.2930 -11.2845 -11.2837 -11.2684 -11.2656 -11.2655 -11.2624 -11.2622
-11.2588 -11.2565 -11.2504  -8.9911  -6.6719  -6.6712  -6.6709  -1.4185
 -1.4109  -1.3961  -1.3900  -1.2609  -1.2541  -1.2315  -1.1926  -1.1519
 -1.1117  -1.0836  -1.0443  -0.9995  -0.9937  -0.9863  -0.9542  -0.9483
 -0.8951  -0.8852  -0.8741  -0.8566  -0.7959  -0.7782  -0.7689  -0.7653
 -0.7420  -0.7174  -0.7035  -0.6908  -0.6833  -0.6702  -0.6652  -0.6561
 -0.6454  -0.6433  -0.6343  -0.6333  -0.6291  -0.6257  -0.6203  -0.6038
 -0.5842  -0.5790  -0.5708  -0.5604  -0.5552  -0.5505  -0.5503  -0.5482
 -0.5466  -0.5424  -0.5217  -0.5079  -0.4984  -0.4846  -0.4747  -0.4654
 -0.4573  -0.4500  -0.4414  -0.4327  -0.4125  -0.4062  -0.3636  -0.3441
 -0.3333  -0.2843

          Ground-State Mulliken Net Atomic Charges

     Atom                 Charge (a.u.)
  ----------------------------------------
      1 C                    -0.086249
      2 C                    -0.036609
      3 C                    -0.112792
      4 C                    -0.119201
      5 H                     0.197184
      6 C                     0.014638
      7 C                     0.117077
      8 C                    -0.103254
      9 C                    -0.184133
     10 C                    -0.137988
     11 C                     0.176246
     12 H                     0.196770
     13 C                     0.342217
     14 C                     0.341552
     15 N                    -0.089389
     16 C                     0.356301
     17 C                     0.357017
     18 N                    -0.091156
     19 O                    -0.496906
     20 O                    -0.509842
     21 O                    -0.502437
     22 O                    -0.469906
     23 C                    -0.205508
     24 H                     0.139346
     25 H                     0.108833
     26 H                     0.108456
     27 C                    -0.197971
     28 H                     0.132999
     29 H                     0.110577
     30 H                     0.111916
     31 C                    -0.034736
     32 S                     0.018336
     33 C                    -0.169653
     34 C                    -0.136078
     35 C                    -0.215221
     36 H                     0.188197
     37 H                     0.194352
     38 H                     0.214013
     39 H                     0.135412
     40 H                     0.135723
     41 H                     0.201867
  ----------------------------------------
  Sum of atomic charges =     0.000000

                    Cartesian Multipole Moments
 -----------------------------------------------------------------
    Charge (ESU x 10^10)
                 0.0000
    Dipole Moment (Debye)
         X       1.5261      Y       2.8833      Z      -2.0331
       Tot       3.8439
    Quadrupole Moments (Debye-Ang)
        XX    -185.6720     XY      14.1558     YY    -188.6387
        XZ     -10.2370     YZ       4.6826     ZZ    -159.5334

 Total job time:  313.06s(wall), 9194.71s(cpu)
        *  Thank you very much for using Q-Chem.  Have a nice day.  *
