 Q-Chem 5.4, Q-Chem, Inc., Pleasanton, CA (2021)
 Q-Chem 5.4.0 for Intel X86 EM64T Linux

User input:
--------------------------------------------------------------
$molecule
0 1
C	-0.086486	-6.741404	0.241938
C	-0.532960	-6.155638	1.468983
C	0.284733	-5.791452	-0.776651
C	-0.628455	-4.803786	1.730681
H	-0.833086	-6.821518	2.294130
C	0.184300	-4.378638	-0.502775
C	-0.271086	-3.838032	0.747353
C	0.541191	-3.413062	-1.484986
C	-0.370703	-2.426473	1.019042
C	0.446468	-2.059348	-1.226525
C	-0.000000	-1.478216	-0.000000
H	0.746717	-1.394783	-2.052666
C	0.779832	-6.187987	-2.131549
C	1.030596	-3.798164	-2.829295
N	1.115461	-5.170003	-3.057496
C	-1.119034	-4.424987	3.078712
C	-0.865151	-2.036627	2.375300
N	-1.201176	-3.049156	3.301374
O	0.916355	-7.353131	-2.498300
O	1.345486	-2.986854	-3.697195
O	-1.430379	-5.248946	3.936224
O	-1.007714	-0.878829	2.762805
C	1.599576	-5.563799	-4.384539
H	1.616121	-6.664085	-4.426636
H	2.611458	-5.147101	-4.550487
H	0.931037	-5.148785	-5.162921
C	-1.677382	-2.587487	4.608454
H	-1.896168	-3.483329	5.212668
H	-2.583531	-1.964972	4.482719
H	-0.903674	-1.962932	5.093988
C	0.000000	0.000000	0.000000
S	0.335026	0.718942	1.580530
C	1.027130	2.203226	0.904911
C	0.421617	0.904557	-0.985400
C	0.979485	2.101144	-0.493528
H	0.322049	0.690978	-2.059934
H	1.351718	2.899571	-1.152593
H	1.399246	3.001430	1.556025
H	-0.893959	-7.361589	-0.165874
H	0.794290	-7.361192	0.449423
H	-1.014686	-1.478831	-0.369880
$end

$rem
JOBTYPE		SP
EXCHANGE	HF
CORRELATION	pRIMP2
BASIS		cc-pvtz
METHOD		rimp2
AUX_BASIS	rimp2-cc-pvtz
SOLVENT_METHOD	PCM
PURECART	11111
SYMMETRY	false
MEM_TOTAL	110000
SCF_CONVERGENCE = 6
THRESH=10
GUI = 2
$end

$solvent
dielectric 4.90
$end
--------------------------------------------------------------

             Standard Nuclear Orientation (Angstroms)
    I     Atom           X                Y                Z
 ----------------------------------------------------------------
    1      C      -0.0864860000    -6.7414040000     0.2419380000
    2      C      -0.5329600000    -6.1556380000     1.4689830000
    3      C       0.2847330000    -5.7914520000    -0.7766510000
    4      C      -0.6284550000    -4.8037860000     1.7306810000
    5      H      -0.8330860000    -6.8215180000     2.2941300000
    6      C       0.1843000000    -4.3786380000    -0.5027750000
    7      C      -0.2710860000    -3.8380320000     0.7473530000
    8      C       0.5411910000    -3.4130620000    -1.4849860000
    9      C      -0.3707030000    -2.4264730000     1.0190420000
   10      C       0.4464680000    -2.0593480000    -1.2265250000
   11      C       0.0000000000    -1.4782160000     0.0000000000
   12      H       0.7467170000    -1.3947830000    -2.0526660000
   13      C       0.7798320000    -6.1879870000    -2.1315490000
   14      C       1.0305960000    -3.7981640000    -2.8292950000
   15      N       1.1154610000    -5.1700030000    -3.0574960000
   16      C      -1.1190340000    -4.4249870000     3.0787120000
   17      C      -0.8651510000    -2.0366270000     2.3753000000
   18      N      -1.2011760000    -3.0491560000     3.3013740000
   19      O       0.9163550000    -7.3531310000    -2.4983000000
   20      O       1.3454860000    -2.9868540000    -3.6971950000
   21      O      -1.4303790000    -5.2489460000     3.9362240000
   22      O      -1.0077140000    -0.8788290000     2.7628050000
   23      C       1.5995760000    -5.5637990000    -4.3845390000
   24      H       1.6161210000    -6.6640850000    -4.4266360000
   25      H       2.6114580000    -5.1471010000    -4.5504870000
   26      H       0.9310370000    -5.1487850000    -5.1629210000
   27      C      -1.6773820000    -2.5874870000     4.6084540000
   28      H      -1.8961680000    -3.4833290000     5.2126680000
   29      H      -2.5835310000    -1.9649720000     4.4827190000
   30      H      -0.9036740000    -1.9629320000     5.0939880000
   31      C       0.0000000000     0.0000000000     0.0000000000
   32      S       0.3350260000     0.7189420000     1.5805300000
   33      C       1.0271300000     2.2032260000     0.9049110000
   34      C       0.4216170000     0.9045570000    -0.9854000000
   35      C       0.9794850000     2.1011440000    -0.4935280000
   36      H       0.3220490000     0.6909780000    -2.0599340000
   37      H       1.3517180000     2.8995710000    -1.1525930000
   38      H       1.3992460000     3.0014300000     1.5560250000
   39      H      -0.8939590000    -7.3615890000    -0.1658740000
   40      H       0.7942900000    -7.3611920000     0.4494230000
   41      H      -1.0146860000    -1.4788310000    -0.3698800000
 ----------------------------------------------------------------

   11   -1571.7111555993      5.92e-07  Convergence criterion met
 Total energy in the final basis set =    -1571.7111555993
        RIMP2         total energy =     -1576.3779224007 a.u.

                    Orbital Energies (a.u.)
 --------------------------------------------------------------

 Alpha MOs
 -- Occupied --
-91.9754 -20.5554 -20.5458 -20.5417 -20.5410 -15.6294 -15.6217 -11.3979
-11.3866 -11.3836 -11.3795 -11.3110 -11.3091 -11.3079 -11.3053 -11.2981
-11.2921 -11.2898 -11.2693 -11.2692 -11.2677 -11.2653 -11.2641 -11.2597
-11.2534 -11.2524 -11.2429  -8.9752  -6.6558  -6.6548  -6.6542  -1.4265
 -1.4125  -1.4011  -1.3916  -1.2654  -1.2559  -1.2310  -1.1860  -1.1486
 -1.1151  -1.0862  -1.0483  -0.9945  -0.9888  -0.9788  -0.9559  -0.9489
 -0.8974  -0.8901  -0.8786  -0.8616  -0.7920  -0.7799  -0.7738  -0.7604
 -0.7326  -0.7203  -0.7021  -0.6911  -0.6852  -0.6758  -0.6682  -0.6583
 -0.6496  -0.6459  -0.6372  -0.6328  -0.6316  -0.6314  -0.6218  -0.6060
 -0.5884  -0.5736  -0.5653  -0.5620  -0.5596  -0.5535  -0.5521  -0.5490
 -0.5481  -0.5450  -0.5226  -0.5115  -0.5103  -0.4861  -0.4750  -0.4622
 -0.4554  -0.4444  -0.4371  -0.4249  -0.4085  -0.4068  -0.3548  -0.3435
 -0.3291  -0.2775

          Ground-State Mulliken Net Atomic Charges

     Atom                 Charge (a.u.)
  ----------------------------------------
      1 C                    -0.084318
      2 C                    -0.029795
      3 C                    -0.107708
      4 C                    -0.123814
      5 H                     0.199553
      6 C                     0.025435
      7 C                     0.124382
      8 C                    -0.092969
      9 C                    -0.173577
     10 C                    -0.152864
     11 C                     0.198657
     12 H                     0.189671
     13 C                     0.340765
     14 C                     0.349413
     15 N                    -0.090130
     16 C                     0.357502
     17 C                     0.374911
     18 N                    -0.090071
     19 O                    -0.494915
     20 O                    -0.508939
     21 O                    -0.500212
     22 O                    -0.471967
     23 C                    -0.204991
     24 H                     0.139605
     25 H                     0.109388
     26 H                     0.109084
     27 C                    -0.197909
     28 H                     0.134375
     29 H                     0.112014
     30 H                     0.112879
     31 C                    -0.000498
     32 S                     0.078416
     33 C                    -0.248900
     34 C                    -0.243125
     35 C                    -0.200433
     36 H                     0.179806
     37 H                     0.186419
     38 H                     0.205129
     39 H                     0.137823
     40 H                     0.138357
     41 H                     0.213553
  ----------------------------------------
  Sum of atomic charges =     0.000000

                    Cartesian Multipole Moments
 -----------------------------------------------------------------
    Charge (ESU x 10^10)
                 0.0000
    Dipole Moment (Debye)
         X      -0.8519      Y       1.1580      Z       0.3850
       Tot       1.4883
    Quadrupole Moments (Debye-Ang)
        XX    -164.6481     XY       8.1521     YY    -180.1653
        XZ      10.2523     YZ      -8.2381     ZZ    -184.0267

 Total job time:  301.50s(wall), 9234.94s(cpu)
        *  Thank you very much for using Q-Chem.  Have a nice day.  *
