 Q-Chem 5.4, Q-Chem, Inc., Pleasanton, CA (2021)
 Q-Chem 5.4.0 for Intel X86 EM64T Linux

User input:
--------------------------------------------------------------
$molecule
0 1
C	0.223244	-6.741404	0.127184
C	1.354118	-6.155638	0.779949
C	-0.715408	-5.791452	-0.415271
C	1.595259	-4.803786	0.919437
H	2.114613	-6.821518	1.218801
C	-0.463133	-4.378638	-0.268806
C	0.688925	-3.838032	0.396744
C	-1.368449	-3.413062	-0.790835
C	0.939189	-2.426473	0.542026
C	-1.130363	-2.059348	-0.652669
C	0.000000	-1.478216	0.000000
H	-1.891815	-1.394783	-1.091814
C	-1.963749	-6.187987	-1.138124
C	-2.607351	-3.798164	-1.506241
N	-2.817348	-5.170003	-1.629443
C	2.837621	-4.424987	1.636646
C	2.188982	-2.036627	1.264474
N	3.042637	-3.049156	1.756205
O	-2.301222	-7.353131	-1.336258
O	-3.407386	-2.986854	-1.967056
O	3.628041	-5.248946	2.092167
O	2.545844	-0.878829	1.472160
C	-4.040164	-5.563799	-2.336642
H	-4.078749	-6.664085	-2.360245
H	-4.027880	-5.147101	-3.361968
H	-4.922811	-5.148785	-1.813424
C	4.247167	-2.587487	2.452149
H	4.804209	-3.483329	2.772531
H	3.965991	-1.964972	3.322697
H	4.859678	-1.962932	1.774507
C	0.000000	0.000000	0.000000
S	0.396411	0.687007	1.580530
C	1.215245	2.105322	0.904911
C	0.498850	0.864369	-0.985400
C	1.158885	2.007781	-0.493528
H	0.381046	0.660280	-2.059934
H	1.599289	2.770727	-1.152593
H	1.655514	2.868056	1.556025
H	-0.318588	-7.361589	0.851574
H	0.580522	-7.361192	-0.704181
H	-0.540459	-1.478831	0.935042
$end

$rem
JOBTYPE		SP
EXCHANGE	HF
CORRELATION	pRIMP2
BASIS		cc-pvtz
METHOD		rimp2
AUX_BASIS	rimp2-cc-pvtz
SOLVENT_METHOD	PCM
PURECART	11111
SYMMETRY	false
MEM_TOTAL	110000
SCF_CONVERGENCE = 6
THRESH=10
GUI = 2
$end

$solvent
dielectric 4.90
$end
--------------------------------------------------------------

             Standard Nuclear Orientation (Angstroms)
    I     Atom           X                Y                Z
 ----------------------------------------------------------------
    1      C       0.2232440000    -6.7414040000     0.1271840000
    2      C       1.3541180000    -6.1556380000     0.7799490000
    3      C      -0.7154080000    -5.7914520000    -0.4152710000
    4      C       1.5952590000    -4.8037860000     0.9194370000
    5      H       2.1146130000    -6.8215180000     1.2188010000
    6      C      -0.4631330000    -4.3786380000    -0.2688060000
    7      C       0.6889250000    -3.8380320000     0.3967440000
    8      C      -1.3684490000    -3.4130620000    -0.7908350000
    9      C       0.9391890000    -2.4264730000     0.5420260000
   10      C      -1.1303630000    -2.0593480000    -0.6526690000
   11      C       0.0000000000    -1.4782160000     0.0000000000
   12      H      -1.8918150000    -1.3947830000    -1.0918140000
   13      C      -1.9637490000    -6.1879870000    -1.1381240000
   14      C      -2.6073510000    -3.7981640000    -1.5062410000
   15      N      -2.8173480000    -5.1700030000    -1.6294430000
   16      C       2.8376210000    -4.4249870000     1.6366460000
   17      C       2.1889820000    -2.0366270000     1.2644740000
   18      N       3.0426370000    -3.0491560000     1.7562050000
   19      O      -2.3012220000    -7.3531310000    -1.3362580000
   20      O      -3.4073860000    -2.9868540000    -1.9670560000
   21      O       3.6280410000    -5.2489460000     2.0921670000
   22      O       2.5458440000    -0.8788290000     1.4721600000
   23      C      -4.0401640000    -5.5637990000    -2.3366420000
   24      H      -4.0787490000    -6.6640850000    -2.3602450000
   25      H      -4.0278800000    -5.1471010000    -3.3619680000
   26      H      -4.9228110000    -5.1487850000    -1.8134240000
   27      C       4.2471670000    -2.5874870000     2.4521490000
   28      H       4.8042090000    -3.4833290000     2.7725310000
   29      H       3.9659910000    -1.9649720000     3.3226970000
   30      H       4.8596780000    -1.9629320000     1.7745070000
   31      C       0.0000000000     0.0000000000     0.0000000000
   32      S       0.3964110000     0.6870070000     1.5805300000
   33      C       1.2152450000     2.1053220000     0.9049110000
   34      C       0.4988500000     0.8643690000    -0.9854000000
   35      C       1.1588850000     2.0077810000    -0.4935280000
   36      H       0.3810460000     0.6602800000    -2.0599340000
   37      H       1.5992890000     2.7707270000    -1.1525930000
   38      H       1.6555140000     2.8680560000     1.5560250000
   39      H      -0.3185880000    -7.3615890000     0.8515740000
   40      H       0.5805220000    -7.3611920000    -0.7041810000
   41      H      -0.5404590000    -1.4788310000     0.9350420000
 ----------------------------------------------------------------

   11   -1571.7148135751      5.79e-07  Convergence criterion met
 Total energy in the final basis set =    -1571.7148135751
        RIMP2         total energy =     -1576.3797297087 a.u.

                    Orbital Energies (a.u.)
 --------------------------------------------------------------

 Alpha MOs
 -- Occupied --
-91.9828 -20.5480 -20.5438 -20.5407 -20.5395 -15.6259 -15.6204 -11.3913
-11.3844 -11.3826 -11.3779 -11.3075 -11.3059 -11.3042 -11.3038 -11.2957
-11.2857 -11.2855 -11.2811 -11.2674 -11.2674 -11.2626 -11.2622 -11.2589
-11.2559 -11.2519 -11.2471  -8.9830  -6.6636  -6.6631  -6.6628  -1.4189
 -1.4113  -1.3967  -1.3904  -1.2613  -1.2545  -1.2282  -1.1850  -1.1504
 -1.1127  -1.0847  -1.0455  -0.9938  -0.9872  -0.9821  -0.9542  -0.9500
 -0.8945  -0.8855  -0.8762  -0.8594  -0.7896  -0.7749  -0.7736  -0.7668
 -0.7338  -0.7173  -0.7028  -0.6901  -0.6771  -0.6685  -0.6669  -0.6564
 -0.6464  -0.6394  -0.6377  -0.6312  -0.6302  -0.6262  -0.6235  -0.6035
 -0.5840  -0.5720  -0.5675  -0.5612  -0.5569  -0.5509  -0.5499  -0.5481
 -0.5472  -0.5429  -0.5166  -0.5112  -0.5065  -0.4809  -0.4712  -0.4625
 -0.4535  -0.4476  -0.4418  -0.4335  -0.4129  -0.4067  -0.3517  -0.3375
 -0.3284  -0.2867

          Ground-State Mulliken Net Atomic Charges

     Atom                 Charge (a.u.)
  ----------------------------------------
      1 C                    -0.084146
      2 C                    -0.031490
      3 C                    -0.114372
      4 C                    -0.119502
      5 H                     0.198339
      6 C                     0.009234
      7 C                     0.118821
      8 C                    -0.080791
      9 C                    -0.194451
     10 C                    -0.155582
     11 C                     0.227486
     12 H                     0.191883
     13 C                     0.342693
     14 C                     0.348011
     15 N                    -0.089643
     16 C                     0.355477
     17 C                     0.379445
     18 N                    -0.089736
     19 O                    -0.495767
     20 O                    -0.508263
     21 O                    -0.502462
     22 O                    -0.468199
     23 C                    -0.204942
     24 H                     0.139298
     25 H                     0.108812
     26 H                     0.108889
     27 C                    -0.197298
     28 H                     0.133353
     29 H                     0.110646
     30 H                     0.111169
     31 C                    -0.067639
     32 S                     0.024838
     33 C                    -0.182441
     34 C                    -0.165940
     35 C                    -0.213755
     36 H                     0.189870
     37 H                     0.189563
     38 H                     0.210762
     39 H                     0.136947
     40 H                     0.137050
     41 H                     0.193832
  ----------------------------------------
  Sum of atomic charges =     0.000000

                    Cartesian Multipole Moments
 -----------------------------------------------------------------
    Charge (ESU x 10^10)
                 0.0000
    Dipole Moment (Debye)
         X       2.0746      Y       2.4274      Z       0.5075
       Tot       3.2333
    Quadrupole Moments (Debye-Ang)
        XX    -184.8169     XY      -1.9259     YY    -182.6948
        XZ     -13.2169     YZ      -4.9439     ZZ    -164.1802

 Total job time:  313.93s(wall), 9153.73s(cpu)
        *  Thank you very much for using Q-Chem.  Have a nice day.  *
