 Q-Chem 5.4, Q-Chem, Inc., Pleasanton, CA (2021)
 Q-Chem 5.4.0 for Intel X86 EM64T Linux

User input:
--------------------------------------------------------------
$molecule
0 1
C	0.197767	-6.741404	0.164018
C	1.198109	-6.155638	1.003240
C	-0.632428	-5.791452	-0.533192
C	1.411364	-4.803786	1.182482
H	1.870845	-6.821518	1.567483
C	-0.409419	-4.378638	-0.345145
C	0.609565	-3.838032	0.510347
C	-1.210332	-3.413062	-1.016449
C	0.830799	-2.426473	0.696879
C	-0.999856	-2.059348	-0.839039
C	0.000000	-1.478216	0.000000
H	-1.673483	-1.394783	-1.403737
C	-1.736282	-6.187987	-1.461835
C	-2.306183	-3.798164	-1.936119
N	-2.491597	-5.170003	-2.093916
C	2.510310	-4.424987	2.104529
C	1.936153	-2.036627	1.625377
N	2.691451	-3.049156	2.257873
O	-2.034222	-7.353131	-1.715561
O	-3.014044	-2.986854	-2.528858
O	3.209622	-5.248946	2.690385
O	2.251529	-0.878829	1.891876
C	-3.573032	-5.563799	-3.002711
H	-3.606932	-6.664085	-3.032655
H	-3.382888	-5.147101	-4.010326
H	-4.533125	-5.148785	-2.640711
C	3.756832	-2.587487	3.152408
H	4.249778	-3.483329	3.564653
H	3.328759	-1.964972	3.960905
H	4.477709	-1.962932	2.591422
C	0.000000	0.000000	0.000000
S	0.396411	0.687007	1.580530
C	1.215245	2.105322	0.904911
C	0.498850	0.864369	-0.985400
C	1.158885	2.007781	-0.493528
H	0.381046	0.660280	-2.059934
H	1.599289	2.770727	-1.152593
H	1.655514	2.868056	1.556025
H	-0.461623	-7.361589	0.783314
H	0.693983	-7.361192	-0.592677
H	-0.694617	-1.478831	0.826987
$end

$rem
JOBTYPE		SP
EXCHANGE	HF
CORRELATION	pRIMP2
BASIS		cc-pvtz
METHOD		rimp2
AUX_BASIS	rimp2-cc-pvtz
SOLVENT_METHOD	PCM
PURECART	11111
SYMMETRY	false
MEM_TOTAL	110000
SCF_CONVERGENCE = 6
THRESH=10
GUI = 2
$end

$solvent
dielectric 4.90
$end
--------------------------------------------------------------

             Standard Nuclear Orientation (Angstroms)
    I     Atom           X                Y                Z
 ----------------------------------------------------------------
    1      C       0.1977670000    -6.7414040000     0.1640180000
    2      C       1.1981090000    -6.1556380000     1.0032400000
    3      C      -0.6324280000    -5.7914520000    -0.5331920000
    4      C       1.4113640000    -4.8037860000     1.1824820000
    5      H       1.8708450000    -6.8215180000     1.5674830000
    6      C      -0.4094190000    -4.3786380000    -0.3451450000
    7      C       0.6095650000    -3.8380320000     0.5103470000
    8      C      -1.2103320000    -3.4130620000    -1.0164490000
    9      C       0.8307990000    -2.4264730000     0.6968790000
   10      C      -0.9998560000    -2.0593480000    -0.8390390000
   11      C       0.0000000000    -1.4782160000     0.0000000000
   12      H      -1.6734830000    -1.3947830000    -1.4037370000
   13      C      -1.7362820000    -6.1879870000    -1.4618350000
   14      C      -2.3061830000    -3.7981640000    -1.9361190000
   15      N      -2.4915970000    -5.1700030000    -2.0939160000
   16      C       2.5103100000    -4.4249870000     2.1045290000
   17      C       1.9361530000    -2.0366270000     1.6253770000
   18      N       2.6914510000    -3.0491560000     2.2578730000
   19      O      -2.0342220000    -7.3531310000    -1.7155610000
   20      O      -3.0140440000    -2.9868540000    -2.5288580000
   21      O       3.2096220000    -5.2489460000     2.6903850000
   22      O       2.2515290000    -0.8788290000     1.8918760000
   23      C      -3.5730320000    -5.5637990000    -3.0027110000
   24      H      -3.6069320000    -6.6640850000    -3.0326550000
   25      H      -3.3828880000    -5.1471010000    -4.0103260000
   26      H      -4.5331250000    -5.1487850000    -2.6407110000
   27      C       3.7568320000    -2.5874870000     3.1524080000
   28      H       4.2497780000    -3.4833290000     3.5646530000
   29      H       3.3287590000    -1.9649720000     3.9609050000
   30      H       4.4777090000    -1.9629320000     2.5914220000
   31      C       0.0000000000     0.0000000000     0.0000000000
   32      S       0.3964110000     0.6870070000     1.5805300000
   33      C       1.2152450000     2.1053220000     0.9049110000
   34      C       0.4988500000     0.8643690000    -0.9854000000
   35      C       1.1588850000     2.0077810000    -0.4935280000
   36      H       0.3810460000     0.6602800000    -2.0599340000
   37      H       1.5992890000     2.7707270000    -1.1525930000
   38      H       1.6555140000     2.8680560000     1.5560250000
   39      H      -0.4616230000    -7.3615890000     0.7833140000
   40      H       0.6939830000    -7.3611920000    -0.5926770000
   41      H      -0.6946170000    -1.4788310000     0.8269870000
 ----------------------------------------------------------------

   11   -1571.6996342589      5.96e-07  Convergence criterion met
 Total energy in the final basis set =    -1571.6996342589
        RIMP2         total energy =     -1576.3694813300 a.u.

                    Orbital Energies (a.u.)
 --------------------------------------------------------------

 Alpha MOs
 -- Occupied --
-91.9806 -20.5482 -20.5443 -20.5409 -20.5397 -15.6268 -15.6206 -11.3930
-11.3849 -11.3828 -11.3782 -11.3085 -11.3064 -11.3050 -11.3042 -11.2964
-11.2858 -11.2824 -11.2798 -11.2680 -11.2678 -11.2631 -11.2628 -11.2591
-11.2524 -11.2523 -11.2438  -8.9809  -6.6613  -6.6609  -6.6606  -1.4215
 -1.4115  -1.3984  -1.3907  -1.2626  -1.2548  -1.2286  -1.1845  -1.1492
 -1.1132  -1.0847  -1.0461  -0.9934  -0.9876  -0.9803  -0.9546  -0.9494
 -0.8950  -0.8864  -0.8769  -0.8601  -0.7894  -0.7763  -0.7731  -0.7653
 -0.7323  -0.7185  -0.7021  -0.6900  -0.6798  -0.6689  -0.6673  -0.6569
 -0.6476  -0.6406  -0.6380  -0.6316  -0.6306  -0.6271  -0.6241  -0.6037
 -0.5851  -0.5710  -0.5661  -0.5622  -0.5582  -0.5517  -0.5507  -0.5486
 -0.5474  -0.5433  -0.5160  -0.5122  -0.5081  -0.4821  -0.4719  -0.4597
 -0.4539  -0.4470  -0.4420  -0.4337  -0.4128  -0.4070  -0.3524  -0.3295
 -0.3227  -0.2848

          Ground-State Mulliken Net Atomic Charges

     Atom                 Charge (a.u.)
  ----------------------------------------
      1 C                    -0.084491
      2 C                    -0.030213
      3 C                    -0.114074
      4 C                    -0.120392
      5 H                     0.198645
      6 C                     0.011035
      7 C                     0.120578
      8 C                    -0.086348
      9 C                    -0.217181
     10 C                    -0.153708
     11 C                     0.229520
     12 H                     0.192714
     13 C                     0.343023
     14 C                     0.347848
     15 N                    -0.089605
     16 C                     0.355981
     17 C                     0.400772
     18 N                    -0.090311
     19 O                    -0.495715
     20 O                    -0.508249
     21 O                    -0.502136
     22 O                    -0.466538
     23 C                    -0.204878
     24 H                     0.139350
     25 H                     0.108870
     26 H                     0.108907
     27 C                    -0.197254
     28 H                     0.133672
     29 H                     0.110995
     30 H                     0.111380
     31 C                    -0.079346
     32 S                     0.041572
     33 C                    -0.189178
     34 C                    -0.163190
     35 C                    -0.224680
     36 H                     0.190087
     37 H                     0.187984
     38 H                     0.209436
     39 H                     0.137282
     40 H                     0.137482
     41 H                     0.200356
  ----------------------------------------
  Sum of atomic charges =     0.000000

                    Cartesian Multipole Moments
 -----------------------------------------------------------------
    Charge (ESU x 10^10)
                 0.0000
    Dipole Moment (Debye)
         X       1.9581      Y       1.9881      Z       0.9492
       Tot       2.9475
    Quadrupole Moments (Debye-Ang)
        XX    -179.1035     XY      -1.1873     YY    -182.5608
        XZ     -14.6897     YZ      -6.2453     ZZ    -169.1552

 Total job time:  292.33s(wall), 9039.02s(cpu)
        *  Thank you very much for using Q-Chem.  Have a nice day.  *
