 Q-Chem 5.4, Q-Chem, Inc., Pleasanton, CA (2021)
 Q-Chem 5.4.0 for Intel X86 EM64T Linux

User input:
--------------------------------------------------------------
$molecule
0 1
C	0.166281	-6.741404	0.195868
C	1.005696	-6.155638	1.196048
C	-0.530233	-5.791452	-0.634911
C	1.184587	-4.803786	1.409599
H	1.570232	-6.821518	1.868538
C	-0.343266	-4.378638	-0.410996
C	0.511683	-3.838032	0.608444
C	-1.015440	-3.413062	-1.211179
C	0.697165	-2.426473	0.830559
C	-0.838968	-2.059348	-0.999915
C	-0.000000	-1.478216	-0.000000
H	-1.404302	-1.394783	-1.673009
C	-1.456059	-6.187987	-1.741129
C	-1.934944	-3.798164	-2.307170
N	-2.090139	-5.170003	-2.494766
C	2.106725	-4.424987	2.508468
C	1.624494	-2.036627	1.936893
N	2.258486	-3.049156	2.690936
O	-1.705414	-7.353131	-2.042736
O	-2.529122	-2.986854	-3.013823
O	2.693680	-5.248946	3.206857
O	1.888802	-0.878829	2.254108
C	-2.997334	-5.563799	-3.577543
H	-3.025519	-6.664085	-3.612920
H	-2.635109	-5.147101	-4.536833
H	-4.005702	-5.148785	-3.387762
C	3.152347	-2.587487	3.756883
H	3.566218	-3.483329	4.248464
H	2.590383	-1.964972	4.478763
H	3.959687	-1.962932	3.329599
C	0.000000	0.000000	0.000000
S	0.686805	0.396760	1.580530
C	2.105095	1.215640	0.904911
C	0.864201	0.499140	-0.985400
C	2.007514	1.159347	-0.493528
H	0.660136	0.381296	-2.059934
H	2.770388	1.599875	-1.152593
H	2.867745	1.656053	1.556025
H	-0.590631	-7.361589	0.691254
H	0.786357	-7.361192	-0.463164
H	-0.827669	-1.478831	0.693804
$end

$rem
JOBTYPE		SP
EXCHANGE	HF
CORRELATION	pRIMP2
BASIS		cc-pvtz
METHOD		rimp2
AUX_BASIS	rimp2-cc-pvtz
SOLVENT_METHOD	PCM
PURECART	11111
SYMMETRY	false
MEM_TOTAL	110000
SCF_CONVERGENCE = 6
THRESH=10
GUI = 2
$end

$solvent
dielectric 4.90
$end
--------------------------------------------------------------

             Standard Nuclear Orientation (Angstroms)
    I     Atom           X                Y                Z
 ----------------------------------------------------------------
    1      C       0.1662810000    -6.7414040000     0.1958680000
    2      C       1.0056960000    -6.1556380000     1.1960480000
    3      C      -0.5302330000    -5.7914520000    -0.6349110000
    4      C       1.1845870000    -4.8037860000     1.4095990000
    5      H       1.5702320000    -6.8215180000     1.8685380000
    6      C      -0.3432660000    -4.3786380000    -0.4109960000
    7      C       0.5116830000    -3.8380320000     0.6084440000
    8      C      -1.0154400000    -3.4130620000    -1.2111790000
    9      C       0.6971650000    -2.4264730000     0.8305590000
   10      C      -0.8389680000    -2.0593480000    -0.9999150000
   11      C       0.0000000000    -1.4782160000     0.0000000000
   12      H      -1.4043020000    -1.3947830000    -1.6730090000
   13      C      -1.4560590000    -6.1879870000    -1.7411290000
   14      C      -1.9349440000    -3.7981640000    -2.3071700000
   15      N      -2.0901390000    -5.1700030000    -2.4947660000
   16      C       2.1067250000    -4.4249870000     2.5084680000
   17      C       1.6244940000    -2.0366270000     1.9368930000
   18      N       2.2584860000    -3.0491560000     2.6909360000
   19      O      -1.7054140000    -7.3531310000    -2.0427360000
   20      O      -2.5291220000    -2.9868540000    -3.0138230000
   21      O       2.6936800000    -5.2489460000     3.2068570000
   22      O       1.8888020000    -0.8788290000     2.2541080000
   23      C      -2.9973340000    -5.5637990000    -3.5775430000
   24      H      -3.0255190000    -6.6640850000    -3.6129200000
   25      H      -2.6351090000    -5.1471010000    -4.5368330000
   26      H      -4.0057020000    -5.1487850000    -3.3877620000
   27      C       3.1523470000    -2.5874870000     3.7568830000
   28      H       3.5662180000    -3.4833290000     4.2484640000
   29      H       2.5903830000    -1.9649720000     4.4787630000
   30      H       3.9596870000    -1.9629320000     3.3295990000
   31      C       0.0000000000     0.0000000000     0.0000000000
   32      S       0.6868050000     0.3967600000     1.5805300000
   33      C       2.1050950000     1.2156400000     0.9049110000
   34      C       0.8642010000     0.4991400000    -0.9854000000
   35      C       2.0075140000     1.1593470000    -0.4935280000
   36      H       0.6601360000     0.3812960000    -2.0599340000
   37      H       2.7703880000     1.5998750000    -1.1525930000
   38      H       2.8677450000     1.6560530000     1.5560250000
   39      H      -0.5906310000    -7.3615890000     0.6912540000
   40      H       0.7863570000    -7.3611920000    -0.4631640000
   41      H      -0.8276690000    -1.4788310000     0.6938040000
 ----------------------------------------------------------------

   12   -1571.5464079585      5.52e-07  Convergence criterion met
 Total energy in the final basis set =    -1571.5464079585
        RIMP2         total energy =     -1576.2530084240 a.u.

                    Orbital Energies (a.u.)
 --------------------------------------------------------------

 Alpha MOs
 -- Occupied --
-92.0116 -20.5858 -20.5518 -20.5404 -20.5380 -15.6433 -15.6203 -11.4205
-11.3932 -11.3827 -11.3765 -11.3160 -11.3081 -11.3056 -11.3042 -11.3030
-11.2775 -11.2730 -11.2713 -11.2686 -11.2597 -11.2594 -11.2587 -11.2554
-11.2422 -11.2326 -11.2242  -9.0082  -6.6893  -6.6874  -6.6860  -1.4741
 -1.4116  -1.4107  -1.3897  -1.2823  -1.2546  -1.2306  -1.1867  -1.1457
 -1.1153  -1.0830  -1.0503  -1.0001  -0.9926  -0.9845  -0.9587  -0.9467
 -0.9043  -0.8854  -0.8820  -0.8635  -0.7917  -0.7892  -0.7781  -0.7627
 -0.7457  -0.7274  -0.7050  -0.6907  -0.6872  -0.6783  -0.6681  -0.6603
 -0.6548  -0.6506  -0.6397  -0.6334  -0.6322  -0.6293  -0.6275  -0.6046
 -0.5955  -0.5916  -0.5732  -0.5657  -0.5591  -0.5538  -0.5487  -0.5481
 -0.5473  -0.5442  -0.5307  -0.5114  -0.5077  -0.4853  -0.4689  -0.4636
 -0.4547  -0.4423  -0.4374  -0.4264  -0.4190  -0.4062  -0.3556  -0.3254
 -0.2819  -0.2511

          Ground-State Mulliken Net Atomic Charges

     Atom                 Charge (a.u.)
  ----------------------------------------
      1 C                    -0.085542
      2 C                    -0.016728
      3 C                    -0.116698
      4 C                    -0.122709
      5 H                     0.201411
      6 C                     0.020321
      7 C                     0.146909
      8 C                    -0.105573
      9 C                    -0.275943
     10 C                    -0.155547
     11 C                     0.212178
     12 H                     0.193198
     13 C                     0.343245
     14 C                     0.344332
     15 N                    -0.088917
     16 C                     0.361350
     17 C                     0.447043
     18 N                    -0.078160
     19 O                    -0.497595
     20 O                    -0.509822
     21 O                    -0.493804
     22 O                    -0.366300
     23 C                    -0.205307
     24 H                     0.139010
     25 H                     0.109138
     26 H                     0.109133
     27 C                    -0.198711
     28 H                     0.138099
     29 H                     0.115610
     30 H                     0.114968
     31 C                    -0.171902
     32 S                     0.109535
     33 C                    -0.229264
     34 C                    -0.189141
     35 C                    -0.254873
     36 H                     0.182652
     37 H                     0.179698
     38 H                     0.198436
     39 H                     0.140157
     40 H                     0.140503
     41 H                     0.215611
  ----------------------------------------
  Sum of atomic charges =     0.000000

                    Cartesian Multipole Moments
 -----------------------------------------------------------------
    Charge (ESU x 10^10)
                 0.0000
    Dipole Moment (Debye)
         X       3.6375      Y      -1.2694      Z       3.9040
       Tot       5.4849
    Quadrupole Moments (Debye-Ang)
        XX    -166.5064     XY      -5.1053     YY    -182.2701
        XZ      -9.5595     YZ     -11.9723     ZZ    -170.1366

 Total job time:  329.97s(wall), 9984.51s(cpu)
        *  Thank you very much for using Q-Chem.  Have a nice day.  *
