 Q-Chem 5.4, Q-Chem, Inc., Pleasanton, CA (2021)
 Q-Chem 5.4.0 for Intel X86 EM64T Linux

User input:
--------------------------------------------------------------
$molecule
0 1
C	-0.253280	-6.741404	-0.043160
C	-1.539213	-6.155638	-0.269777
C	0.814295	-5.791452	0.145543
C	-1.813519	-4.803786	-0.318377
H	-2.403941	-6.821518	-0.422058
C	0.527140	-4.378638	0.094194
C	-0.783072	-3.838032	-0.137191
C	1.556403	-3.413062	0.275104
C	-1.067932	-2.426473	-0.188116
C	1.285420	-2.059348	0.226701
C	-0.000000	-1.478216	-0.000000
H	2.151147	-1.394783	0.378931
C	2.234582	-6.187987	0.397845
C	2.965273	-3.798164	0.523637
N	3.204744	-5.170003	0.567586
C	-3.226257	-4.424987	-0.567421
C	-2.489446	-2.036627	-0.439541
N	-3.459801	-3.049156	-0.609650
O	2.619468	-7.353131	0.468608
O	3.874668	-2.986854	0.683034
O	-4.124806	-5.248946	-0.725131
O	-2.895819	-0.878829	-0.512648
C	4.595691	-5.563799	0.813908
H	4.640022	-6.664085	0.822891
H	4.934830	-5.147101	1.781600
H	5.246157	-5.148785	0.020360
C	-4.829716	-2.587487	-0.851649
H	-5.462742	-3.483329	-0.962191
H	-4.863242	-1.964972	-1.765865
H	-5.173521	-1.962932	-0.005383
C	0.000000	0.000000	0.000000
S	0.686805	0.396760	1.580530
C	2.105095	1.215640	0.904911
C	0.864201	0.499140	-0.985400
C	2.007514	1.159347	-0.493528
H	0.660136	0.381296	-2.059934
H	2.770388	1.599875	-1.152593
H	2.867745	1.656053	1.556025
H	0.008120	-7.361589	-0.909181
H	-0.304668	-7.361192	0.860264
H	0.188062	-1.478831	-1.063500
$end

$rem
JOBTYPE		SP
EXCHANGE	HF
CORRELATION	pRIMP2
BASIS		cc-pvtz
METHOD		rimp2
AUX_BASIS	rimp2-cc-pvtz
SOLVENT_METHOD	PCM
PURECART	11111
SYMMETRY	false
MEM_TOTAL	110000
SCF_CONVERGENCE = 6
THRESH=10
GUI = 2
$end

$solvent
dielectric 4.90
$end
--------------------------------------------------------------

             Standard Nuclear Orientation (Angstroms)
    I     Atom           X                Y                Z
 ----------------------------------------------------------------
    1      C      -0.2532800000    -6.7414040000    -0.0431600000
    2      C      -1.5392130000    -6.1556380000    -0.2697770000
    3      C       0.8142950000    -5.7914520000     0.1455430000
    4      C      -1.8135190000    -4.8037860000    -0.3183770000
    5      H      -2.4039410000    -6.8215180000    -0.4220580000
    6      C       0.5271400000    -4.3786380000     0.0941940000
    7      C      -0.7830720000    -3.8380320000    -0.1371910000
    8      C       1.5564030000    -3.4130620000     0.2751040000
    9      C      -1.0679320000    -2.4264730000    -0.1881160000
   10      C       1.2854200000    -2.0593480000     0.2267010000
   11      C       0.0000000000    -1.4782160000     0.0000000000
   12      H       2.1511470000    -1.3947830000     0.3789310000
   13      C       2.2345820000    -6.1879870000     0.3978450000
   14      C       2.9652730000    -3.7981640000     0.5236370000
   15      N       3.2047440000    -5.1700030000     0.5675860000
   16      C      -3.2262570000    -4.4249870000    -0.5674210000
   17      C      -2.4894460000    -2.0366270000    -0.4395410000
   18      N      -3.4598010000    -3.0491560000    -0.6096500000
   19      O       2.6194680000    -7.3531310000     0.4686080000
   20      O       3.8746680000    -2.9868540000     0.6830340000
   21      O      -4.1248060000    -5.2489460000    -0.7251310000
   22      O      -2.8958190000    -0.8788290000    -0.5126480000
   23      C       4.5956910000    -5.5637990000     0.8139080000
   24      H       4.6400220000    -6.6640850000     0.8228910000
   25      H       4.9348300000    -5.1471010000     1.7816000000
   26      H       5.2461570000    -5.1487850000     0.0203600000
   27      C      -4.8297160000    -2.5874870000    -0.8516490000
   28      H      -5.4627420000    -3.4833290000    -0.9621910000
   29      H      -4.8632420000    -1.9649720000    -1.7658650000
   30      H      -5.1735210000    -1.9629320000    -0.0053830000
   31      C       0.0000000000     0.0000000000     0.0000000000
   32      S       0.6868050000     0.3967600000     1.5805300000
   33      C       2.1050950000     1.2156400000     0.9049110000
   34      C       0.8642010000     0.4991400000    -0.9854000000
   35      C       2.0075140000     1.1593470000    -0.4935280000
   36      H       0.6601360000     0.3812960000    -2.0599340000
   37      H       2.7703880000     1.5998750000    -1.1525930000
   38      H       2.8677450000     1.6560530000     1.5560250000
   39      H       0.0081200000    -7.3615890000    -0.9091810000
   40      H      -0.3046680000    -7.3611920000     0.8602640000
   41      H       0.1880620000    -1.4788310000    -1.0635000000
 ----------------------------------------------------------------

   11   -1571.6811746038      5.68e-07  Convergence criterion met
 Total energy in the final basis set =    -1571.6811746038
        RIMP2         total energy =     -1576.3525987045 a.u.

                    Orbital Energies (a.u.)
 --------------------------------------------------------------

 Alpha MOs
 -- Occupied --
-91.9921 -20.5508 -20.5426 -20.5395 -20.5393 -15.6251 -15.6196 -11.3910
-11.3830 -11.3812 -11.3775 -11.3059 -11.3037 -11.3020 -11.3003 -11.2991
-11.2917 -11.2823 -11.2761 -11.2749 -11.2648 -11.2647 -11.2617 -11.2613
-11.2587 -11.2587 -11.2497  -8.9926  -6.6732  -6.6725  -6.6723  -1.4175
 -1.4106  -1.3953  -1.3898  -1.2601  -1.2538  -1.2336  -1.1953  -1.1512
 -1.1108  -1.0827  -1.0432  -1.0023  -0.9967  -0.9857  -0.9538  -0.9477
 -0.8942  -0.8840  -0.8732  -0.8556  -0.7968  -0.7783  -0.7682  -0.7673
 -0.7434  -0.7171  -0.7037  -0.6899  -0.6838  -0.6697  -0.6647  -0.6556
 -0.6448  -0.6433  -0.6357  -0.6324  -0.6285  -0.6250  -0.6196  -0.6036
 -0.5852  -0.5814  -0.5696  -0.5598  -0.5548  -0.5505  -0.5499  -0.5474
 -0.5462  -0.5419  -0.5227  -0.5058  -0.4921  -0.4853  -0.4738  -0.4630
 -0.4571  -0.4493  -0.4410  -0.4320  -0.4118  -0.4059  -0.3671  -0.3419
 -0.3355  -0.2846

          Ground-State Mulliken Net Atomic Charges

     Atom                 Charge (a.u.)
  ----------------------------------------
      1 C                    -0.086934
      2 C                    -0.038274
      3 C                    -0.111331
      4 C                    -0.119281
      5 H                     0.196581
      6 C                     0.014309
      7 C                     0.116684
      8 C                    -0.104926
      9 C                    -0.198218
     10 C                    -0.160066
     11 C                     0.218859
     12 H                     0.199840
     13 C                     0.342411
     14 C                     0.335806
     15 N                    -0.089025
     16 C                     0.355662
     17 C                     0.358298
     18 N                    -0.090801
     19 O                    -0.497323
     20 O                    -0.511125
     21 O                    -0.503043
     22 O                    -0.466217
     23 C                    -0.205804
     24 H                     0.139438
     25 H                     0.108576
     26 H                     0.108203
     27 C                    -0.198389
     28 H                     0.132765
     29 H                     0.110575
     30 H                     0.111660
     31 C                    -0.096360
     32 S                     0.029035
     33 C                    -0.139444
     34 C                    -0.097968
     35 C                    -0.228330
     36 H                     0.192370
     37 H                     0.193476
     38 H                     0.216205
     39 H                     0.134875
     40 H                     0.135209
     41 H                     0.192020
  ----------------------------------------
  Sum of atomic charges =     0.000000

                    Cartesian Multipole Moments
 -----------------------------------------------------------------
    Charge (ESU x 10^10)
                 0.0000
    Dipole Moment (Debye)
         X       1.9622      Y       3.0484      Z      -1.8840
       Tot       4.0856
    Quadrupole Moments (Debye-Ang)
        XX    -186.4569     XY      14.3794     YY    -191.9454
        XZ      -4.9150     YZ       3.1286     ZZ    -156.2898

 Total job time:  331.96s(wall), 10012.12s(cpu)
        *  Thank you very much for using Q-Chem.  Have a nice day.  *
