 Q-Chem 5.4, Q-Chem, Inc., Pleasanton, CA (2021)
 Q-Chem 5.4.0 for Intel X86 EM64T Linux

User input:
--------------------------------------------------------------
$molecule
0 1
C	0.127184	-6.741404	-0.223244
C	0.779949	-6.155638	-1.354118
C	-0.415271	-5.791452	0.715408
C	0.919437	-4.803786	-1.595259
H	1.218801	-6.821518	-2.114613
C	-0.268806	-4.378638	0.463133
C	0.396744	-3.838032	-0.688925
C	-0.790835	-3.413062	1.368449
C	0.542026	-2.426473	-0.939189
C	-0.652669	-2.059348	1.130363
C	-0.000000	-1.478216	-0.000000
H	-1.091814	-1.394783	1.891815
C	-1.138124	-6.187987	1.963749
C	-1.506241	-3.798164	2.607351
N	-1.629443	-5.170003	2.817348
C	1.636646	-4.424987	-2.837621
C	1.264474	-2.036627	-2.188982
N	1.756205	-3.049156	-3.042637
O	-1.336258	-7.353131	2.301222
O	-1.967056	-2.986854	3.407386
O	2.092167	-5.248946	-3.628041
O	1.472160	-0.878829	-2.545844
C	-2.336642	-5.563799	4.040164
H	-2.360245	-6.664085	4.078749
H	-3.361968	-5.147101	4.027880
H	-1.813424	-5.148785	4.922811
C	2.452149	-2.587487	-4.247167
H	2.772531	-3.483329	-4.804209
H	3.322697	-1.964972	-3.965991
H	1.774507	-1.962932	-4.859678
C	0.000000	0.000000	0.000000
S	0.607475	0.509994	1.580530
C	1.862020	1.562717	0.904911
C	0.764397	0.641624	-0.985400
C	1.775697	1.490335	-0.493528
H	0.583895	0.490135	-2.059934
H	2.450484	2.056643	-1.152593
H	2.536607	2.128872	1.556025
H	0.851574	-7.361589	0.318588
H	-0.704181	-7.361192	-0.580522
H	0.935042	-1.478831	0.540459
$end

$rem
JOBTYPE		SP
EXCHANGE	HF
CORRELATION	pRIMP2
BASIS		cc-pvtz
METHOD		rimp2
AUX_BASIS	rimp2-cc-pvtz
SOLVENT_METHOD	PCM
PURECART	11111
SYMMETRY	false
MEM_TOTAL	110000
SCF_CONVERGENCE = 6
THRESH=10
GUI = 2
$end

$solvent
dielectric 4.90
$end
--------------------------------------------------------------

             Standard Nuclear Orientation (Angstroms)
    I     Atom           X                Y                Z
 ----------------------------------------------------------------
    1      C       0.1271840000    -6.7414040000    -0.2232440000
    2      C       0.7799490000    -6.1556380000    -1.3541180000
    3      C      -0.4152710000    -5.7914520000     0.7154080000
    4      C       0.9194370000    -4.8037860000    -1.5952590000
    5      H       1.2188010000    -6.8215180000    -2.1146130000
    6      C      -0.2688060000    -4.3786380000     0.4631330000
    7      C       0.3967440000    -3.8380320000    -0.6889250000
    8      C      -0.7908350000    -3.4130620000     1.3684490000
    9      C       0.5420260000    -2.4264730000    -0.9391890000
   10      C      -0.6526690000    -2.0593480000     1.1303630000
   11      C       0.0000000000    -1.4782160000     0.0000000000
   12      H      -1.0918140000    -1.3947830000     1.8918150000
   13      C      -1.1381240000    -6.1879870000     1.9637490000
   14      C      -1.5062410000    -3.7981640000     2.6073510000
   15      N      -1.6294430000    -5.1700030000     2.8173480000
   16      C       1.6366460000    -4.4249870000    -2.8376210000
   17      C       1.2644740000    -2.0366270000    -2.1889820000
   18      N       1.7562050000    -3.0491560000    -3.0426370000
   19      O      -1.3362580000    -7.3531310000     2.3012220000
   20      O      -1.9670560000    -2.9868540000     3.4073860000
   21      O       2.0921670000    -5.2489460000    -3.6280410000
   22      O       1.4721600000    -0.8788290000    -2.5458440000
   23      C      -2.3366420000    -5.5637990000     4.0401640000
   24      H      -2.3602450000    -6.6640850000     4.0787490000
   25      H      -3.3619680000    -5.1471010000     4.0278800000
   26      H      -1.8134240000    -5.1487850000     4.9228110000
   27      C       2.4521490000    -2.5874870000    -4.2471670000
   28      H       2.7725310000    -3.4833290000    -4.8042090000
   29      H       3.3226970000    -1.9649720000    -3.9659910000
   30      H       1.7745070000    -1.9629320000    -4.8596780000
   31      C       0.0000000000     0.0000000000     0.0000000000
   32      S       0.6074750000     0.5099940000     1.5805300000
   33      C       1.8620200000     1.5627170000     0.9049110000
   34      C       0.7643970000     0.6416240000    -0.9854000000
   35      C       1.7756970000     1.4903350000    -0.4935280000
   36      H       0.5838950000     0.4901350000    -2.0599340000
   37      H       2.4504840000     2.0566430000    -1.1525930000
   38      H       2.5366070000     2.1288720000     1.5560250000
   39      H       0.8515740000    -7.3615890000     0.3185880000
   40      H      -0.7041810000    -7.3611920000    -0.5805220000
   41      H       0.9350420000    -1.4788310000     0.5404590000
 ----------------------------------------------------------------

   11   -1571.6636767961      5.79e-07  Convergence criterion met
 Total energy in the final basis set =    -1571.6636767961
        RIMP2         total energy =     -1576.3342196097 a.u.

                    Orbital Energies (a.u.)
 --------------------------------------------------------------

 Alpha MOs
 -- Occupied --
-91.9803 -20.5519 -20.5458 -20.5399 -20.5390 -15.6302 -15.6198 -11.3998
-11.3863 -11.3818 -11.3773 -11.3065 -11.3049 -11.3033 -11.3032 -11.2966
-11.2959 -11.2817 -11.2678 -11.2665 -11.2660 -11.2651 -11.2629 -11.2584
-11.2526 -11.2517 -11.2468  -8.9818  -6.6627  -6.6619  -6.6614  -1.4280
 -1.4107  -1.4015  -1.3898  -1.2661  -1.2542  -1.2309  -1.1903  -1.1500
 -1.1126  -1.0839  -1.0462  -0.9969  -0.9886  -0.9871  -0.9551  -0.9476
 -0.8969  -0.8856  -0.8773  -0.8599  -0.7909  -0.7797  -0.7726  -0.7654
 -0.7391  -0.7308  -0.7028  -0.6871  -0.6780  -0.6744  -0.6667  -0.6573
 -0.6479  -0.6468  -0.6364  -0.6311  -0.6302  -0.6299  -0.6227  -0.6034
 -0.5889  -0.5717  -0.5680  -0.5613  -0.5568  -0.5523  -0.5516  -0.5477
 -0.5465  -0.5421  -0.5167  -0.5119  -0.5042  -0.4787  -0.4718  -0.4633
 -0.4544  -0.4443  -0.4401  -0.4339  -0.4165  -0.4064  -0.3548  -0.3443
 -0.3299  -0.2747

          Ground-State Mulliken Net Atomic Charges

     Atom                 Charge (a.u.)
  ----------------------------------------
      1 C                    -0.085302
      2 C                    -0.031260
      3 C                    -0.115729
      4 C                    -0.120440
      5 H                     0.198163
      6 C                     0.016990
      7 C                     0.127585
      8 C                    -0.079479
      9 C                    -0.194488
     10 C                    -0.136564
     11 C                     0.164754
     12 H                     0.182708
     13 C                     0.342462
     14 C                     0.346379
     15 N                    -0.089536
     16 C                     0.357420
     17 C                     0.402332
     18 N                    -0.085604
     19 O                    -0.496772
     20 O                    -0.508089
     21 O                    -0.500217
     22 O                    -0.476468
     23 C                    -0.205355
     24 H                     0.139134
     25 H                     0.109061
     26 H                     0.108878
     27 C                    -0.199779
     28 H                     0.135159
     29 H                     0.111650
     30 H                     0.112314
     31 C                    -0.100518
     32 S                    -0.018884
     33 C                    -0.167508
     34 C                    -0.104234
     35 C                    -0.228972
     36 H                     0.211561
     37 H                     0.191253
     38 H                     0.215551
     39 H                     0.136562
     40 H                     0.137013
     41 H                     0.198268
  ----------------------------------------
  Sum of atomic charges =     0.000000

                    Cartesian Multipole Moments
 -----------------------------------------------------------------
    Charge (ESU x 10^10)
                -0.0000
    Dipole Moment (Debye)
         X       3.7239      Y       2.1323      Z      -2.5022
       Tot       4.9674
    Quadrupole Moments (Debye-Ang)
        XX    -163.4569     XY       0.0923     YY    -185.9939
        XZ      14.2333     YZ       8.4915     ZZ    -180.3619

 Total job time:  308.84s(wall), 9873.39s(cpu)
        *  Thank you very much for using Q-Chem.  Have a nice day.  *
