 Q-Chem 5.4, Q-Chem, Inc., Pleasanton, CA (2021)
 Q-Chem 5.4.0 for Intel X86 EM64T Linux

User input:
--------------------------------------------------------------
$molecule
0 1
C	0.197767	-6.741404	0.164018
C	1.198109	-6.155638	1.003240
C	-0.632428	-5.791452	-0.533192
C	1.411364	-4.803786	1.182482
H	1.870845	-6.821518	1.567483
C	-0.409419	-4.378638	-0.345145
C	0.609565	-3.838032	0.510347
C	-1.210332	-3.413062	-1.016449
C	0.830799	-2.426473	0.696879
C	-0.999856	-2.059348	-0.839039
C	-0.000000	-1.478216	-0.000000
H	-1.673483	-1.394783	-1.403737
C	-1.736282	-6.187987	-1.461835
C	-2.306183	-3.798164	-1.936119
N	-2.491597	-5.170003	-2.093916
C	2.510310	-4.424987	2.104529
C	1.936153	-2.036627	1.625377
N	2.691451	-3.049156	2.257873
O	-2.034222	-7.353131	-1.715561
O	-3.014044	-2.986854	-2.528858
O	3.209622	-5.248946	2.690385
O	2.251529	-0.878829	1.891876
C	-3.573032	-5.563799	-3.002711
H	-3.606932	-6.664085	-3.032655
H	-3.382888	-5.147101	-4.010326
H	-4.533125	-5.148785	-2.640711
C	3.756832	-2.587487	3.152408
H	4.249778	-3.483329	3.564653
H	3.328759	-1.964972	3.960905
H	4.477709	-1.962932	2.591422
C	0.000000	0.000000	0.000000
S	0.607475	0.509994	1.580530
C	1.862020	1.562717	0.904911
C	0.764397	0.641624	-0.985400
C	1.775697	1.490335	-0.493528
H	0.583895	0.490135	-2.059934
H	2.450484	2.056643	-1.152593
H	2.536607	2.128872	1.556025
H	-0.461623	-7.361589	0.783314
H	0.693983	-7.361192	-0.592677
H	-0.694617	-1.478831	0.826987
$end

$rem
JOBTYPE		SP
EXCHANGE	HF
CORRELATION	pRIMP2
BASIS		cc-pvtz
METHOD		rimp2
AUX_BASIS	rimp2-cc-pvtz
SOLVENT_METHOD	PCM
PURECART	11111
SYMMETRY	false
MEM_TOTAL	110000
SCF_CONVERGENCE = 6
THRESH=10
GUI = 2
$end

$solvent
dielectric 4.90
$end
--------------------------------------------------------------

             Standard Nuclear Orientation (Angstroms)
    I     Atom           X                Y                Z
 ----------------------------------------------------------------
    1      C       0.1977670000    -6.7414040000     0.1640180000
    2      C       1.1981090000    -6.1556380000     1.0032400000
    3      C      -0.6324280000    -5.7914520000    -0.5331920000
    4      C       1.4113640000    -4.8037860000     1.1824820000
    5      H       1.8708450000    -6.8215180000     1.5674830000
    6      C      -0.4094190000    -4.3786380000    -0.3451450000
    7      C       0.6095650000    -3.8380320000     0.5103470000
    8      C      -1.2103320000    -3.4130620000    -1.0164490000
    9      C       0.8307990000    -2.4264730000     0.6968790000
   10      C      -0.9998560000    -2.0593480000    -0.8390390000
   11      C       0.0000000000    -1.4782160000     0.0000000000
   12      H      -1.6734830000    -1.3947830000    -1.4037370000
   13      C      -1.7362820000    -6.1879870000    -1.4618350000
   14      C      -2.3061830000    -3.7981640000    -1.9361190000
   15      N      -2.4915970000    -5.1700030000    -2.0939160000
   16      C       2.5103100000    -4.4249870000     2.1045290000
   17      C       1.9361530000    -2.0366270000     1.6253770000
   18      N       2.6914510000    -3.0491560000     2.2578730000
   19      O      -2.0342220000    -7.3531310000    -1.7155610000
   20      O      -3.0140440000    -2.9868540000    -2.5288580000
   21      O       3.2096220000    -5.2489460000     2.6903850000
   22      O       2.2515290000    -0.8788290000     1.8918760000
   23      C      -3.5730320000    -5.5637990000    -3.0027110000
   24      H      -3.6069320000    -6.6640850000    -3.0326550000
   25      H      -3.3828880000    -5.1471010000    -4.0103260000
   26      H      -4.5331250000    -5.1487850000    -2.6407110000
   27      C       3.7568320000    -2.5874870000     3.1524080000
   28      H       4.2497780000    -3.4833290000     3.5646530000
   29      H       3.3287590000    -1.9649720000     3.9609050000
   30      H       4.4777090000    -1.9629320000     2.5914220000
   31      C       0.0000000000     0.0000000000     0.0000000000
   32      S       0.6074750000     0.5099940000     1.5805300000
   33      C       1.8620200000     1.5627170000     0.9049110000
   34      C       0.7643970000     0.6416240000    -0.9854000000
   35      C       1.7756970000     1.4903350000    -0.4935280000
   36      H       0.5838950000     0.4901350000    -2.0599340000
   37      H       2.4504840000     2.0566430000    -1.1525930000
   38      H       2.5366070000     2.1288720000     1.5560250000
   39      H      -0.4616230000    -7.3615890000     0.7833140000
   40      H       0.6939830000    -7.3611920000    -0.5926770000
   41      H      -0.6946170000    -1.4788310000     0.8269870000
 ----------------------------------------------------------------

   11   -1571.6333449793      7.90e-07  Convergence criterion met
 Total energy in the final basis set =    -1571.6333449793
        RIMP2         total energy =     -1576.3200566222 a.u.

                    Orbital Energies (a.u.)
 --------------------------------------------------------------

 Alpha MOs
 -- Occupied --
-91.9817 -20.5514 -20.5454 -20.5396 -20.5382 -15.6297 -15.6196 -11.3972
-11.3860 -11.3817 -11.3766 -11.3089 -11.3041 -11.3035 -11.3033 -11.2974
-11.2831 -11.2811 -11.2684 -11.2662 -11.2649 -11.2620 -11.2599 -11.2585
-11.2522 -11.2518 -11.2425  -8.9821  -6.6624  -6.6619  -6.6613  -1.4307
 -1.4103  -1.4021  -1.3894  -1.2665  -1.2539  -1.2282  -1.1853  -1.1482
 -1.1123  -1.0829  -1.0458  -0.9935  -0.9881  -0.9830  -0.9549  -0.9486
 -0.8960  -0.8844  -0.8773  -0.8600  -0.7860  -0.7788  -0.7727  -0.7671
 -0.7312  -0.7230  -0.7019  -0.6905  -0.6821  -0.6686  -0.6668  -0.6572
 -0.6507  -0.6440  -0.6367  -0.6310  -0.6304  -0.6282  -0.6248  -0.6021
 -0.5858  -0.5705  -0.5679  -0.5639  -0.5594  -0.5539  -0.5519  -0.5478
 -0.5467  -0.5432  -0.5148  -0.5123  -0.5054  -0.4824  -0.4674  -0.4594
 -0.4524  -0.4417  -0.4403  -0.4326  -0.4148  -0.4060  -0.3519  -0.3277
 -0.3000  -0.2812

          Ground-State Mulliken Net Atomic Charges

     Atom                 Charge (a.u.)
  ----------------------------------------
      1 C                    -0.085201
      2 C                    -0.028487
      3 C                    -0.117461
      4 C                    -0.119433
      5 H                     0.198805
      6 C                     0.014671
      7 C                     0.127110
      8 C                    -0.093714
      9 C                    -0.251087
     10 C                    -0.157165
     11 C                     0.223212
     12 H                     0.192248
     13 C                     0.342641
     14 C                     0.344924
     15 N                    -0.089034
     16 C                     0.356219
     17 C                     0.425312
     18 N                    -0.086146
     19 O                    -0.497731
     20 O                    -0.509826
     21 O                    -0.501338
     22 O                    -0.450533
     23 C                    -0.205289
     24 H                     0.139088
     25 H                     0.108661
     26 H                     0.108739
     27 C                    -0.197992
     28 H                     0.134945
     29 H                     0.111689
     30 H                     0.111366
     31 C                    -0.120019
     32 S                     0.028802
     33 C                    -0.138813
     34 C                    -0.126838
     35 C                    -0.251836
     36 H                     0.190359
     37 H                     0.184773
     38 H                     0.206943
     39 H                     0.137202
     40 H                     0.137458
     41 H                     0.202776
  ----------------------------------------
  Sum of atomic charges =     0.000000

                    Cartesian Multipole Moments
 -----------------------------------------------------------------
    Charge (ESU x 10^10)
                 0.0000
    Dipole Moment (Debye)
         X       3.4372      Y       1.4791      Z       1.5059
       Tot       4.0336
    Quadrupole Moments (Debye-Ang)
        XX    -174.1487     XY      -1.6753     YY    -187.3251
        XZ     -13.2438     YZ      -7.6108     ZZ    -168.4965

 Total job time:  307.72s(wall), 9753.30s(cpu)
        *  Thank you very much for using Q-Chem.  Have a nice day.  *
