 Q-Chem 5.4, Q-Chem, Inc., Pleasanton, CA (2021)
 Q-Chem 5.4.0 for Intel X86 EM64T Linux

User input:
--------------------------------------------------------------
$molecule
0 1
C	-0.253280	-6.741404	-0.043160
C	-1.539213	-6.155638	-0.269777
C	0.814295	-5.791452	0.145543
C	-1.813519	-4.803786	-0.318377
H	-2.403941	-6.821518	-0.422058
C	0.527140	-4.378638	0.094194
C	-0.783072	-3.838032	-0.137191
C	1.556403	-3.413062	0.275104
C	-1.067932	-2.426473	-0.188116
C	1.285420	-2.059348	0.226701
C	-0.000000	-1.478216	-0.000000
H	2.151147	-1.394783	0.378931
C	2.234582	-6.187987	0.397845
C	2.965273	-3.798164	0.523637
N	3.204744	-5.170003	0.567586
C	-3.226257	-4.424987	-0.567421
C	-2.489446	-2.036627	-0.439541
N	-3.459801	-3.049156	-0.609650
O	2.619468	-7.353131	0.468608
O	3.874668	-2.986854	0.683034
O	-4.124806	-5.248946	-0.725131
O	-2.895819	-0.878829	-0.512648
C	4.595691	-5.563799	0.813908
H	4.640022	-6.664085	0.822891
H	4.934830	-5.147101	1.781600
H	5.246157	-5.148785	0.020360
C	-4.829716	-2.587487	-0.851649
H	-5.462742	-3.483329	-0.962191
H	-4.863242	-1.964972	-1.765865
H	-5.173521	-1.962932	-0.005383
C	0.000000	0.000000	0.000000
S	0.271091	0.745405	1.580530
C	0.831198	2.284363	0.904911
C	0.341175	0.937861	-0.985400
C	0.792631	2.178516	-0.493528
H	0.260601	0.716417	-2.059934
H	1.093860	3.006347	-1.152593
H	1.132330	3.111961	1.556025
H	0.008120	-7.361589	-0.909181
H	-0.304668	-7.361192	0.860264
H	0.188062	-1.478831	-1.063500
$end

$rem
JOBTYPE		SP
EXCHANGE	HF
CORRELATION	pRIMP2
BASIS		cc-pvtz
METHOD		rimp2
AUX_BASIS	rimp2-cc-pvtz
SOLVENT_METHOD	PCM
PURECART	11111
SYMMETRY	false
MEM_TOTAL	110000
SCF_CONVERGENCE = 6
THRESH=10
GUI = 2
$end

$solvent
dielectric 4.90
$end
--------------------------------------------------------------

             Standard Nuclear Orientation (Angstroms)
    I     Atom           X                Y                Z
 ----------------------------------------------------------------
    1      C      -0.2532800000    -6.7414040000    -0.0431600000
    2      C      -1.5392130000    -6.1556380000    -0.2697770000
    3      C       0.8142950000    -5.7914520000     0.1455430000
    4      C      -1.8135190000    -4.8037860000    -0.3183770000
    5      H      -2.4039410000    -6.8215180000    -0.4220580000
    6      C       0.5271400000    -4.3786380000     0.0941940000
    7      C      -0.7830720000    -3.8380320000    -0.1371910000
    8      C       1.5564030000    -3.4130620000     0.2751040000
    9      C      -1.0679320000    -2.4264730000    -0.1881160000
   10      C       1.2854200000    -2.0593480000     0.2267010000
   11      C       0.0000000000    -1.4782160000     0.0000000000
   12      H       2.1511470000    -1.3947830000     0.3789310000
   13      C       2.2345820000    -6.1879870000     0.3978450000
   14      C       2.9652730000    -3.7981640000     0.5236370000
   15      N       3.2047440000    -5.1700030000     0.5675860000
   16      C      -3.2262570000    -4.4249870000    -0.5674210000
   17      C      -2.4894460000    -2.0366270000    -0.4395410000
   18      N      -3.4598010000    -3.0491560000    -0.6096500000
   19      O       2.6194680000    -7.3531310000     0.4686080000
   20      O       3.8746680000    -2.9868540000     0.6830340000
   21      O      -4.1248060000    -5.2489460000    -0.7251310000
   22      O      -2.8958190000    -0.8788290000    -0.5126480000
   23      C       4.5956910000    -5.5637990000     0.8139080000
   24      H       4.6400220000    -6.6640850000     0.8228910000
   25      H       4.9348300000    -5.1471010000     1.7816000000
   26      H       5.2461570000    -5.1487850000     0.0203600000
   27      C      -4.8297160000    -2.5874870000    -0.8516490000
   28      H      -5.4627420000    -3.4833290000    -0.9621910000
   29      H      -4.8632420000    -1.9649720000    -1.7658650000
   30      H      -5.1735210000    -1.9629320000    -0.0053830000
   31      C       0.0000000000     0.0000000000     0.0000000000
   32      S       0.2710910000     0.7454050000     1.5805300000
   33      C       0.8311980000     2.2843630000     0.9049110000
   34      C       0.3411750000     0.9378610000    -0.9854000000
   35      C       0.7926310000     2.1785160000    -0.4935280000
   36      H       0.2606010000     0.7164170000    -2.0599340000
   37      H       1.0938600000     3.0063470000    -1.1525930000
   38      H       1.1323300000     3.1119610000     1.5560250000
   39      H       0.0081200000    -7.3615890000    -0.9091810000
   40      H      -0.3046680000    -7.3611920000     0.8602640000
   41      H       0.1880620000    -1.4788310000    -1.0635000000
 ----------------------------------------------------------------

   11   -1571.7447819860      5.45e-07  Convergence criterion met
 Total energy in the final basis set =    -1571.7447819860
        RIMP2         total energy =     -1576.3999574339 a.u.

                    Orbital Energies (a.u.)
 --------------------------------------------------------------

 Alpha MOs
 -- Occupied --
-91.9887 -20.5526 -20.5443 -20.5419 -20.5408 -15.6268 -15.6214 -11.3934
-11.3850 -11.3837 -11.3795 -11.3093 -11.3074 -11.3047 -11.3043 -11.2969
-11.2960 -11.2893 -11.2833 -11.2693 -11.2678 -11.2653 -11.2627 -11.2595
-11.2584 -11.2526 -11.2518  -8.9885  -6.6693  -6.6688  -6.6683  -1.4194
 -1.4124  -1.3971  -1.3916  -1.2620  -1.2556  -1.2299  -1.1874  -1.1529
 -1.1141  -1.0862  -1.0465  -0.9960  -0.9877  -0.9860  -0.9552  -0.9508
 -0.8966  -0.8876  -0.8764  -0.8595  -0.7953  -0.7773  -0.7706  -0.7626
 -0.7427  -0.7173  -0.7044  -0.6917  -0.6814  -0.6718  -0.6665  -0.6572
 -0.6470  -0.6437  -0.6359  -0.6332  -0.6308  -0.6276  -0.6219  -0.6046
 -0.5846  -0.5759  -0.5677  -0.5613  -0.5568  -0.5512  -0.5506  -0.5480
 -0.5473  -0.5435  -0.5202  -0.5155  -0.5082  -0.4831  -0.4754  -0.4627
 -0.4587  -0.4513  -0.4429  -0.4346  -0.4133  -0.4074  -0.3583  -0.3495
 -0.3286  -0.2899

          Ground-State Mulliken Net Atomic Charges

     Atom                 Charge (a.u.)
  ----------------------------------------
      1 C                    -0.084385
      2 C                    -0.032300
      3 C                    -0.111132
      4 C                    -0.121111
      5 H                     0.198506
      6 C                     0.017294
      7 C                     0.118757
      8 C                    -0.090614
      9 C                    -0.179841
     10 C                    -0.099601
     11 C                     0.148359
     12 H                     0.201274
     13 C                     0.343820
     14 C                     0.344604
     15 N                    -0.090184
     16 C                     0.357501
     17 C                     0.346223
     18 N                    -0.092967
     19 O                    -0.493994
     20 O                    -0.506590
     21 O                    -0.501616
     22 O                    -0.471814
     23 C                    -0.204803
     24 H                     0.139532
     25 H                     0.109346
     26 H                     0.108963
     27 C                    -0.196973
     28 H                     0.133096
     29 H                     0.111059
     30 H                     0.112172
     31 C                     0.026807
     32 S                     0.011662
     33 C                    -0.210587
     34 C                    -0.206067
     35 C                    -0.197932
     36 H                     0.184132
     37 H                     0.193167
     38 H                     0.210729
     39 H                     0.137361
     40 H                     0.137647
     41 H                     0.200497
  ----------------------------------------
  Sum of atomic charges =     0.000000

                    Cartesian Multipole Moments
 -----------------------------------------------------------------
    Charge (ESU x 10^10)
                 0.0000
    Dipole Moment (Debye)
         X       0.0293      Y       2.2075      Z      -1.9775
       Tot       2.9639
    Quadrupole Moments (Debye-Ang)
        XX    -193.7002     XY      11.8153     YY    -178.8831
        XZ      -5.4617     YZ       3.3599     ZZ    -157.2282

 Total job time:  328.08s(wall), 9097.68s(cpu)
        *  Thank you very much for using Q-Chem.  Have a nice day.  *
