 Q-Chem 5.4, Q-Chem, Inc., Pleasanton, CA (2021)
 Q-Chem 5.4.0 for Intel X86 EM64T Linux

User input:
--------------------------------------------------------------
$molecule
0 1
C	-0.086486	-6.741404	0.241938
C	-0.532960	-6.155638	1.468983
C	0.284733	-5.791452	-0.776651
C	-0.628455	-4.803786	1.730681
H	-0.833086	-6.821518	2.294130
C	0.184300	-4.378638	-0.502775
C	-0.271086	-3.838032	0.747353
C	0.541191	-3.413062	-1.484986
C	-0.370703	-2.426473	1.019042
C	0.446468	-2.059348	-1.226525
C	-0.000000	-1.478216	-0.000000
H	0.746717	-1.394783	-2.052666
C	0.779832	-6.187987	-2.131549
C	1.030596	-3.798164	-2.829295
N	1.115461	-5.170003	-3.057496
C	-1.119034	-4.424987	3.078712
C	-0.865151	-2.036627	2.375300
N	-1.201176	-3.049156	3.301374
O	0.916355	-7.353131	-2.498300
O	1.345486	-2.986854	-3.697195
O	-1.430379	-5.248946	3.936224
O	-1.007714	-0.878829	2.762805
C	1.599576	-5.563799	-4.384539
H	1.616121	-6.664085	-4.426636
H	2.611458	-5.147101	-4.550487
H	0.931037	-5.148785	-5.162921
C	-1.677382	-2.587487	4.608454
H	-1.896168	-3.483329	5.212668
H	-2.583531	-1.964972	4.482719
H	-0.903674	-1.962932	5.093988
C	0.000000	0.000000	0.000000
S	0.271091	0.745405	1.580530
C	0.831198	2.284363	0.904911
C	0.341175	0.937861	-0.985400
C	0.792631	2.178516	-0.493528
H	0.260601	0.716417	-2.059934
H	1.093860	3.006347	-1.152593
H	1.132330	3.111961	1.556025
H	-0.893959	-7.361589	-0.165874
H	0.794290	-7.361192	0.449423
H	-1.014686	-1.478831	-0.369880
$end

$rem
JOBTYPE		SP
EXCHANGE	HF
CORRELATION	pRIMP2
BASIS		cc-pvtz
METHOD		rimp2
AUX_BASIS	rimp2-cc-pvtz
SOLVENT_METHOD	PCM
PURECART	11111
SYMMETRY	false
MEM_TOTAL	110000
SCF_CONVERGENCE = 6
THRESH=10
GUI = 2
$end

$solvent
dielectric 4.90
$end
--------------------------------------------------------------

             Standard Nuclear Orientation (Angstroms)
    I     Atom           X                Y                Z
 ----------------------------------------------------------------
    1      C      -0.0864860000    -6.7414040000     0.2419380000
    2      C      -0.5329600000    -6.1556380000     1.4689830000
    3      C       0.2847330000    -5.7914520000    -0.7766510000
    4      C      -0.6284550000    -4.8037860000     1.7306810000
    5      H      -0.8330860000    -6.8215180000     2.2941300000
    6      C       0.1843000000    -4.3786380000    -0.5027750000
    7      C      -0.2710860000    -3.8380320000     0.7473530000
    8      C       0.5411910000    -3.4130620000    -1.4849860000
    9      C      -0.3707030000    -2.4264730000     1.0190420000
   10      C       0.4464680000    -2.0593480000    -1.2265250000
   11      C       0.0000000000    -1.4782160000     0.0000000000
   12      H       0.7467170000    -1.3947830000    -2.0526660000
   13      C       0.7798320000    -6.1879870000    -2.1315490000
   14      C       1.0305960000    -3.7981640000    -2.8292950000
   15      N       1.1154610000    -5.1700030000    -3.0574960000
   16      C      -1.1190340000    -4.4249870000     3.0787120000
   17      C      -0.8651510000    -2.0366270000     2.3753000000
   18      N      -1.2011760000    -3.0491560000     3.3013740000
   19      O       0.9163550000    -7.3531310000    -2.4983000000
   20      O       1.3454860000    -2.9868540000    -3.6971950000
   21      O      -1.4303790000    -5.2489460000     3.9362240000
   22      O      -1.0077140000    -0.8788290000     2.7628050000
   23      C       1.5995760000    -5.5637990000    -4.3845390000
   24      H       1.6161210000    -6.6640850000    -4.4266360000
   25      H       2.6114580000    -5.1471010000    -4.5504870000
   26      H       0.9310370000    -5.1487850000    -5.1629210000
   27      C      -1.6773820000    -2.5874870000     4.6084540000
   28      H      -1.8961680000    -3.4833290000     5.2126680000
   29      H      -2.5835310000    -1.9649720000     4.4827190000
   30      H      -0.9036740000    -1.9629320000     5.0939880000
   31      C       0.0000000000     0.0000000000     0.0000000000
   32      S       0.2710910000     0.7454050000     1.5805300000
   33      C       0.8311980000     2.2843630000     0.9049110000
   34      C       0.3411750000     0.9378610000    -0.9854000000
   35      C       0.7926310000     2.1785160000    -0.4935280000
   36      H       0.2606010000     0.7164170000    -2.0599340000
   37      H       1.0938600000     3.0063470000    -1.1525930000
   38      H       1.1323300000     3.1119610000     1.5560250000
   39      H      -0.8939590000    -7.3615890000    -0.1658740000
   40      H       0.7942900000    -7.3611920000     0.4494230000
   41      H      -1.0146860000    -1.4788310000    -0.3698800000
 ----------------------------------------------------------------

   11   -1571.7138776676      5.93e-07  Convergence criterion met
 Total energy in the final basis set =    -1571.7138776676
        RIMP2         total energy =     -1576.3797358422 a.u.

                    Orbital Energies (a.u.)
 --------------------------------------------------------------

 Alpha MOs
 -- Occupied --
-91.9749 -20.5552 -20.5459 -20.5420 -20.5412 -15.6295 -15.6219 -11.3981
-11.3867 -11.3840 -11.3798 -11.3115 -11.3096 -11.3082 -11.3056 -11.2985
-11.2938 -11.2907 -11.2699 -11.2696 -11.2658 -11.2655 -11.2642 -11.2598
-11.2537 -11.2507 -11.2420  -8.9747  -6.6553  -6.6543  -6.6536  -1.4268
 -1.4128  -1.4013  -1.3919  -1.2656  -1.2562  -1.2312  -1.1859  -1.1482
 -1.1155  -1.0866  -1.0486  -0.9944  -0.9890  -0.9779  -0.9560  -0.9489
 -0.8976  -0.8904  -0.8789  -0.8619  -0.7923  -0.7801  -0.7739  -0.7597
 -0.7328  -0.7207  -0.7021  -0.6909  -0.6854  -0.6761  -0.6683  -0.6585
 -0.6499  -0.6463  -0.6373  -0.6330  -0.6320  -0.6317  -0.6220  -0.6061
 -0.5884  -0.5735  -0.5653  -0.5618  -0.5592  -0.5536  -0.5523  -0.5492
 -0.5483  -0.5451  -0.5219  -0.5120  -0.5110  -0.4861  -0.4765  -0.4627
 -0.4557  -0.4446  -0.4373  -0.4243  -0.4086  -0.4065  -0.3550  -0.3421
 -0.3286  -0.2779

          Ground-State Mulliken Net Atomic Charges

     Atom                 Charge (a.u.)
  ----------------------------------------
      1 C                    -0.084312
      2 C                    -0.029571
      3 C                    -0.107031
      4 C                    -0.123902
      5 H                     0.199729
      6 C                     0.025781
      7 C                     0.126855
      8 C                    -0.093731
      9 C                    -0.172088
     10 C                    -0.155082
     11 C                     0.206226
     12 H                     0.190087
     13 C                     0.341075
     14 C                     0.349522
     15 N                    -0.090228
     16 C                     0.357656
     17 C                     0.374984
     18 N                    -0.090224
     19 O                    -0.494401
     20 O                    -0.508403
     21 O                    -0.500101
     22 O                    -0.470155
     23 C                    -0.204908
     24 H                     0.139629
     25 H                     0.109478
     26 H                     0.109162
     27 C                    -0.197919
     28 H                     0.134406
     29 H                     0.112081
     30 H                     0.112927
     31 C                    -0.008779
     32 S                     0.078481
     33 C                    -0.252769
     34 C                    -0.239305
     35 C                    -0.204742
     36 H                     0.179076
     37 H                     0.185495
     38 H                     0.204672
     39 H                     0.138089
     40 H                     0.138637
     41 H                     0.213603
  ----------------------------------------
  Sum of atomic charges =     0.000000

                    Cartesian Multipole Moments
 -----------------------------------------------------------------
    Charge (ESU x 10^10)
                 0.0000
    Dipole Moment (Debye)
         X      -1.0253      Y       0.9585      Z       0.4127
       Tot       1.4629
    Quadrupole Moments (Debye-Ang)
        XX    -165.2330     XY       7.4739     YY    -179.0690
        XZ      10.1029     YZ      -8.1512     ZZ    -183.8992

 Total job time:  335.67s(wall), 9485.31s(cpu)
        *  Thank you very much for using Q-Chem.  Have a nice day.  *
