 Q-Chem 5.4, Q-Chem, Inc., Pleasanton, CA (2021)
 Q-Chem 5.4.0 for Intel X86 EM64T Linux

User input:
--------------------------------------------------------------
$molecule
0 1
C	-0.046070	-6.741404	-0.252767
C	-0.272935	-6.155638	-1.538656
C	0.141739	-5.791452	0.814966
C	-0.321083	-4.803786	-1.813042
H	-0.425592	-6.821518	-2.403318
C	0.091779	-4.378638	0.527566
C	-0.138909	-3.838032	-0.782769
C	0.273808	-3.413062	1.556632
C	-0.188483	-2.426473	-1.067868
C	0.226610	-2.059348	1.285436
C	0.000000	-1.478216	0.000000
H	0.379657	-1.394783	2.151019
C	0.390420	-6.187987	2.235891
C	0.522125	-3.798164	2.965540
N	0.562731	-5.170003	3.205600
C	-0.570244	-4.424987	-3.225760
C	-0.438407	-2.036627	-2.489646
N	-0.610438	-3.049156	-3.459662
O	0.455563	-7.353131	2.621768
O	0.683373	-2.986854	3.874608
O	-0.729367	-5.248946	-4.124059
O	-0.508697	-0.878829	-2.896516
C	0.806996	-5.563799	4.596910
H	0.813717	-6.664085	4.641640
H	0.013655	-5.147101	5.246567
H	1.775159	-5.148785	4.936739
C	-0.851572	-2.587487	-4.829729
H	-0.964204	-3.483329	-5.462387
H	-0.003956	-1.964972	-5.173914
H	-1.764390	-1.962932	-4.863360
C	0.000000	0.000000	0.000000
S	0.396411	0.687007	1.580530
C	1.215245	2.105322	0.904911
C	0.498850	0.864369	-0.985400
C	1.158885	2.007781	-0.493528
H	0.381046	0.660280	-2.059934
H	1.599289	2.770727	-1.152593
H	1.655514	2.868056	1.556025
H	0.857128	-7.361589	-0.303328
H	-0.912587	-7.361192	0.007933
H	1.063684	-1.478831	-0.187017
$end

$rem
JOBTYPE		SP
EXCHANGE	HF
CORRELATION	pRIMP2
BASIS		cc-pvtz
METHOD		rimp2
AUX_BASIS	rimp2-cc-pvtz
SOLVENT_METHOD	PCM
PURECART	11111
SYMMETRY	false
MEM_TOTAL	110000
SCF_CONVERGENCE = 6
THRESH=10
GUI = 2
$end

$solvent
dielectric 4.90
$end
--------------------------------------------------------------

             Standard Nuclear Orientation (Angstroms)
    I     Atom           X                Y                Z
 ----------------------------------------------------------------
    1      C      -0.0460700000    -6.7414040000    -0.2527670000
    2      C      -0.2729350000    -6.1556380000    -1.5386560000
    3      C       0.1417390000    -5.7914520000     0.8149660000
    4      C      -0.3210830000    -4.8037860000    -1.8130420000
    5      H      -0.4255920000    -6.8215180000    -2.4033180000
    6      C       0.0917790000    -4.3786380000     0.5275660000
    7      C      -0.1389090000    -3.8380320000    -0.7827690000
    8      C       0.2738080000    -3.4130620000     1.5566320000
    9      C      -0.1884830000    -2.4264730000    -1.0678680000
   10      C       0.2266100000    -2.0593480000     1.2854360000
   11      C       0.0000000000    -1.4782160000     0.0000000000
   12      H       0.3796570000    -1.3947830000     2.1510190000
   13      C       0.3904200000    -6.1879870000     2.2358910000
   14      C       0.5221250000    -3.7981640000     2.9655400000
   15      N       0.5627310000    -5.1700030000     3.2056000000
   16      C      -0.5702440000    -4.4249870000    -3.2257600000
   17      C      -0.4384070000    -2.0366270000    -2.4896460000
   18      N      -0.6104380000    -3.0491560000    -3.4596620000
   19      O       0.4555630000    -7.3531310000     2.6217680000
   20      O       0.6833730000    -2.9868540000     3.8746080000
   21      O      -0.7293670000    -5.2489460000    -4.1240590000
   22      O      -0.5086970000    -0.8788290000    -2.8965160000
   23      C       0.8069960000    -5.5637990000     4.5969100000
   24      H       0.8137170000    -6.6640850000     4.6416400000
   25      H       0.0136550000    -5.1471010000     5.2465670000
   26      H       1.7751590000    -5.1487850000     4.9367390000
   27      C      -0.8515720000    -2.5874870000    -4.8297290000
   28      H      -0.9642040000    -3.4833290000    -5.4623870000
   29      H      -0.0039560000    -1.9649720000    -5.1739140000
   30      H      -1.7643900000    -1.9629320000    -4.8633600000
   31      C       0.0000000000     0.0000000000     0.0000000000
   32      S       0.3964110000     0.6870070000     1.5805300000
   33      C       1.2152450000     2.1053220000     0.9049110000
   34      C       0.4988500000     0.8643690000    -0.9854000000
   35      C       1.1588850000     2.0077810000    -0.4935280000
   36      H       0.3810460000     0.6602800000    -2.0599340000
   37      H       1.5992890000     2.7707270000    -1.1525930000
   38      H       1.6555140000     2.8680560000     1.5560250000
   39      H       0.8571280000    -7.3615890000    -0.3033280000
   40      H      -0.9125870000    -7.3611920000     0.0079330000
   41      H       1.0636840000    -1.4788310000    -0.1870170000
 ----------------------------------------------------------------

   11   -1571.7167850215      5.79e-07  Convergence criterion met
 Total energy in the final basis set =    -1571.7167850215
        RIMP2         total energy =     -1576.3800807656 a.u.

                    Orbital Energies (a.u.)
 --------------------------------------------------------------

 Alpha MOs
 -- Occupied --
-91.9893 -20.5540 -20.5456 -20.5416 -20.5406 -15.6289 -15.6213 -11.3970
-11.3863 -11.3835 -11.3790 -11.3094 -11.3060 -11.3052 -11.3045 -11.2974
-11.2946 -11.2911 -11.2799 -11.2692 -11.2688 -11.2652 -11.2642 -11.2593
-11.2531 -11.2480 -11.2417  -8.9898  -6.6706  -6.6700  -6.6694  -1.4233
 -1.4122  -1.3997  -1.3913  -1.2643  -1.2555  -1.2322  -1.1897  -1.1505
 -1.1145  -1.0865  -1.0482  -0.9964  -0.9885  -0.9855  -0.9555  -0.9486
 -0.8975  -0.8899  -0.8776  -0.8605  -0.7953  -0.7815  -0.7722  -0.7593
 -0.7392  -0.7191  -0.7011  -0.6909  -0.6842  -0.6733  -0.6682  -0.6578
 -0.6489  -0.6475  -0.6376  -0.6317  -0.6312  -0.6293  -0.6237  -0.6049
 -0.5931  -0.5723  -0.5660  -0.5615  -0.5586  -0.5524  -0.5508  -0.5491
 -0.5478  -0.5428  -0.5174  -0.5147  -0.5072  -0.4856  -0.4748  -0.4594
 -0.4572  -0.4508  -0.4427  -0.4356  -0.4154  -0.4079  -0.3581  -0.3489
 -0.3329  -0.2771

          Ground-State Mulliken Net Atomic Charges

     Atom                 Charge (a.u.)
  ----------------------------------------
      1 C                    -0.084082
      2 C                    -0.031887
      3 C                    -0.106118
      4 C                    -0.121630
      5 H                     0.198951
      6 C                     0.023679
      7 C                     0.120365
      8 C                    -0.037584
      9 C                    -0.212106
     10 C                    -0.177697
     11 C                     0.171685
     12 H                     0.188136
     13 C                     0.340950
     14 C                     0.344034
     15 N                    -0.089747
     16 C                     0.357809
     17 C                     0.381083
     18 N                    -0.089320
     19 O                    -0.494624
     20 O                    -0.507825
     21 O                    -0.500635
     22 O                    -0.484851
     23 C                    -0.205039
     24 H                     0.139480
     25 H                     0.109481
     26 H                     0.109135
     27 C                    -0.198595
     28 H                     0.134268
     29 H                     0.111290
     30 H                     0.112427
     31 C                     0.018544
     32 S                    -0.002059
     33 C                    -0.216439
     34 C                    -0.194739
     35 C                    -0.227710
     36 H                     0.220561
     37 H                     0.191456
     38 H                     0.214890
     39 H                     0.137846
     40 H                     0.138101
     41 H                     0.218519
  ----------------------------------------
  Sum of atomic charges =     0.000000

                    Cartesian Multipole Moments
 -----------------------------------------------------------------
    Charge (ESU x 10^10)
                 0.0000
    Dipole Moment (Debye)
         X       1.6511      Y       1.6684      Z      -2.3065
       Tot       3.2908
    Quadrupole Moments (Debye-Ang)
        XX    -160.8056     XY       4.8101     YY    -179.9557
        XZ      -5.4452     YZ       9.7915     ZZ    -187.8404

 Total job time:  311.55s(wall), 9858.98s(cpu)
        *  Thank you very much for using Q-Chem.  Have a nice day.  *
