 Q-Chem 5.4, Q-Chem, Inc., Pleasanton, CA (2021)
 Q-Chem 5.4.0 for Intel X86 EM64T Linux

User input:
--------------------------------------------------------------
$molecule
0 1
C	-0.252767	-6.741404	0.046070
C	-1.538656	-6.155638	0.272935
C	0.814966	-5.791452	-0.141739
C	-1.813042	-4.803786	0.321083
H	-2.403318	-6.821518	0.425592
C	0.527566	-4.378638	-0.091779
C	-0.782769	-3.838032	0.138909
C	1.556632	-3.413062	-0.273808
C	-1.067868	-2.426473	0.188483
C	1.285436	-2.059348	-0.226610
C	0.000000	-1.478216	0.000000
H	2.151019	-1.394783	-0.379657
C	2.235891	-6.187987	-0.390420
C	2.965540	-3.798164	-0.522125
N	3.205600	-5.170003	-0.562731
C	-3.225760	-4.424987	0.570244
C	-2.489646	-2.036627	0.438407
N	-3.459662	-3.049156	0.610438
O	2.621768	-7.353131	-0.455563
O	3.874608	-2.986854	-0.683373
O	-4.124059	-5.248946	0.729367
O	-2.896516	-0.878829	0.508697
C	4.596910	-5.563799	-0.806996
H	4.641640	-6.664085	-0.813717
H	5.246567	-5.147101	-0.013655
H	4.936739	-5.148785	-1.775159
C	-4.829729	-2.587487	0.851572
H	-5.462387	-3.483329	0.964204
H	-5.173914	-1.964972	0.003956
H	-4.863360	-1.962932	1.764390
C	0.000000	0.000000	0.000000
S	0.137535	0.781156	1.580530
C	0.421895	2.393994	0.904911
C	0.173134	0.982857	-0.985400
C	0.402294	2.283058	-0.493528
H	0.132237	0.750786	-2.059934
H	0.555196	3.150621	-1.152593
H	0.574741	3.261310	1.556025
H	-0.303328	-7.361589	-0.857128
H	0.007933	-7.361192	0.912587
H	-0.187017	-1.478831	-1.063684
$end

$rem
JOBTYPE		SP
EXCHANGE	HF
CORRELATION	pRIMP2
BASIS		cc-pvtz
METHOD		rimp2
AUX_BASIS	rimp2-cc-pvtz
SOLVENT_METHOD	PCM
PURECART	11111
SYMMETRY	false
MEM_TOTAL	110000
SCF_CONVERGENCE = 6
THRESH=10
GUI = 2
$end

$solvent
dielectric 4.90
$end
--------------------------------------------------------------

             Standard Nuclear Orientation (Angstroms)
    I     Atom           X                Y                Z
 ----------------------------------------------------------------
    1      C      -0.2527670000    -6.7414040000     0.0460700000
    2      C      -1.5386560000    -6.1556380000     0.2729350000
    3      C       0.8149660000    -5.7914520000    -0.1417390000
    4      C      -1.8130420000    -4.8037860000     0.3210830000
    5      H      -2.4033180000    -6.8215180000     0.4255920000
    6      C       0.5275660000    -4.3786380000    -0.0917790000
    7      C      -0.7827690000    -3.8380320000     0.1389090000
    8      C       1.5566320000    -3.4130620000    -0.2738080000
    9      C      -1.0678680000    -2.4264730000     0.1884830000
   10      C       1.2854360000    -2.0593480000    -0.2266100000
   11      C       0.0000000000    -1.4782160000     0.0000000000
   12      H       2.1510190000    -1.3947830000    -0.3796570000
   13      C       2.2358910000    -6.1879870000    -0.3904200000
   14      C       2.9655400000    -3.7981640000    -0.5221250000
   15      N       3.2056000000    -5.1700030000    -0.5627310000
   16      C      -3.2257600000    -4.4249870000     0.5702440000
   17      C      -2.4896460000    -2.0366270000     0.4384070000
   18      N      -3.4596620000    -3.0491560000     0.6104380000
   19      O       2.6217680000    -7.3531310000    -0.4555630000
   20      O       3.8746080000    -2.9868540000    -0.6833730000
   21      O      -4.1240590000    -5.2489460000     0.7293670000
   22      O      -2.8965160000    -0.8788290000     0.5086970000
   23      C       4.5969100000    -5.5637990000    -0.8069960000
   24      H       4.6416400000    -6.6640850000    -0.8137170000
   25      H       5.2465670000    -5.1471010000    -0.0136550000
   26      H       4.9367390000    -5.1487850000    -1.7751590000
   27      C      -4.8297290000    -2.5874870000     0.8515720000
   28      H      -5.4623870000    -3.4833290000     0.9642040000
   29      H      -5.1739140000    -1.9649720000     0.0039560000
   30      H      -4.8633600000    -1.9629320000     1.7643900000
   31      C       0.0000000000     0.0000000000     0.0000000000
   32      S       0.1375350000     0.7811560000     1.5805300000
   33      C       0.4218950000     2.3939940000     0.9049110000
   34      C       0.1731340000     0.9828570000    -0.9854000000
   35      C       0.4022940000     2.2830580000    -0.4935280000
   36      H       0.1322370000     0.7507860000    -2.0599340000
   37      H       0.5551960000     3.1506210000    -1.1525930000
   38      H       0.5747410000     3.2613100000     1.5560250000
   39      H      -0.3033280000    -7.3615890000    -0.8571280000
   40      H       0.0079330000    -7.3611920000     0.9125870000
   41      H      -0.1870170000    -1.4788310000    -1.0636840000
 ----------------------------------------------------------------

   11   -1571.7493277947      5.44e-07  Convergence criterion met
 Total energy in the final basis set =    -1571.7493277947
        RIMP2         total energy =     -1576.4032697993 a.u.

                    Orbital Energies (a.u.)
 --------------------------------------------------------------

 Alpha MOs
 -- Occupied --
-91.9867 -20.5523 -20.5444 -20.5420 -20.5408 -15.6268 -15.6215 -11.3934
-11.3852 -11.3839 -11.3795 -11.3095 -11.3087 -11.3053 -11.3050 -11.2981
-11.2966 -11.2901 -11.2814 -11.2696 -11.2682 -11.2650 -11.2626 -11.2596
-11.2580 -11.2529 -11.2508  -8.9865  -6.6673  -6.6668  -6.6663  -1.4194
 -1.4125  -1.3972  -1.3917  -1.2620  -1.2557  -1.2299  -1.1865  -1.1528
 -1.1144  -1.0867  -1.0469  -0.9955  -0.9879  -0.9844  -0.9552  -0.9513
 -0.8966  -0.8878  -0.8768  -0.8601  -0.7949  -0.7770  -0.7709  -0.7624
 -0.7425  -0.7174  -0.7045  -0.6919  -0.6808  -0.6722  -0.6667  -0.6573
 -0.6472  -0.6443  -0.6362  -0.6331  -0.6311  -0.6278  -0.6219  -0.6047
 -0.5847  -0.5757  -0.5674  -0.5615  -0.5574  -0.5513  -0.5507  -0.5481
 -0.5465  -0.5437  -0.5200  -0.5161  -0.5092  -0.4825  -0.4750  -0.4617
 -0.4577  -0.4513  -0.4430  -0.4349  -0.4134  -0.4076  -0.3558  -0.3508
 -0.3281  -0.2903

          Ground-State Mulliken Net Atomic Charges

     Atom                 Charge (a.u.)
  ----------------------------------------
      1 C                    -0.084348
      2 C                    -0.030927
      3 C                    -0.111095
      4 C                    -0.122052
      5 H                     0.198875
      6 C                     0.017412
      7 C                     0.122023
      8 C                    -0.085935
      9 C                    -0.174525
     10 C                    -0.110679
     11 C                     0.166682
     12 H                     0.195797
     13 C                     0.343508
     14 C                     0.346648
     15 N                    -0.090220
     16 C                     0.357369
     17 C                     0.346184
     18 N                    -0.092983
     19 O                    -0.493893
     20 O                    -0.507111
     21 O                    -0.501588
     22 O                    -0.471031
     23 C                    -0.204755
     24 H                     0.139544
     25 H                     0.109443
     26 H                     0.108904
     27 C                    -0.196855
     28 H                     0.133050
     29 H                     0.111307
     30 H                     0.112193
     31 C                     0.003287
     32 S                     0.014606
     33 C                    -0.208951
     34 C                    -0.198580
     35 C                    -0.205275
     36 H                     0.186370
     37 H                     0.192055
     38 H                     0.210270
     39 H                     0.137622
     40 H                     0.137984
     41 H                     0.199670
  ----------------------------------------
  Sum of atomic charges =     0.000000

                    Cartesian Multipole Moments
 -----------------------------------------------------------------
    Charge (ESU x 10^10)
                 0.0000
    Dipole Moment (Debye)
         X      -0.6769      Y       2.1049      Z      -1.6808
       Tot       2.7774
    Quadrupole Moments (Debye-Ang)
        XX    -194.6031     XY      10.6903     YY    -177.4500
        XZ       5.7972     YZ       0.3874     ZZ    -157.3550

 Total job time:  503.90s(wall), 9255.53s(cpu)
        *  Thank you very much for using Q-Chem.  Have a nice day.  *
