 Q-Chem 5.4, Q-Chem, Inc., Pleasanton, CA (2021)
 Q-Chem 5.4.0 for Intel X86 EM64T Linux

User input:
--------------------------------------------------------------
$molecule
0 1
C	-0.043160	-6.741404	0.253280
C	-0.269777	-6.155638	1.539213
C	0.145543	-5.791452	-0.814295
C	-0.318377	-4.803786	1.813519
H	-0.422058	-6.821518	2.403941
C	0.094194	-4.378638	-0.527140
C	-0.137191	-3.838032	0.783072
C	0.275104	-3.413062	-1.556403
C	-0.188116	-2.426473	1.067932
C	0.226701	-2.059348	-1.285420
C	0.000000	-1.478216	0.000000
H	0.378931	-1.394783	-2.151147
C	0.397845	-6.187987	-2.234582
C	0.523637	-3.798164	-2.965273
N	0.567586	-5.170003	-3.204744
C	-0.567421	-4.424987	3.226257
C	-0.439541	-2.036627	2.489446
N	-0.609650	-3.049156	3.459801
O	0.468608	-7.353131	-2.619468
O	0.683034	-2.986854	-3.874668
O	-0.725131	-5.248946	4.124806
O	-0.512648	-0.878829	2.895819
C	0.813908	-5.563799	-4.595691
H	0.822891	-6.664085	-4.640022
H	1.781600	-5.147101	-4.934830
H	0.020360	-5.148785	-5.246157
C	-0.851649	-2.587487	4.829716
H	-0.962191	-3.483329	5.462742
H	-1.765865	-1.964972	4.863242
H	-0.005383	-1.962932	5.173521
C	0.000000	0.000000	0.000000
S	0.137535	0.781156	1.580530
C	0.421895	2.393994	0.904911
C	0.173134	0.982857	-0.985400
C	0.402294	2.283058	-0.493528
H	0.132237	0.750786	-2.059934
H	0.555196	3.150621	-1.152593
H	0.574741	3.261310	1.556025
H	-0.909181	-7.361589	-0.008120
H	0.860264	-7.361192	0.304668
H	-1.063500	-1.478831	-0.188062
$end

$rem
JOBTYPE		SP
EXCHANGE	HF
CORRELATION	pRIMP2
BASIS		cc-pvtz
METHOD		rimp2
AUX_BASIS	rimp2-cc-pvtz
SOLVENT_METHOD	PCM
PURECART	11111
SYMMETRY	false
MEM_TOTAL	110000
SCF_CONVERGENCE = 6
THRESH=10
GUI = 2
$end

$solvent
dielectric 4.90
$end
--------------------------------------------------------------

             Standard Nuclear Orientation (Angstroms)
    I     Atom           X                Y                Z
 ----------------------------------------------------------------
    1      C      -0.0431600000    -6.7414040000     0.2532800000
    2      C      -0.2697770000    -6.1556380000     1.5392130000
    3      C       0.1455430000    -5.7914520000    -0.8142950000
    4      C      -0.3183770000    -4.8037860000     1.8135190000
    5      H      -0.4220580000    -6.8215180000     2.4039410000
    6      C       0.0941940000    -4.3786380000    -0.5271400000
    7      C      -0.1371910000    -3.8380320000     0.7830720000
    8      C       0.2751040000    -3.4130620000    -1.5564030000
    9      C      -0.1881160000    -2.4264730000     1.0679320000
   10      C       0.2267010000    -2.0593480000    -1.2854200000
   11      C       0.0000000000    -1.4782160000     0.0000000000
   12      H       0.3789310000    -1.3947830000    -2.1511470000
   13      C       0.3978450000    -6.1879870000    -2.2345820000
   14      C       0.5236370000    -3.7981640000    -2.9652730000
   15      N       0.5675860000    -5.1700030000    -3.2047440000
   16      C      -0.5674210000    -4.4249870000     3.2262570000
   17      C      -0.4395410000    -2.0366270000     2.4894460000
   18      N      -0.6096500000    -3.0491560000     3.4598010000
   19      O       0.4686080000    -7.3531310000    -2.6194680000
   20      O       0.6830340000    -2.9868540000    -3.8746680000
   21      O      -0.7251310000    -5.2489460000     4.1248060000
   22      O      -0.5126480000    -0.8788290000     2.8958190000
   23      C       0.8139080000    -5.5637990000    -4.5956910000
   24      H       0.8228910000    -6.6640850000    -4.6400220000
   25      H       1.7816000000    -5.1471010000    -4.9348300000
   26      H       0.0203600000    -5.1487850000    -5.2461570000
   27      C      -0.8516490000    -2.5874870000     4.8297160000
   28      H      -0.9621910000    -3.4833290000     5.4627420000
   29      H      -1.7658650000    -1.9649720000     4.8632420000
   30      H      -0.0053830000    -1.9629320000     5.1735210000
   31      C       0.0000000000     0.0000000000     0.0000000000
   32      S       0.1375350000     0.7811560000     1.5805300000
   33      C       0.4218950000     2.3939940000     0.9049110000
   34      C       0.1731340000     0.9828570000    -0.9854000000
   35      C       0.4022940000     2.2830580000    -0.4935280000
   36      H       0.1322370000     0.7507860000    -2.0599340000
   37      H       0.5551960000     3.1506210000    -1.1525930000
   38      H       0.5747410000     3.2613100000     1.5560250000
   39      H      -0.9091810000    -7.3615890000    -0.0081200000
   40      H       0.8602640000    -7.3611920000     0.3046680000
   41      H      -1.0635000000    -1.4788310000    -0.1880620000
 ----------------------------------------------------------------

   11   -1571.7013083203      5.99e-07  Convergence criterion met
 Total energy in the final basis set =    -1571.7013083203
        RIMP2         total energy =     -1576.3688264719 a.u.

                    Orbital Energies (a.u.)
 --------------------------------------------------------------

 Alpha MOs
 -- Occupied --
-91.9699 -20.5570 -20.5470 -20.5428 -20.5419 -15.6312 -15.6225 -11.4010
-11.3878 -11.3848 -11.3804 -11.3131 -11.3103 -11.3095 -11.3065 -11.2996
-11.2950 -11.2921 -11.2712 -11.2706 -11.2671 -11.2651 -11.2602 -11.2555
-11.2546 -11.2465 -11.2378  -8.9699  -6.6504  -6.6491  -6.6482  -1.4318
 -1.4134  -1.4033  -1.3925  -1.2679  -1.2568  -1.2321  -1.1857  -1.1461
 -1.1164  -1.0870  -1.0498  -0.9946  -0.9897  -0.9750  -0.9568  -0.9480
 -0.8989  -0.8917  -0.8801  -0.8633  -0.7926  -0.7820  -0.7757  -0.7579
 -0.7319  -0.7256  -0.7020  -0.6896  -0.6882  -0.6774  -0.6690  -0.6594
 -0.6517  -0.6470  -0.6379  -0.6341  -0.6334  -0.6326  -0.6231  -0.6065
 -0.5901  -0.5724  -0.5669  -0.5630  -0.5561  -0.5544  -0.5533  -0.5502
 -0.5488  -0.5458  -0.5212  -0.5134  -0.5125  -0.4878  -0.4795  -0.4643
 -0.4564  -0.4451  -0.4382  -0.4204  -0.4088  -0.3901  -0.3557  -0.3392
 -0.3272  -0.2770

          Ground-State Mulliken Net Atomic Charges

     Atom                 Charge (a.u.)
  ----------------------------------------
      1 C                    -0.084217
      2 C                    -0.029189
      3 C                    -0.105404
      4 C                    -0.121658
      5 H                     0.200026
      6 C                     0.024252
      7 C                     0.130209
      8 C                    -0.093139
      9 C                    -0.176057
     10 C                    -0.158950
     11 C                     0.214608
     12 H                     0.191593
     13 C                     0.341905
     14 C                     0.349953
     15 N                    -0.090370
     16 C                     0.358459
     17 C                     0.379125
     18 N                    -0.088468
     19 O                    -0.493422
     20 O                    -0.507375
     21 O                    -0.499124
     22 O                    -0.453107
     23 C                    -0.204790
     24 H                     0.139766
     25 H                     0.109641
     26 H                     0.109362
     27 C                    -0.198672
     28 H                     0.135006
     29 H                     0.112756
     30 H                     0.113409
     31 C                    -0.035553
     32 S                     0.081144
     33 C                    -0.267962
     34 C                    -0.207299
     35 C                    -0.230567
     36 H                     0.178140
     37 H                     0.180956
     38 H                     0.201646
     39 H                     0.138735
     40 H                     0.139266
     41 H                     0.215365
  ----------------------------------------
  Sum of atomic charges =     0.000000

                    Cartesian Multipole Moments
 -----------------------------------------------------------------
    Charge (ESU x 10^10)
                 0.0000
    Dipole Moment (Debye)
         X      -1.1290      Y       0.1456      Z       0.9413
       Tot       1.4772
    Quadrupole Moments (Debye-Ang)
        XX    -163.2891     XY       4.4264     YY    -177.4414
        XZ       5.0563     YZ      -9.2522     ZZ    -185.4984

 Total job time:  311.64s(wall), 9361.06s(cpu)
        *  Thank you very much for using Q-Chem.  Have a nice day.  *
