 Q-Chem 5.4, Q-Chem, Inc., Pleasanton, CA (2021)
 Q-Chem 5.4.0 for Intel X86 EM64T Linux

User input:
--------------------------------------------------------------
$molecule
0 1
C	-0.256927	-6.741404	0.001478
C	-1.562675	-6.155638	0.001603
C	0.827197	-5.791452	0.001931
C	-1.841253	-4.803786	0.001374
H	-2.440709	-6.821518	0.001794
C	0.535488	-4.378638	0.001227
C	-0.794999	-3.838032	0.000872
C	1.580529	-3.413062	0.000658
C	-1.084374	-2.426473	0.000186
C	1.305258	-2.059348	0.000046
C	0.000000	-1.478216	0.000000
H	2.184267	-1.394783	-0.000369
C	2.269719	-6.187987	0.003770
C	3.011152	-3.798164	0.000767
N	3.254617	-5.170003	0.002465
C	-3.275775	-4.424987	0.001433
C	-2.527951	-2.036627	-0.000576
N	-3.513104	-3.049156	0.000400
O	2.661046	-7.353131	0.006623
O	3.934410	-2.986854	-0.000172
O	-4.188059	-5.248946	0.002151
O	-2.940845	-0.878829	-0.002006
C	4.667206	-5.563799	0.003509
H	4.712423	-6.664085	0.004658
H	5.169231	-5.147101	0.897610
H	5.169992	-5.148785	-0.890935
C	-4.904229	-2.587487	-0.000039
H	-5.546833	-3.483329	0.001022
H	-5.095998	-1.964972	-0.894545
H	-5.095858	-1.962932	0.893071
C	0.000000	0.000000	0.000000
S	0.509686	0.607733	1.580530
C	1.562368	1.862312	0.904911
C	0.641367	0.764613	-0.985400
C	1.489926	1.776040	-0.493528
H	0.489914	0.584081	-2.059934
H	2.056124	2.450920	-1.152593
H	2.128395	2.537007	1.556025
H	-0.149881	-7.361589	-0.896779
H	-0.150656	-7.361192	0.900100
H	0.000531	-1.478831	-1.080000
$end

$rem
JOBTYPE		SP
EXCHANGE	HF
CORRELATION	pRIMP2
BASIS		cc-pvtz
METHOD		rimp2
AUX_BASIS	rimp2-cc-pvtz
SOLVENT_METHOD	PCM
PURECART	11111
SYMMETRY	false
MEM_TOTAL	110000
SCF_CONVERGENCE = 6
THRESH=10
GUI = 2
$end

$solvent
dielectric 4.90
$end
--------------------------------------------------------------

             Standard Nuclear Orientation (Angstroms)
    I     Atom           X                Y                Z
 ----------------------------------------------------------------
    1      C      -0.2569270000    -6.7414040000     0.0014780000
    2      C      -1.5626750000    -6.1556380000     0.0016030000
    3      C       0.8271970000    -5.7914520000     0.0019310000
    4      C      -1.8412530000    -4.8037860000     0.0013740000
    5      H      -2.4407090000    -6.8215180000     0.0017940000
    6      C       0.5354880000    -4.3786380000     0.0012270000
    7      C      -0.7949990000    -3.8380320000     0.0008720000
    8      C       1.5805290000    -3.4130620000     0.0006580000
    9      C      -1.0843740000    -2.4264730000     0.0001860000
   10      C       1.3052580000    -2.0593480000     0.0000460000
   11      C       0.0000000000    -1.4782160000     0.0000000000
   12      H       2.1842670000    -1.3947830000    -0.0003690000
   13      C       2.2697190000    -6.1879870000     0.0037700000
   14      C       3.0111520000    -3.7981640000     0.0007670000
   15      N       3.2546170000    -5.1700030000     0.0024650000
   16      C      -3.2757750000    -4.4249870000     0.0014330000
   17      C      -2.5279510000    -2.0366270000    -0.0005760000
   18      N      -3.5131040000    -3.0491560000     0.0004000000
   19      O       2.6610460000    -7.3531310000     0.0066230000
   20      O       3.9344100000    -2.9868540000    -0.0001720000
   21      O      -4.1880590000    -5.2489460000     0.0021510000
   22      O      -2.9408450000    -0.8788290000    -0.0020060000
   23      C       4.6672060000    -5.5637990000     0.0035090000
   24      H       4.7124230000    -6.6640850000     0.0046580000
   25      H       5.1692310000    -5.1471010000     0.8976100000
   26      H       5.1699920000    -5.1487850000    -0.8909350000
   27      C      -4.9042290000    -2.5874870000    -0.0000390000
   28      H      -5.5468330000    -3.4833290000     0.0010220000
   29      H      -5.0959980000    -1.9649720000    -0.8945450000
   30      H      -5.0958580000    -1.9629320000     0.8930710000
   31      C       0.0000000000     0.0000000000     0.0000000000
   32      S       0.5096860000     0.6077330000     1.5805300000
   33      C       1.5623680000     1.8623120000     0.9049110000
   34      C       0.6413670000     0.7646130000    -0.9854000000
   35      C       1.4899260000     1.7760400000    -0.4935280000
   36      H       0.4899140000     0.5840810000    -2.0599340000
   37      H       2.0561240000     2.4509200000    -1.1525930000
   38      H       2.1283950000     2.5370070000     1.5560250000
   39      H      -0.1498810000    -7.3615890000    -0.8967790000
   40      H      -0.1506560000    -7.3611920000     0.9001000000
   41      H       0.0005310000    -1.4788310000    -1.0800000000
 ----------------------------------------------------------------

   11   -1571.7251443081      5.41e-07  Convergence criterion met
 Total energy in the final basis set =    -1571.7251443081
        RIMP2         total energy =     -1576.3857150545 a.u.

                    Orbital Energies (a.u.)
 --------------------------------------------------------------

 Alpha MOs
 -- Occupied --
-91.9889 -20.5521 -20.5437 -20.5411 -20.5402 -15.6262 -15.6208 -11.3926
-11.3843 -11.3829 -11.3788 -11.3076 -11.3051 -11.3036 -11.3022 -11.2945
-11.2916 -11.2890 -11.2864 -11.2677 -11.2667 -11.2645 -11.2639 -11.2623
-11.2592 -11.2541 -11.2516  -8.9890  -6.6698  -6.6691  -6.6687  -1.4188
 -1.4118  -1.3965  -1.3909  -1.2613  -1.2549  -1.2299  -1.1897  -1.1527
 -1.1128  -1.0847  -1.0453  -0.9977  -0.9893  -0.9870  -0.9547  -0.9495
 -0.8958  -0.8863  -0.8751  -0.8579  -0.7946  -0.7770  -0.7698  -0.7648
 -0.7426  -0.7168  -0.7041  -0.6909  -0.6820  -0.6711  -0.6659  -0.6567
 -0.6462  -0.6429  -0.6352  -0.6331  -0.6300  -0.6266  -0.6209  -0.6044
 -0.5832  -0.5769  -0.5707  -0.5608  -0.5563  -0.5508  -0.5503  -0.5476
 -0.5467  -0.5430  -0.5224  -0.5110  -0.5036  -0.4825  -0.4748  -0.4618
 -0.4583  -0.4506  -0.4422  -0.4336  -0.4128  -0.4069  -0.3610  -0.3474
 -0.3304  -0.2885

          Ground-State Mulliken Net Atomic Charges

     Atom                 Charge (a.u.)
  ----------------------------------------
      1 C                    -0.086014
      2 C                    -0.034537
      3 C                    -0.110950
      4 C                    -0.119424
      5 H                     0.197963
      6 C                     0.020054
      7 C                     0.122556
      8 C                    -0.112761
      9 C                    -0.192622
     10 C                    -0.090321
     11 C                     0.137167
     12 H                     0.200648
     13 C                     0.344076
     14 C                     0.342148
     15 N                    -0.089630
     16 C                     0.356046
     17 C                     0.352535
     18 N                    -0.091772
     19 O                    -0.495349
     20 O                    -0.508059
     21 O                    -0.501885
     22 O                    -0.469117
     23 C                    -0.205158
     24 H                     0.139471
     25 H                     0.109144
     26 H                     0.108676
     27 C                    -0.197616
     28 H                     0.133137
     29 H                     0.110965
     30 H                     0.111807
     31 C                     0.025618
     32 S                     0.014450
     33 C                    -0.186240
     34 C                    -0.206605
     35 C                    -0.192901
     36 H                     0.187210
     37 H                     0.194784
     38 H                     0.212491
     39 H                     0.136541
     40 H                     0.136871
     41 H                     0.196602
  ----------------------------------------
  Sum of atomic charges =     0.000000

                    Cartesian Multipole Moments
 -----------------------------------------------------------------
    Charge (ESU x 10^10)
                 0.0000
    Dipole Moment (Debye)
         X       0.7012      Y       2.5366      Z      -1.8133
       Tot       3.1960
    Quadrupole Moments (Debye-Ang)
        XX    -191.5389     XY      14.6515     YY    -183.8444
        XZ       0.5680     YZ       1.8746     ZZ    -155.9788

 Total job time:  334.84s(wall), 9705.73s(cpu)
        *  Thank you very much for using Q-Chem.  Have a nice day.  *
