 Q-Chem 5.4, Q-Chem, Inc., Pleasanton, CA (2021)
 Q-Chem 5.4.0 for Intel X86 EM64T Linux

User input:
--------------------------------------------------------------
$molecule
0 1
C	0.252767	-6.741404	-0.046070
C	1.538656	-6.155638	-0.272935
C	-0.814966	-5.791452	0.141739
C	1.813042	-4.803786	-0.321083
H	2.403318	-6.821518	-0.425592
C	-0.527566	-4.378638	0.091779
C	0.782769	-3.838032	-0.138909
C	-1.556632	-3.413062	0.273808
C	1.067868	-2.426473	-0.188483
C	-1.285436	-2.059348	0.226610
C	0.000000	-1.478216	0.000000
H	-2.151019	-1.394783	0.379657
C	-2.235891	-6.187987	0.390420
C	-2.965540	-3.798164	0.522125
N	-3.205600	-5.170003	0.562731
C	3.225760	-4.424987	-0.570244
C	2.489646	-2.036627	-0.438407
N	3.459662	-3.049156	-0.610438
O	-2.621768	-7.353131	0.455563
O	-3.874608	-2.986854	0.683373
O	4.124059	-5.248946	-0.729367
O	2.896516	-0.878829	-0.508697
C	-4.596910	-5.563799	0.806996
H	-4.641640	-6.664085	0.813717
H	-5.246567	-5.147101	0.013655
H	-4.936739	-5.148785	1.775159
C	4.829729	-2.587487	-0.851572
H	5.462387	-3.483329	-0.964204
H	5.173914	-1.964972	-0.003956
H	4.863360	-1.962932	-1.764390
C	0.000000	0.000000	0.000000
S	0.205093	0.766196	1.580530
C	0.628939	2.348114	0.904911
C	0.258137	0.964028	-0.985400
C	0.599745	2.239309	-0.493528
H	0.197169	0.736404	-2.059934
H	0.827678	3.090243	-1.152593
H	0.856796	3.198808	1.556025
H	0.303328	-7.361589	0.857128
H	-0.007933	-7.361192	-0.912587
H	0.187017	-1.478831	1.063684
$end

$rem
JOBTYPE		SP
EXCHANGE	HF
CORRELATION	pRIMP2
BASIS		cc-pvtz
METHOD		rimp2
AUX_BASIS	rimp2-cc-pvtz
SOLVENT_METHOD	PCM
PURECART	11111
SYMMETRY	false
MEM_TOTAL	110000
SCF_CONVERGENCE = 6
THRESH=10
GUI = 2
$end

$solvent
dielectric 4.90
$end
--------------------------------------------------------------

             Standard Nuclear Orientation (Angstroms)
    I     Atom           X                Y                Z
 ----------------------------------------------------------------
    1      C       0.2527670000    -6.7414040000    -0.0460700000
    2      C       1.5386560000    -6.1556380000    -0.2729350000
    3      C      -0.8149660000    -5.7914520000     0.1417390000
    4      C       1.8130420000    -4.8037860000    -0.3210830000
    5      H       2.4033180000    -6.8215180000    -0.4255920000
    6      C      -0.5275660000    -4.3786380000     0.0917790000
    7      C       0.7827690000    -3.8380320000    -0.1389090000
    8      C      -1.5566320000    -3.4130620000     0.2738080000
    9      C       1.0678680000    -2.4264730000    -0.1884830000
   10      C      -1.2854360000    -2.0593480000     0.2266100000
   11      C       0.0000000000    -1.4782160000     0.0000000000
   12      H      -2.1510190000    -1.3947830000     0.3796570000
   13      C      -2.2358910000    -6.1879870000     0.3904200000
   14      C      -2.9655400000    -3.7981640000     0.5221250000
   15      N      -3.2056000000    -5.1700030000     0.5627310000
   16      C       3.2257600000    -4.4249870000    -0.5702440000
   17      C       2.4896460000    -2.0366270000    -0.4384070000
   18      N       3.4596620000    -3.0491560000    -0.6104380000
   19      O      -2.6217680000    -7.3531310000     0.4555630000
   20      O      -3.8746080000    -2.9868540000     0.6833730000
   21      O       4.1240590000    -5.2489460000    -0.7293670000
   22      O       2.8965160000    -0.8788290000    -0.5086970000
   23      C      -4.5969100000    -5.5637990000     0.8069960000
   24      H      -4.6416400000    -6.6640850000     0.8137170000
   25      H      -5.2465670000    -5.1471010000     0.0136550000
   26      H      -4.9367390000    -5.1487850000     1.7751590000
   27      C       4.8297290000    -2.5874870000    -0.8515720000
   28      H       5.4623870000    -3.4833290000    -0.9642040000
   29      H       5.1739140000    -1.9649720000    -0.0039560000
   30      H       4.8633600000    -1.9629320000    -1.7643900000
   31      C       0.0000000000     0.0000000000     0.0000000000
   32      S       0.2050930000     0.7661960000     1.5805300000
   33      C       0.6289390000     2.3481140000     0.9049110000
   34      C       0.2581370000     0.9640280000    -0.9854000000
   35      C       0.5997450000     2.2393090000    -0.4935280000
   36      H       0.1971690000     0.7364040000    -2.0599340000
   37      H       0.8276780000     3.0902430000    -1.1525930000
   38      H       0.8567960000     3.1988080000     1.5560250000
   39      H       0.3033280000    -7.3615890000     0.8571280000
   40      H      -0.0079330000    -7.3611920000    -0.9125870000
   41      H       0.1870170000    -1.4788310000     1.0636840000
 ----------------------------------------------------------------

   11   -1571.7410566867      5.57e-07  Convergence criterion met
 Total energy in the final basis set =    -1571.7410566867
        RIMP2         total energy =     -1576.3963133949 a.u.

                    Orbital Energies (a.u.)
 --------------------------------------------------------------

 Alpha MOs
 -- Occupied --
-91.9930 -20.5509 -20.5442 -20.5415 -20.5401 -15.6264 -15.6209 -11.3924
-11.3849 -11.3834 -11.3787 -11.3082 -11.3076 -11.3045 -11.3044 -11.2963
-11.2909 -11.2880 -11.2844 -11.2689 -11.2679 -11.2636 -11.2626 -11.2592
-11.2538 -11.2526 -11.2509  -8.9927  -6.6735  -6.6730  -6.6724  -1.4186
 -1.4119  -1.3966  -1.3911  -1.2615  -1.2551  -1.2295  -1.1868  -1.1525
 -1.1136  -1.0865  -1.0461  -0.9960  -0.9874  -0.9846  -0.9547  -0.9510
 -0.8956  -0.8865  -0.8764  -0.8598  -0.7928  -0.7753  -0.7732  -0.7685
 -0.7392  -0.7160  -0.7040  -0.6911  -0.6764  -0.6701  -0.6672  -0.6569
 -0.6467  -0.6412  -0.6377  -0.6315  -0.6306  -0.6264  -0.6226  -0.6048
 -0.5844  -0.5747  -0.5666  -0.5610  -0.5565  -0.5510  -0.5498  -0.5476
 -0.5459  -0.5435  -0.5216  -0.5155  -0.5080  -0.4802  -0.4741  -0.4692
 -0.4568  -0.4505  -0.4424  -0.4344  -0.4130  -0.4072  -0.3562  -0.3511
 -0.3277  -0.2898

          Ground-State Mulliken Net Atomic Charges

     Atom                 Charge (a.u.)
  ----------------------------------------
      1 C                    -0.084554
      2 C                    -0.030334
      3 C                    -0.111984
      4 C                    -0.120503
      5 H                     0.198420
      6 C                     0.007206
      7 C                     0.118686
      8 C                    -0.073030
      9 C                    -0.149163
     10 C                    -0.160854
     11 C                     0.249677
     12 H                     0.191187
     13 C                     0.343692
     14 C                     0.351065
     15 N                    -0.090043
     16 C                     0.356995
     17 C                     0.353156
     18 N                    -0.090411
     19 O                    -0.494459
     20 O                    -0.507462
     21 O                    -0.501895
     22 O                    -0.470209
     23 C                    -0.204797
     24 H                     0.139404
     25 H                     0.109092
     26 H                     0.109054
     27 C                    -0.197451
     28 H                     0.133085
     29 H                     0.111668
     30 H                     0.111144
     31 C                    -0.078489
     32 S                     0.008527
     33 C                    -0.212556
     34 C                    -0.167598
     35 C                    -0.199152
     36 H                     0.186659
     37 H                     0.190674
     38 H                     0.213164
     39 H                     0.137486
     40 H                     0.137668
     41 H                     0.187233
  ----------------------------------------
  Sum of atomic charges =     0.000000

                    Cartesian Multipole Moments
 -----------------------------------------------------------------
    Charge (ESU x 10^10)
                 0.0000
    Dipole Moment (Debye)
         X       1.6295      Y       2.4896      Z      -0.4563
       Tot       3.0102
    Quadrupole Moments (Debye-Ang)
        XX    -194.4196     XY      -5.9359     YY    -178.4222
        XZ       5.9843     YZ       1.0451     ZZ    -157.1513

 Total job time:  304.21s(wall), 8737.62s(cpu)
        *  Thank you very much for using Q-Chem.  Have a nice day.  *
