 Q-Chem 5.4, Q-Chem, Inc., Pleasanton, CA (2021)
 Q-Chem 5.4.0 for Intel X86 EM64T Linux

User input:
--------------------------------------------------------------
$molecule
0 1
C	0.253280	-6.741404	0.043160
C	1.539213	-6.155638	0.269777
C	-0.814295	-5.791452	-0.145543
C	1.813519	-4.803786	0.318377
H	2.403941	-6.821518	0.422058
C	-0.527140	-4.378638	-0.094194
C	0.783072	-3.838032	0.137191
C	-1.556403	-3.413062	-0.275104
C	1.067932	-2.426473	0.188116
C	-1.285420	-2.059348	-0.226701
C	-0.000000	-1.478216	-0.000000
H	-2.151147	-1.394783	-0.378931
C	-2.234582	-6.187987	-0.397845
C	-2.965273	-3.798164	-0.523637
N	-3.204744	-5.170003	-0.567586
C	3.226257	-4.424987	0.567421
C	2.489446	-2.036627	0.439541
N	3.459801	-3.049156	0.609650
O	-2.619468	-7.353131	-0.468608
O	-3.874668	-2.986854	-0.683034
O	4.124806	-5.248946	0.725131
O	2.895819	-0.878829	0.512648
C	-4.595691	-5.563799	-0.813908
H	-4.640022	-6.664085	-0.822891
H	-4.934830	-5.147101	-1.781600
H	-5.246157	-5.148785	-0.020360
C	4.829716	-2.587487	0.851649
H	5.462742	-3.483329	0.962191
H	4.863242	-1.964972	1.765865
H	5.173521	-1.962932	0.005383
C	0.000000	0.000000	0.000000
S	-0.000201	0.793171	1.580530
C	-0.000228	2.430885	0.904911
C	-0.000168	0.997990	-0.985400
C	-0.000267	2.318231	-0.493528
H	-0.000145	0.762343	-2.059934
H	-0.000339	3.199164	-1.152593
H	-0.000311	3.311566	1.556025
H	-0.008120	-7.361589	0.909181
H	0.304668	-7.361192	-0.860264
H	-0.188062	-1.478831	1.063500
$end

$rem
JOBTYPE		SP
EXCHANGE	HF
CORRELATION	pRIMP2
BASIS		cc-pvtz
METHOD		rimp2
AUX_BASIS	rimp2-cc-pvtz
SOLVENT_METHOD	PCM
PURECART	11111
SYMMETRY	false
MEM_TOTAL	110000
SCF_CONVERGENCE = 6
THRESH=10
GUI = 2
$end

$solvent
dielectric 4.90
$end
--------------------------------------------------------------

             Standard Nuclear Orientation (Angstroms)
    I     Atom           X                Y                Z
 ----------------------------------------------------------------
    1      C       0.2532800000    -6.7414040000     0.0431600000
    2      C       1.5392130000    -6.1556380000     0.2697770000
    3      C      -0.8142950000    -5.7914520000    -0.1455430000
    4      C       1.8135190000    -4.8037860000     0.3183770000
    5      H       2.4039410000    -6.8215180000     0.4220580000
    6      C      -0.5271400000    -4.3786380000    -0.0941940000
    7      C       0.7830720000    -3.8380320000     0.1371910000
    8      C      -1.5564030000    -3.4130620000    -0.2751040000
    9      C       1.0679320000    -2.4264730000     0.1881160000
   10      C      -1.2854200000    -2.0593480000    -0.2267010000
   11      C       0.0000000000    -1.4782160000     0.0000000000
   12      H      -2.1511470000    -1.3947830000    -0.3789310000
   13      C      -2.2345820000    -6.1879870000    -0.3978450000
   14      C      -2.9652730000    -3.7981640000    -0.5236370000
   15      N      -3.2047440000    -5.1700030000    -0.5675860000
   16      C       3.2262570000    -4.4249870000     0.5674210000
   17      C       2.4894460000    -2.0366270000     0.4395410000
   18      N       3.4598010000    -3.0491560000     0.6096500000
   19      O      -2.6194680000    -7.3531310000    -0.4686080000
   20      O      -3.8746680000    -2.9868540000    -0.6830340000
   21      O       4.1248060000    -5.2489460000     0.7251310000
   22      O       2.8958190000    -0.8788290000     0.5126480000
   23      C      -4.5956910000    -5.5637990000    -0.8139080000
   24      H      -4.6400220000    -6.6640850000    -0.8228910000
   25      H      -4.9348300000    -5.1471010000    -1.7816000000
   26      H      -5.2461570000    -5.1487850000    -0.0203600000
   27      C       4.8297160000    -2.5874870000     0.8516490000
   28      H       5.4627420000    -3.4833290000     0.9621910000
   29      H       4.8632420000    -1.9649720000     1.7658650000
   30      H       5.1735210000    -1.9629320000     0.0053830000
   31      C       0.0000000000     0.0000000000     0.0000000000
   32      S      -0.0002010000     0.7931710000     1.5805300000
   33      C      -0.0002280000     2.4308850000     0.9049110000
   34      C      -0.0001680000     0.9979900000    -0.9854000000
   35      C      -0.0002670000     2.3182310000    -0.4935280000
   36      H      -0.0001450000     0.7623430000    -2.0599340000
   37      H      -0.0003390000     3.1991640000    -1.1525930000
   38      H      -0.0003110000     3.3115660000     1.5560250000
   39      H      -0.0081200000    -7.3615890000     0.9091810000
   40      H       0.3046680000    -7.3611920000    -0.8602640000
   41      H      -0.1880620000    -1.4788310000     1.0635000000
 ----------------------------------------------------------------

   11   -1571.7464152871      5.60e-07  Convergence criterion met
 Total energy in the final basis set =    -1571.7464152871
        RIMP2         total energy =     -1576.4003723122 a.u.

                    Orbital Energies (a.u.)
 --------------------------------------------------------------

 Alpha MOs
 -- Occupied --
-91.9920 -20.5516 -20.5443 -20.5422 -20.5408 -15.6265 -15.6215 -11.3929
-11.3850 -11.3840 -11.3794 -11.3088 -11.3084 -11.3049 -11.3047 -11.2964
-11.2951 -11.2895 -11.2823 -11.2698 -11.2681 -11.2649 -11.2625 -11.2595
-11.2531 -11.2529 -11.2508  -8.9916  -6.6725  -6.6720  -6.6714  -1.4190
 -1.4125  -1.3969  -1.3917  -1.2618  -1.2556  -1.2300  -1.1868  -1.1526
 -1.1142  -1.0869  -1.0466  -0.9960  -0.9878  -0.9844  -0.9550  -0.9511
 -0.8962  -0.8874  -0.8767  -0.8600  -0.7935  -0.7763  -0.7740  -0.7683
 -0.7373  -0.7170  -0.7042  -0.6914  -0.6780  -0.6704  -0.6676  -0.6572
 -0.6470  -0.6403  -0.6382  -0.6324  -0.6310  -0.6272  -0.6227  -0.6052
 -0.5846  -0.5753  -0.5665  -0.5613  -0.5572  -0.5512  -0.5504  -0.5480
 -0.5454  -0.5436  -0.5194  -0.5182  -0.5089  -0.4809  -0.4747  -0.4687
 -0.4575  -0.4509  -0.4429  -0.4349  -0.4132  -0.4076  -0.3559  -0.3513
 -0.3276  -0.2911

          Ground-State Mulliken Net Atomic Charges

     Atom                 Charge (a.u.)
  ----------------------------------------
      1 C                    -0.084519
      2 C                    -0.030837
      3 C                    -0.109824
      4 C                    -0.122026
      5 H                     0.198652
      6 C                     0.011910
      7 C                     0.122124
      8 C                    -0.091351
      9 C                    -0.183022
     10 C                    -0.118541
     11 C                     0.237949
     12 H                     0.192390
     13 C                     0.343549
     14 C                     0.351141
     15 N                    -0.090481
     16 C                     0.357335
     17 C                     0.355771
     18 N                    -0.092097
     19 O                    -0.493590
     20 O                    -0.507060
     21 O                    -0.501783
     22 O                    -0.471279
     23 C                    -0.204704
     24 H                     0.139519
     25 H                     0.109124
     26 H                     0.109241
     27 C                    -0.197090
     28 H                     0.132997
     29 H                     0.111649
     30 H                     0.111667
     31 C                    -0.065214
     32 S                     0.012994
     33 C                    -0.214865
     34 C                    -0.170289
     35 C                    -0.204519
     36 H                     0.189431
     37 H                     0.191342
     38 H                     0.212420
     39 H                     0.137760
     40 H                     0.137829
     41 H                     0.186294
  ----------------------------------------
  Sum of atomic charges =     0.000000

                    Cartesian Multipole Moments
 -----------------------------------------------------------------
    Charge (ESU x 10^10)
                 0.0000
    Dipole Moment (Debye)
         X       0.7357      Y       2.2612      Z      -0.0707
       Tot       2.3789
    Quadrupole Moments (Debye-Ang)
        XX    -195.0011     XY      -8.1402     YY    -176.9435
        XZ      -5.5366     YZ      -1.9575     ZZ    -157.1313

 Total job time:  315.38s(wall), 8950.53s(cpu)
        *  Thank you very much for using Q-Chem.  Have a nice day.  *
