 Q-Chem 5.4, Q-Chem, Inc., Pleasanton, CA (2021)
 Q-Chem 5.4.0 for Intel X86 EM64T Linux

User input:
--------------------------------------------------------------
$molecule
0 1
C	-0.046070	-6.741404	-0.252767
C	-0.272935	-6.155638	-1.538656
C	0.141739	-5.791452	0.814966
C	-0.321083	-4.803786	-1.813042
H	-0.425592	-6.821518	-2.403318
C	0.091779	-4.378638	0.527566
C	-0.138909	-3.838032	-0.782769
C	0.273808	-3.413062	1.556632
C	-0.188483	-2.426473	-1.067868
C	0.226610	-2.059348	1.285436
C	-0.000000	-1.478216	-0.000000
H	0.379657	-1.394783	2.151019
C	0.390420	-6.187987	2.235891
C	0.522125	-3.798164	2.965540
N	0.562731	-5.170003	3.205600
C	-0.570244	-4.424987	-3.225760
C	-0.438407	-2.036627	-2.489646
N	-0.610438	-3.049156	-3.459662
O	0.455563	-7.353131	2.621768
O	0.683373	-2.986854	3.874608
O	-0.729367	-5.248946	-4.124059
O	-0.508697	-0.878829	-2.896516
C	0.806996	-5.563799	4.596910
H	0.813717	-6.664085	4.641640
H	0.013655	-5.147101	5.246567
H	1.775159	-5.148785	4.936739
C	-0.851572	-2.587487	-4.829729
H	-0.964204	-3.483329	-5.462387
H	-0.003956	-1.964972	-5.173914
H	-1.764390	-1.962932	-4.863360
C	0.000000	0.000000	0.000000
S	0.607475	0.509994	1.580530
C	1.862020	1.562717	0.904911
C	0.764397	0.641624	-0.985400
C	1.775697	1.490335	-0.493528
H	0.583895	0.490135	-2.059934
H	2.450484	2.056643	-1.152593
H	2.536607	2.128872	1.556025
H	0.857128	-7.361589	-0.303328
H	-0.912587	-7.361192	0.007933
H	1.063684	-1.478831	-0.187017
$end

$rem
JOBTYPE		SP
EXCHANGE	HF
CORRELATION	pRIMP2
BASIS		cc-pvtz
METHOD		rimp2
AUX_BASIS	rimp2-cc-pvtz
SOLVENT_METHOD	PCM
PURECART	11111
SYMMETRY	false
MEM_TOTAL	110000
SCF_CONVERGENCE = 6
THRESH=10
GUI = 2
$end

$solvent
dielectric 4.90
$end
--------------------------------------------------------------

             Standard Nuclear Orientation (Angstroms)
    I     Atom           X                Y                Z
 ----------------------------------------------------------------
    1      C      -0.0460700000    -6.7414040000    -0.2527670000
    2      C      -0.2729350000    -6.1556380000    -1.5386560000
    3      C       0.1417390000    -5.7914520000     0.8149660000
    4      C      -0.3210830000    -4.8037860000    -1.8130420000
    5      H      -0.4255920000    -6.8215180000    -2.4033180000
    6      C       0.0917790000    -4.3786380000     0.5275660000
    7      C      -0.1389090000    -3.8380320000    -0.7827690000
    8      C       0.2738080000    -3.4130620000     1.5566320000
    9      C      -0.1884830000    -2.4264730000    -1.0678680000
   10      C       0.2266100000    -2.0593480000     1.2854360000
   11      C       0.0000000000    -1.4782160000     0.0000000000
   12      H       0.3796570000    -1.3947830000     2.1510190000
   13      C       0.3904200000    -6.1879870000     2.2358910000
   14      C       0.5221250000    -3.7981640000     2.9655400000
   15      N       0.5627310000    -5.1700030000     3.2056000000
   16      C      -0.5702440000    -4.4249870000    -3.2257600000
   17      C      -0.4384070000    -2.0366270000    -2.4896460000
   18      N      -0.6104380000    -3.0491560000    -3.4596620000
   19      O       0.4555630000    -7.3531310000     2.6217680000
   20      O       0.6833730000    -2.9868540000     3.8746080000
   21      O      -0.7293670000    -5.2489460000    -4.1240590000
   22      O      -0.5086970000    -0.8788290000    -2.8965160000
   23      C       0.8069960000    -5.5637990000     4.5969100000
   24      H       0.8137170000    -6.6640850000     4.6416400000
   25      H       0.0136550000    -5.1471010000     5.2465670000
   26      H       1.7751590000    -5.1487850000     4.9367390000
   27      C      -0.8515720000    -2.5874870000    -4.8297290000
   28      H      -0.9642040000    -3.4833290000    -5.4623870000
   29      H      -0.0039560000    -1.9649720000    -5.1739140000
   30      H      -1.7643900000    -1.9629320000    -4.8633600000
   31      C       0.0000000000     0.0000000000     0.0000000000
   32      S       0.6074750000     0.5099940000     1.5805300000
   33      C       1.8620200000     1.5627170000     0.9049110000
   34      C       0.7643970000     0.6416240000    -0.9854000000
   35      C       1.7756970000     1.4903350000    -0.4935280000
   36      H       0.5838950000     0.4901350000    -2.0599340000
   37      H       2.4504840000     2.0566430000    -1.1525930000
   38      H       2.5366070000     2.1288720000     1.5560250000
   39      H       0.8571280000    -7.3615890000    -0.3033280000
   40      H      -0.9125870000    -7.3611920000     0.0079330000
   41      H       1.0636840000    -1.4788310000    -0.1870170000
 ----------------------------------------------------------------

   11   -1571.6726728915      5.59e-07  Convergence criterion met
 Total energy in the final basis set =    -1571.6726728915
        RIMP2         total energy =     -1576.3460854574 a.u.

                    Orbital Energies (a.u.)
 --------------------------------------------------------------

 Alpha MOs
 -- Occupied --
-91.9889 -20.5540 -20.5450 -20.5393 -20.5387 -15.6285 -15.6197 -11.3966
-11.3857 -11.3813 -11.3769 -11.3074 -11.3031 -11.3024 -11.3001 -11.2962
-11.2943 -11.2878 -11.2824 -11.2676 -11.2656 -11.2640 -11.2607 -11.2585
-11.2521 -11.2515 -11.2503  -8.9905  -6.6712  -6.6704  -6.6701  -1.4234
 -1.4103  -1.3994  -1.3894  -1.2639  -1.2539  -1.2337  -1.1934  -1.1504
 -1.1124  -1.0847  -1.0471  -0.9981  -0.9933  -0.9873  -0.9546  -0.9470
 -0.8963  -0.8882  -0.8761  -0.8585  -0.7968  -0.7814  -0.7710  -0.7610
 -0.7382  -0.7211  -0.6997  -0.6921  -0.6851  -0.6722  -0.6673  -0.6567
 -0.6491  -0.6475  -0.6363  -0.6304  -0.6299  -0.6287  -0.6230  -0.6039
 -0.5943  -0.5738  -0.5712  -0.5616  -0.5586  -0.5520  -0.5501  -0.5481
 -0.5465  -0.5421  -0.5188  -0.5136  -0.5000  -0.4792  -0.4739  -0.4586
 -0.4551  -0.4503  -0.4411  -0.4339  -0.4149  -0.4067  -0.3589  -0.3456
 -0.3348  -0.2747

          Ground-State Mulliken Net Atomic Charges

     Atom                 Charge (a.u.)
  ----------------------------------------
      1 C                    -0.084143
      2 C                    -0.032999
      3 C                    -0.112454
      4 C                    -0.117613
      5 H                     0.198332
      6 C                     0.017565
      7 C                     0.117156
      8 C                    -0.028798
      9 C                    -0.221437
     10 C                    -0.180277
     11 C                     0.186045
     12 H                     0.191465
     13 C                     0.339445
     14 C                     0.343761
     15 N                    -0.088874
     16 C                     0.357053
     17 C                     0.382465
     18 N                    -0.089447
     19 O                    -0.497943
     20 O                    -0.511598
     21 O                    -0.500994
     22 O                    -0.486922
     23 C                    -0.205560
     24 H                     0.139225
     25 H                     0.108977
     26 H                     0.108514
     27 C                    -0.198597
     28 H                     0.134192
     29 H                     0.110994
     30 H                     0.112436
     31 C                    -0.049304
     32 S                     0.014721
     33 C                    -0.179560
     34 C                    -0.144357
     35 C                    -0.245735
     36 H                     0.227834
     37 H                     0.192389
     38 H                     0.216677
     39 H                     0.136638
     40 H                     0.136932
     41 H                     0.203794
  ----------------------------------------
  Sum of atomic charges =     0.000000

                    Cartesian Multipole Moments
 -----------------------------------------------------------------
    Charge (ESU x 10^10)
                 0.0000
    Dipole Moment (Debye)
         X       2.6141      Y       2.3005      Z      -2.3127
       Tot       4.1803
    Quadrupole Moments (Debye-Ang)
        XX    -156.6907     XY       6.2980     YY    -186.8945
        XZ      -5.1079     YZ      10.7157     ZZ    -187.9294

 Total job time:  303.49s(wall), 9304.68s(cpu)
        *  Thank you very much for using Q-Chem.  Have a nice day.  *
