 Q-Chem 5.4, Q-Chem, Inc., Pleasanton, CA (2021)
 Q-Chem 5.4.0 for Intel X86 EM64T Linux

User input:
--------------------------------------------------------------
$molecule
0 1
C	0.240927	-6.741404	-0.089263
C	1.467886	-6.155638	-0.535973
C	-0.777972	-5.791452	0.281103
C	1.729742	-4.803786	-0.631036
H	2.292903	-6.821518	-0.836458
C	-0.503614	-4.378638	0.181995
C	0.746756	-3.838032	-0.272725
C	-1.485437	-3.413062	0.539954
C	1.018915	-2.426473	-0.371053
C	-1.226557	-2.059348	0.446381
C	-0.000000	-1.478216	-0.000000
H	-2.052413	-1.394783	0.747410
C	-2.134128	-6.187987	0.772747
C	-2.829820	-3.798164	1.029154
N	-3.059182	-5.170003	1.110828
C	3.077731	-4.424987	-1.121728
C	2.375694	-2.036627	-0.864069
N	3.301101	-3.049156	-1.201928
O	-2.502830	-7.353131	0.903908
O	-3.697078	-2.986854	1.345809
O	3.934752	-5.248946	-1.434422
O	2.764177	-0.878829	-1.003943
C	-4.386939	-5.563799	1.592981
H	-4.429822	-6.664085	1.607367
H	-5.164489	-5.147101	0.924504
H	-4.553486	-5.148785	2.605446
C	4.608481	-2.587487	-1.677308
H	5.211969	-3.483329	-1.898089
H	5.094624	-1.964972	-0.902337
H	4.483092	-1.962932	-2.582098
C	0.000000	0.000000	0.000000
S	0.686805	0.396760	1.580530
C	2.105095	1.215640	0.904911
C	0.864201	0.499140	-0.985400
C	2.007514	1.159347	-0.493528
H	0.660136	0.381296	-2.059934
H	2.770388	1.599875	-1.152593
H	2.867745	1.656053	1.556025
H	0.447559	-7.361589	0.791434
H	-0.166282	-7.361192	-0.897345
H	0.368883	-1.478831	1.015049
$end

$rem
JOBTYPE		SP
EXCHANGE	HF
CORRELATION	pRIMP2
BASIS		cc-pvtz
METHOD		rimp2
AUX_BASIS	rimp2-cc-pvtz
SOLVENT_METHOD	PCM
PURECART	11111
SYMMETRY	false
MEM_TOTAL	110000
SCF_CONVERGENCE = 6
THRESH=10
GUI = 2
$end

$solvent
dielectric 4.90
$end
--------------------------------------------------------------

             Standard Nuclear Orientation (Angstroms)
    I     Atom           X                Y                Z
 ----------------------------------------------------------------
    1      C       0.2409270000    -6.7414040000    -0.0892630000
    2      C       1.4678860000    -6.1556380000    -0.5359730000
    3      C      -0.7779720000    -5.7914520000     0.2811030000
    4      C       1.7297420000    -4.8037860000    -0.6310360000
    5      H       2.2929030000    -6.8215180000    -0.8364580000
    6      C      -0.5036140000    -4.3786380000     0.1819950000
    7      C       0.7467560000    -3.8380320000    -0.2727250000
    8      C      -1.4854370000    -3.4130620000     0.5399540000
    9      C       1.0189150000    -2.4264730000    -0.3710530000
   10      C      -1.2265570000    -2.0593480000     0.4463810000
   11      C       0.0000000000    -1.4782160000     0.0000000000
   12      H      -2.0524130000    -1.3947830000     0.7474100000
   13      C      -2.1341280000    -6.1879870000     0.7727470000
   14      C      -2.8298200000    -3.7981640000     1.0291540000
   15      N      -3.0591820000    -5.1700030000     1.1108280000
   16      C       3.0777310000    -4.4249870000    -1.1217280000
   17      C       2.3756940000    -2.0366270000    -0.8640690000
   18      N       3.3011010000    -3.0491560000    -1.2019280000
   19      O      -2.5028300000    -7.3531310000     0.9039080000
   20      O      -3.6970780000    -2.9868540000     1.3458090000
   21      O       3.9347520000    -5.2489460000    -1.4344220000
   22      O       2.7641770000    -0.8788290000    -1.0039430000
   23      C      -4.3869390000    -5.5637990000     1.5929810000
   24      H      -4.4298220000    -6.6640850000     1.6073670000
   25      H      -5.1644890000    -5.1471010000     0.9245040000
   26      H      -4.5534860000    -5.1487850000     2.6054460000
   27      C       4.6084810000    -2.5874870000    -1.6773080000
   28      H       5.2119690000    -3.4833290000    -1.8980890000
   29      H       5.0946240000    -1.9649720000    -0.9023370000
   30      H       4.4830920000    -1.9629320000    -2.5820980000
   31      C       0.0000000000     0.0000000000     0.0000000000
   32      S       0.6868050000     0.3967600000     1.5805300000
   33      C       2.1050950000     1.2156400000     0.9049110000
   34      C       0.8642010000     0.4991400000    -0.9854000000
   35      C       2.0075140000     1.1593470000    -0.4935280000
   36      H       0.6601360000     0.3812960000    -2.0599340000
   37      H       2.7703880000     1.5998750000    -1.1525930000
   38      H       2.8677450000     1.6560530000     1.5560250000
   39      H       0.4475590000    -7.3615890000     0.7914340000
   40      H      -0.1662820000    -7.3611920000    -0.8973450000
   41      H       0.3688830000    -1.4788310000     1.0150490000
 ----------------------------------------------------------------

   11   -1571.6345236175      6.71e-07  Convergence criterion met
 Total energy in the final basis set =    -1571.6345236175
        RIMP2         total energy =     -1576.3135065424 a.u.

                    Orbital Energies (a.u.)
 --------------------------------------------------------------

 Alpha MOs
 -- Occupied --
-91.9765 -20.5508 -20.5449 -20.5366 -20.5354 -15.6289 -15.6174 -11.3960
-11.3854 -11.3787 -11.3737 -11.3060 -11.3018 -11.3010 -11.2979 -11.2957
-11.2880 -11.2786 -11.2740 -11.2669 -11.2650 -11.2616 -11.2570 -11.2570
-11.2554 -11.2509 -11.2501  -8.9785  -6.6594  -6.6585  -6.6581  -1.4259
 -1.4078  -1.4004  -1.3868  -1.2648  -1.2516  -1.2301  -1.1911  -1.1497
 -1.1097  -1.0820  -1.0432  -0.9943  -0.9921  -0.9870  -0.9535  -0.9498
 -0.8950  -0.8787  -0.8750  -0.8563  -0.7885  -0.7784  -0.7745  -0.7661
 -0.7388  -0.7190  -0.7017  -0.6897  -0.6822  -0.6695  -0.6649  -0.6553
 -0.6458  -0.6432  -0.6367  -0.6304  -0.6285  -0.6267  -0.6213  -0.6009
 -0.5820  -0.5769  -0.5680  -0.5630  -0.5549  -0.5522  -0.5491  -0.5460
 -0.5449  -0.5418  -0.5181  -0.5086  -0.4996  -0.4833  -0.4672  -0.4634
 -0.4518  -0.4390  -0.4367  -0.4315  -0.4154  -0.4038  -0.3497  -0.3366
 -0.3282  -0.2759

          Ground-State Mulliken Net Atomic Charges

     Atom                 Charge (a.u.)
  ----------------------------------------
      1 C                    -0.085638
      2 C                    -0.030489
      3 C                    -0.124869
      4 C                    -0.118619
      5 H                     0.197887
      6 C                     0.011642
      7 C                     0.124009
      8 C                    -0.091173
      9 C                    -0.181262
     10 C                    -0.131553
     11 C                     0.164047
     12 H                     0.193660
     13 C                     0.340003
     14 C                     0.347695
     15 N                    -0.088293
     16 C                     0.356533
     17 C                     0.392560
     18 N                    -0.086493
     19 O                    -0.501742
     20 O                    -0.512850
     21 O                    -0.501949
     22 O                    -0.473574
     23 C                    -0.205990
     24 H                     0.138608
     25 H                     0.108227
     26 H                     0.108253
     27 C                    -0.197568
     28 H                     0.135346
     29 H                     0.110888
     30 H                     0.110255
     31 C                    -0.166643
     32 S                    -0.030783
     33 C                    -0.189585
     34 C                    -0.053530
     35 C                    -0.117006
     36 H                     0.198695
     37 H                     0.178526
     38 H                     0.207983
     39 H                     0.135605
     40 H                     0.135674
     41 H                     0.193512
  ----------------------------------------
  Sum of atomic charges =     0.000000

                    Cartesian Multipole Moments
 -----------------------------------------------------------------
    Charge (ESU x 10^10)
                 0.0000
    Dipole Moment (Debye)
         X       5.2176      Y       2.7560      Z      -1.8771
       Tot       6.1921
    Quadrupole Moments (Debye-Ang)
        XX    -181.8026     XY      -5.8660     YY    -193.6866
        XZ      10.6407     YZ       2.4966     ZZ    -160.1011

 Total job time:  321.37s(wall), 9559.02s(cpu)
        *  Thank you very much for using Q-Chem.  Have a nice day.  *
