 Q-Chem 5.4, Q-Chem, Inc., Pleasanton, CA (2021)
 Q-Chem 5.4.0 for Intel X86 EM64T Linux

User input:
--------------------------------------------------------------
$molecule
0 1
C	-0.089263	-6.741404	-0.240927
C	-0.535973	-6.155638	-1.467886
C	0.281103	-5.791452	0.777972
C	-0.631036	-4.803786	-1.729742
H	-0.836458	-6.821518	-2.292903
C	0.181995	-4.378638	0.503614
C	-0.272725	-3.838032	-0.746756
C	0.539954	-3.413062	1.485437
C	-0.371053	-2.426473	-1.018915
C	0.446381	-2.059348	1.226557
C	0.000000	-1.478216	0.000000
H	0.747410	-1.394783	2.052413
C	0.772747	-6.187987	2.134128
C	1.029154	-3.798164	2.829820
N	1.110828	-5.170003	3.059182
C	-1.121728	-4.424987	-3.077731
C	-0.864069	-2.036627	-2.375694
N	-1.201928	-3.049156	-3.301101
O	0.903908	-7.353131	2.502830
O	1.345809	-2.986854	3.697078
O	-1.434422	-5.248946	-3.934752
O	-1.003943	-0.878829	-2.764177
C	1.592981	-5.563799	4.386939
H	1.607367	-6.664085	4.429822
H	0.924504	-5.147101	5.164489
H	2.605446	-5.148785	4.553486
C	-1.677308	-2.587487	-4.608481
H	-1.898089	-3.483329	-5.211969
H	-0.902337	-1.964972	-5.094624
H	-2.582098	-1.962932	-4.483092
C	0.000000	0.000000	0.000000
S	0.205093	0.766196	1.580530
C	0.628939	2.348114	0.904911
C	0.258137	0.964028	-0.985400
C	0.599745	2.239309	-0.493528
H	0.197169	0.736404	-2.059934
H	0.827678	3.090243	-1.152593
H	0.856796	3.198808	1.556025
H	0.791434	-7.361589	-0.447559
H	-0.897345	-7.361192	0.166282
H	1.015049	-1.478831	-0.368883
$end

$rem
JOBTYPE		SP
EXCHANGE	HF
CORRELATION	pRIMP2
BASIS		cc-pvtz
METHOD		rimp2
AUX_BASIS	rimp2-cc-pvtz
SOLVENT_METHOD	PCM
PURECART	11111
SYMMETRY	false
MEM_TOTAL	110000
SCF_CONVERGENCE = 6
THRESH=10
GUI = 2
$end

$solvent
dielectric 4.90
$end
--------------------------------------------------------------

             Standard Nuclear Orientation (Angstroms)
    I     Atom           X                Y                Z
 ----------------------------------------------------------------
    1      C      -0.0892630000    -6.7414040000    -0.2409270000
    2      C      -0.5359730000    -6.1556380000    -1.4678860000
    3      C       0.2811030000    -5.7914520000     0.7779720000
    4      C      -0.6310360000    -4.8037860000    -1.7297420000
    5      H      -0.8364580000    -6.8215180000    -2.2929030000
    6      C       0.1819950000    -4.3786380000     0.5036140000
    7      C      -0.2727250000    -3.8380320000    -0.7467560000
    8      C       0.5399540000    -3.4130620000     1.4854370000
    9      C      -0.3710530000    -2.4264730000    -1.0189150000
   10      C       0.4463810000    -2.0593480000     1.2265570000
   11      C       0.0000000000    -1.4782160000     0.0000000000
   12      H       0.7474100000    -1.3947830000     2.0524130000
   13      C       0.7727470000    -6.1879870000     2.1341280000
   14      C       1.0291540000    -3.7981640000     2.8298200000
   15      N       1.1108280000    -5.1700030000     3.0591820000
   16      C      -1.1217280000    -4.4249870000    -3.0777310000
   17      C      -0.8640690000    -2.0366270000    -2.3756940000
   18      N      -1.2019280000    -3.0491560000    -3.3011010000
   19      O       0.9039080000    -7.3531310000     2.5028300000
   20      O       1.3458090000    -2.9868540000     3.6970780000
   21      O      -1.4344220000    -5.2489460000    -3.9347520000
   22      O      -1.0039430000    -0.8788290000    -2.7641770000
   23      C       1.5929810000    -5.5637990000     4.3869390000
   24      H       1.6073670000    -6.6640850000     4.4298220000
   25      H       0.9245040000    -5.1471010000     5.1644890000
   26      H       2.6054460000    -5.1487850000     4.5534860000
   27      C      -1.6773080000    -2.5874870000    -4.6084810000
   28      H      -1.8980890000    -3.4833290000    -5.2119690000
   29      H      -0.9023370000    -1.9649720000    -5.0946240000
   30      H      -2.5820980000    -1.9629320000    -4.4830920000
   31      C       0.0000000000     0.0000000000     0.0000000000
   32      S       0.2050930000     0.7661960000     1.5805300000
   33      C       0.6289390000     2.3481140000     0.9049110000
   34      C       0.2581370000     0.9640280000    -0.9854000000
   35      C       0.5997450000     2.2393090000    -0.4935280000
   36      H       0.1971690000     0.7364040000    -2.0599340000
   37      H       0.8276780000     3.0902430000    -1.1525930000
   38      H       0.8567960000     3.1988080000     1.5560250000
   39      H       0.7914340000    -7.3615890000    -0.4475590000
   40      H      -0.8973450000    -7.3611920000     0.1662820000
   41      H       1.0150490000    -1.4788310000    -0.3688830000
 ----------------------------------------------------------------

   11   -1571.7350447060      5.87e-07  Convergence criterion met
 Total energy in the final basis set =    -1571.7350447060
        RIMP2         total energy =     -1576.3939469541 a.u.

                    Orbital Energies (a.u.)
 --------------------------------------------------------------

 Alpha MOs
 -- Occupied --
-91.9905 -20.5536 -20.5454 -20.5421 -20.5412 -15.6285 -15.6217 -11.3961
-11.3862 -11.3840 -11.3797 -11.3098 -11.3082 -11.3060 -11.3051 -11.2990
-11.2976 -11.2924 -11.2762 -11.2700 -11.2689 -11.2665 -11.2640 -11.2596
-11.2534 -11.2484 -11.2424  -8.9905  -6.6713  -6.6708  -6.6702  -1.4221
 -1.4127  -1.3991  -1.3918  -1.2638  -1.2560  -1.2319  -1.1883  -1.1510
 -1.1151  -1.0873  -1.0484  -0.9959  -0.9885  -0.9838  -0.9557  -0.9496
 -0.8978  -0.8901  -0.8778  -0.8610  -0.7958  -0.7807  -0.7721  -0.7589
 -0.7398  -0.7172  -0.7017  -0.6910  -0.6837  -0.6731  -0.6682  -0.6580
 -0.6486  -0.6469  -0.6381  -0.6321  -0.6315  -0.6291  -0.6236  -0.6051
 -0.5917  -0.5728  -0.5647  -0.5606  -0.5586  -0.5524  -0.5508  -0.5496
 -0.5481  -0.5433  -0.5166  -0.5147  -0.5119  -0.4866  -0.4756  -0.4617
 -0.4579  -0.4516  -0.4433  -0.4357  -0.4149  -0.4081  -0.3564  -0.3507
 -0.3320  -0.2789

          Ground-State Mulliken Net Atomic Charges

     Atom                 Charge (a.u.)
  ----------------------------------------
      1 C                    -0.084659
      2 C                    -0.030577
      3 C                    -0.106312
      4 C                    -0.125276
      5 H                     0.199294
      6 C                     0.023715
      7 C                     0.117341
      8 C                    -0.056079
      9 C                    -0.196961
     10 C                    -0.163560
     11 C                     0.172090
     12 H                     0.182459
     13 C                     0.341726
     14 C                     0.346884
     15 N                    -0.090087
     16 C                     0.358158
     17 C                     0.370833
     18 N                    -0.089798
     19 O                    -0.493874
     20 O                    -0.506861
     21 O                    -0.500863
     22 O                    -0.480960
     23 C                    -0.204826
     24 H                     0.139477
     25 H                     0.109669
     26 H                     0.109262
     27 C                    -0.198136
     28 H                     0.134035
     29 H                     0.111179
     30 H                     0.112343
     31 C                     0.007767
     32 S                    -0.002183
     33 C                    -0.213514
     34 C                    -0.160956
     35 C                    -0.233040
     36 H                     0.203533
     37 H                     0.189788
     38 H                     0.213494
     39 H                     0.138030
     40 H                     0.138267
     41 H                     0.219180
  ----------------------------------------
  Sum of atomic charges =     0.000000

                    Cartesian Multipole Moments
 -----------------------------------------------------------------
    Charge (ESU x 10^10)
                -0.0000
    Dipole Moment (Debye)
         X       0.9472      Y       1.6009      Z      -2.3114
       Tot       2.9669
    Quadrupole Moments (Debye-Ang)
        XX    -165.6631     XY       4.2622     YY    -177.4367
        XZ     -10.4811     YZ       9.2905     ZZ    -185.1537

 Total job time:  300.24s(wall), 8835.68s(cpu)
        *  Thank you very much for using Q-Chem.  Have a nice day.  *
