 Q-Chem 5.4, Q-Chem, Inc., Pleasanton, CA (2021)
 Q-Chem 5.4.0 for Intel X86 EM64T Linux

User input:
--------------------------------------------------------------
$molecule
0 1
C	0.241938	-6.741404	0.086486
C	1.468983	-6.155638	0.532960
C	-0.776651	-5.791452	-0.284733
C	1.730681	-4.803786	0.628455
H	2.294130	-6.821518	0.833086
C	-0.502775	-4.378638	-0.184300
C	0.747353	-3.838032	0.271086
C	-1.484986	-3.413062	-0.541191
C	1.019042	-2.426473	0.370703
C	-1.226525	-2.059348	-0.446468
C	0.000000	-1.478216	0.000000
H	-2.052666	-1.394783	-0.746717
C	-2.131549	-6.187987	-0.779832
C	-2.829295	-3.798164	-1.030596
N	-3.057496	-5.170003	-1.115461
C	3.078712	-4.424987	1.119034
C	2.375300	-2.036627	0.865151
N	3.301374	-3.049156	1.201176
O	-2.498300	-7.353131	-0.916355
O	-3.697195	-2.986854	-1.345486
O	3.936224	-5.248946	1.430379
O	2.762805	-0.878829	1.007714
C	-4.384539	-5.563799	-1.599576
H	-4.426636	-6.664085	-1.616121
H	-4.550487	-5.147101	-2.611458
H	-5.162921	-5.148785	-0.931037
C	4.608454	-2.587487	1.677382
H	5.212668	-3.483329	1.896168
H	4.482719	-1.964972	2.583531
H	5.093988	-1.962932	0.903674
C	0.000000	0.000000	0.000000
S	0.509686	0.607733	1.580530
C	1.562368	1.862312	0.904911
C	0.641367	0.764613	-0.985400
C	1.489926	1.776040	-0.493528
H	0.489914	0.584081	-2.059934
H	2.056124	2.450920	-1.152593
H	2.128395	2.537007	1.556025
H	-0.165874	-7.361589	0.893959
H	0.449423	-7.361192	-0.794290
H	-0.369880	-1.478831	1.014686
$end

$rem
JOBTYPE		SP
EXCHANGE	HF
CORRELATION	pRIMP2
BASIS		cc-pvtz
METHOD		rimp2
AUX_BASIS	rimp2-cc-pvtz
SOLVENT_METHOD	PCM
PURECART	11111
SYMMETRY	false
MEM_TOTAL	110000
SCF_CONVERGENCE = 6
THRESH=10
GUI = 2
$end

$solvent
dielectric 4.90
$end
--------------------------------------------------------------

             Standard Nuclear Orientation (Angstroms)
    I     Atom           X                Y                Z
 ----------------------------------------------------------------
    1      C       0.2419380000    -6.7414040000     0.0864860000
    2      C       1.4689830000    -6.1556380000     0.5329600000
    3      C      -0.7766510000    -5.7914520000    -0.2847330000
    4      C       1.7306810000    -4.8037860000     0.6284550000
    5      H       2.2941300000    -6.8215180000     0.8330860000
    6      C      -0.5027750000    -4.3786380000    -0.1843000000
    7      C       0.7473530000    -3.8380320000     0.2710860000
    8      C      -1.4849860000    -3.4130620000    -0.5411910000
    9      C       1.0190420000    -2.4264730000     0.3707030000
   10      C      -1.2265250000    -2.0593480000    -0.4464680000
   11      C       0.0000000000    -1.4782160000     0.0000000000
   12      H      -2.0526660000    -1.3947830000    -0.7467170000
   13      C      -2.1315490000    -6.1879870000    -0.7798320000
   14      C      -2.8292950000    -3.7981640000    -1.0305960000
   15      N      -3.0574960000    -5.1700030000    -1.1154610000
   16      C       3.0787120000    -4.4249870000     1.1190340000
   17      C       2.3753000000    -2.0366270000     0.8651510000
   18      N       3.3013740000    -3.0491560000     1.2011760000
   19      O      -2.4983000000    -7.3531310000    -0.9163550000
   20      O      -3.6971950000    -2.9868540000    -1.3454860000
   21      O       3.9362240000    -5.2489460000     1.4303790000
   22      O       2.7628050000    -0.8788290000     1.0077140000
   23      C      -4.3845390000    -5.5637990000    -1.5995760000
   24      H      -4.4266360000    -6.6640850000    -1.6161210000
   25      H      -4.5504870000    -5.1471010000    -2.6114580000
   26      H      -5.1629210000    -5.1487850000    -0.9310370000
   27      C       4.6084540000    -2.5874870000     1.6773820000
   28      H       5.2126680000    -3.4833290000     1.8961680000
   29      H       4.4827190000    -1.9649720000     2.5835310000
   30      H       5.0939880000    -1.9629320000     0.9036740000
   31      C       0.0000000000     0.0000000000     0.0000000000
   32      S       0.5096860000     0.6077330000     1.5805300000
   33      C       1.5623680000     1.8623120000     0.9049110000
   34      C       0.6413670000     0.7646130000    -0.9854000000
   35      C       1.4899260000     1.7760400000    -0.4935280000
   36      H       0.4899140000     0.5840810000    -2.0599340000
   37      H       2.0561240000     2.4509200000    -1.1525930000
   38      H       2.1283950000     2.5370070000     1.5560250000
   39      H      -0.1658740000    -7.3615890000     0.8939590000
   40      H       0.4494230000    -7.3611920000    -0.7942900000
   41      H      -0.3698800000    -1.4788310000     1.0146860000
 ----------------------------------------------------------------

   11   -1571.7052874129      5.94e-07  Convergence criterion met
 Total energy in the final basis set =    -1571.7052874129
        RIMP2         total energy =     -1576.3720132702 a.u.

                    Orbital Energies (a.u.)
 --------------------------------------------------------------

 Alpha MOs
 -- Occupied --
-91.9830 -20.5471 -20.5433 -20.5396 -20.5384 -15.6253 -15.6195 -11.3898
-11.3839 -11.3815 -11.3767 -11.3061 -11.3037 -11.3028 -11.3025 -11.2948
-11.2905 -11.2832 -11.2736 -11.2667 -11.2658 -11.2625 -11.2608 -11.2600
-11.2584 -11.2511 -11.2475  -8.9834  -6.6641  -6.6635  -6.6632  -1.4178
 -1.4103  -1.3958  -1.3895  -1.2605  -1.2536  -1.2274  -1.1855  -1.1503
 -1.1114  -1.0835  -1.0442  -0.9936  -0.9865  -0.9841  -0.9536  -0.9497
 -0.8936  -0.8832  -0.8752  -0.8582  -0.7881  -0.7746  -0.7735  -0.7673
 -0.7345  -0.7168  -0.7027  -0.6897  -0.6748  -0.6674  -0.6662  -0.6557
 -0.6455  -0.6394  -0.6357  -0.6302  -0.6294  -0.6255  -0.6229  -0.6024
 -0.5829  -0.5721  -0.5681  -0.5606  -0.5555  -0.5503  -0.5490  -0.5479
 -0.5465  -0.5423  -0.5163  -0.5093  -0.5023  -0.4791  -0.4695  -0.4650
 -0.4523  -0.4432  -0.4399  -0.4325  -0.4130  -0.4060  -0.3504  -0.3435
 -0.3286  -0.2867

          Ground-State Mulliken Net Atomic Charges

     Atom                 Charge (a.u.)
  ----------------------------------------
      1 C                    -0.083996
      2 C                    -0.033017
      3 C                    -0.117352
      4 C                    -0.118579
      5 H                     0.197844
      6 C                     0.011622
      7 C                     0.115532
      8 C                    -0.079372
      9 C                    -0.181370
     10 C                    -0.162400
     11 C                     0.217260
     12 H                     0.191409
     13 C                     0.342068
     14 C                     0.346749
     15 N                    -0.089493
     16 C                     0.354810
     17 C                     0.367630
     18 N                    -0.087803
     19 O                    -0.497099
     20 O                    -0.509222
     21 O                    -0.503144
     22 O                    -0.466572
     23 C                    -0.205210
     24 H                     0.139084
     25 H                     0.108548
     26 H                     0.108738
     27 C                    -0.197597
     28 H                     0.133338
     29 H                     0.110213
     30 H                     0.110608
     31 C                    -0.076766
     32 S                     0.008452
     33 C                    -0.148652
     34 C                    -0.144411
     35 C                    -0.212512
     36 H                     0.189383
     37 H                     0.188530
     38 H                     0.210957
     39 H                     0.136249
     40 H                     0.136375
     41 H                     0.189169
  ----------------------------------------
  Sum of atomic charges =     0.000000

                    Cartesian Multipole Moments
 -----------------------------------------------------------------
    Charge (ESU x 10^10)
                 0.0000
    Dipole Moment (Debye)
         X       2.9268      Y       2.8625      Z       0.2315
       Tot       4.1004
    Quadrupole Moments (Debye-Ang)
        XX    -187.3078     XY      -2.0476     YY    -186.3432
        XZ      -9.5487     YZ      -3.7206     ZZ    -159.8919

 Total job time:  317.99s(wall), 8703.54s(cpu)
        *  Thank you very much for using Q-Chem.  Have a nice day.  *
