 Q-Chem 5.4, Q-Chem, Inc., Pleasanton, CA (2021)
 Q-Chem 5.4.0 for Intel X86 EM64T Linux

User input:
--------------------------------------------------------------
$molecule
0 1
C	0.240927	-6.741404	-0.089263
C	1.467886	-6.155638	-0.535973
C	-0.777972	-5.791452	0.281103
C	1.729742	-4.803786	-0.631036
H	2.292903	-6.821518	-0.836458
C	-0.503614	-4.378638	0.181995
C	0.746756	-3.838032	-0.272725
C	-1.485437	-3.413062	0.539954
C	1.018915	-2.426473	-0.371053
C	-1.226557	-2.059348	0.446381
C	0.000000	-1.478216	0.000000
H	-2.052413	-1.394783	0.747410
C	-2.134128	-6.187987	0.772747
C	-2.829820	-3.798164	1.029154
N	-3.059182	-5.170003	1.110828
C	3.077731	-4.424987	-1.121728
C	2.375694	-2.036627	-0.864069
N	3.301101	-3.049156	-1.201928
O	-2.502830	-7.353131	0.903908
O	-3.697078	-2.986854	1.345809
O	3.934752	-5.248946	-1.434422
O	2.764177	-0.878829	-1.003943
C	-4.386939	-5.563799	1.592981
H	-4.429822	-6.664085	1.607367
H	-5.164489	-5.147101	0.924504
H	-4.553486	-5.148785	2.605446
C	4.608481	-2.587487	-1.677308
H	5.211969	-3.483329	-1.898089
H	5.094624	-1.964972	-0.902337
H	4.483092	-1.962932	-2.582098
C	0.000000	0.000000	0.000000
S	0.068929	0.790170	1.580530
C	0.211639	2.421655	0.904911
C	0.086813	0.994207	-0.985400
C	0.201782	2.309433	-0.493528
H	0.066299	0.759454	-2.059934
H	0.278488	3.187020	-1.152593
H	0.288312	3.298992	1.556025
H	0.447559	-7.361589	0.791434
H	-0.166282	-7.361192	-0.897345
H	0.368883	-1.478831	1.015049
$end

$rem
JOBTYPE		SP
EXCHANGE	HF
CORRELATION	pRIMP2
BASIS		cc-pvtz
METHOD		rimp2
AUX_BASIS	rimp2-cc-pvtz
SOLVENT_METHOD	PCM
PURECART	11111
SYMMETRY	false
MEM_TOTAL	110000
SCF_CONVERGENCE = 6
THRESH=10
GUI = 2
$end

$solvent
dielectric 4.90
$end
--------------------------------------------------------------

             Standard Nuclear Orientation (Angstroms)
    I     Atom           X                Y                Z
 ----------------------------------------------------------------
    1      C       0.2409270000    -6.7414040000    -0.0892630000
    2      C       1.4678860000    -6.1556380000    -0.5359730000
    3      C      -0.7779720000    -5.7914520000     0.2811030000
    4      C       1.7297420000    -4.8037860000    -0.6310360000
    5      H       2.2929030000    -6.8215180000    -0.8364580000
    6      C      -0.5036140000    -4.3786380000     0.1819950000
    7      C       0.7467560000    -3.8380320000    -0.2727250000
    8      C      -1.4854370000    -3.4130620000     0.5399540000
    9      C       1.0189150000    -2.4264730000    -0.3710530000
   10      C      -1.2265570000    -2.0593480000     0.4463810000
   11      C       0.0000000000    -1.4782160000     0.0000000000
   12      H      -2.0524130000    -1.3947830000     0.7474100000
   13      C      -2.1341280000    -6.1879870000     0.7727470000
   14      C      -2.8298200000    -3.7981640000     1.0291540000
   15      N      -3.0591820000    -5.1700030000     1.1108280000
   16      C       3.0777310000    -4.4249870000    -1.1217280000
   17      C       2.3756940000    -2.0366270000    -0.8640690000
   18      N       3.3011010000    -3.0491560000    -1.2019280000
   19      O      -2.5028300000    -7.3531310000     0.9039080000
   20      O      -3.6970780000    -2.9868540000     1.3458090000
   21      O       3.9347520000    -5.2489460000    -1.4344220000
   22      O       2.7641770000    -0.8788290000    -1.0039430000
   23      C      -4.3869390000    -5.5637990000     1.5929810000
   24      H      -4.4298220000    -6.6640850000     1.6073670000
   25      H      -5.1644890000    -5.1471010000     0.9245040000
   26      H      -4.5534860000    -5.1487850000     2.6054460000
   27      C       4.6084810000    -2.5874870000    -1.6773080000
   28      H       5.2119690000    -3.4833290000    -1.8980890000
   29      H       5.0946240000    -1.9649720000    -0.9023370000
   30      H       4.4830920000    -1.9629320000    -2.5820980000
   31      C       0.0000000000     0.0000000000     0.0000000000
   32      S       0.0689290000     0.7901700000     1.5805300000
   33      C       0.2116390000     2.4216550000     0.9049110000
   34      C       0.0868130000     0.9942070000    -0.9854000000
   35      C       0.2017820000     2.3094330000    -0.4935280000
   36      H       0.0662990000     0.7594540000    -2.0599340000
   37      H       0.2784880000     3.1870200000    -1.1525930000
   38      H       0.2883120000     3.2989920000     1.5560250000
   39      H       0.4475590000    -7.3615890000     0.7914340000
   40      H      -0.1662820000    -7.3611920000    -0.8973450000
   41      H       0.3688830000    -1.4788310000     1.0150490000
 ----------------------------------------------------------------

   11   -1571.7455239281      5.60e-07  Convergence criterion met
 Total energy in the final basis set =    -1571.7455239281
        RIMP2         total energy =     -1576.3996269863 a.u.

                    Orbital Energies (a.u.)
 --------------------------------------------------------------

 Alpha MOs
 -- Occupied --
-91.9937 -20.5513 -20.5444 -20.5419 -20.5405 -15.6266 -15.6213 -11.3928
-11.3850 -11.3837 -11.3791 -11.3086 -11.3085 -11.3048 -11.3047 -11.2965
-11.2943 -11.2894 -11.2822 -11.2694 -11.2681 -11.2647 -11.2628 -11.2594
-11.2528 -11.2519 -11.2507  -8.9933  -6.6742  -6.6737  -6.6731  -1.4190
 -1.4123  -1.3969  -1.3914  -1.2618  -1.2554  -1.2301  -1.1870  -1.1525
 -1.1140  -1.0870  -1.0466  -0.9963  -0.9877  -0.9841  -0.9550  -0.9509
 -0.8962  -0.8873  -0.8767  -0.8600  -0.7937  -0.7755  -0.7722  -0.7685
 -0.7402  -0.7156  -0.7039  -0.6913  -0.6769  -0.6708  -0.6674  -0.6571
 -0.6470  -0.6420  -0.6382  -0.6318  -0.6309  -0.6267  -0.6226  -0.6051
 -0.5850  -0.5749  -0.5657  -0.5610  -0.5567  -0.5512  -0.5500  -0.5478
 -0.5463  -0.5436  -0.5214  -0.5172  -0.5088  -0.4814  -0.4749  -0.4693
 -0.4578  -0.4511  -0.4428  -0.4348  -0.4131  -0.4075  -0.3567  -0.3514
 -0.3277  -0.2890

          Ground-State Mulliken Net Atomic Charges

     Atom                 Charge (a.u.)
  ----------------------------------------
      1 C                    -0.084897
      2 C                    -0.029747
      3 C                    -0.110840
      4 C                    -0.122664
      5 H                     0.198753
      6 C                     0.011731
      7 C                     0.122784
      8 C                    -0.080381
      9 C                    -0.157349
     10 C                    -0.152336
     11 C                     0.246494
     12 H                     0.195270
     13 C                     0.343762
     14 C                     0.350483
     15 N                    -0.090227
     16 C                     0.357456
     17 C                     0.347471
     18 N                    -0.090318
     19 O                    -0.494021
     20 O                    -0.507075
     21 O                    -0.501808
     22 O                    -0.469062
     23 C                    -0.204699
     24 H                     0.139382
     25 H                     0.109253
     26 H                     0.109166
     27 C                    -0.197148
     28 H                     0.133162
     29 H                     0.111706
     30 H                     0.111178
     31 C                    -0.082074
     32 S                     0.010819
     33 C                    -0.216246
     34 C                    -0.155184
     35 C                    -0.206511
     36 H                     0.186174
     37 H                     0.190949
     38 H                     0.212755
     39 H                     0.137626
     40 H                     0.137894
     41 H                     0.188324
  ----------------------------------------
  Sum of atomic charges =     0.000000

                    Cartesian Multipole Moments
 -----------------------------------------------------------------
    Charge (ESU x 10^10)
                 0.0000
    Dipole Moment (Debye)
         X       1.2905      Y       2.3060      Z      -0.6182
       Tot       2.7139
    Quadrupole Moments (Debye-Ang)
        XX    -192.0189     XY      -7.5615     YY    -177.2329
        XZ      10.8511     YZ       2.4880     ZZ    -160.1522

 Total job time:  316.04s(wall), 8890.79s(cpu)
        *  Thank you very much for using Q-Chem.  Have a nice day.  *
