 Q-Chem 5.4, Q-Chem, Inc., Pleasanton, CA (2021)
 Q-Chem 5.4.0 for Intel X86 EM64T Linux

User input:
--------------------------------------------------------------
$molecule
0 1
C	-0.197767	-6.741404	-0.164018
C	-1.198109	-6.155638	-1.003240
C	0.632428	-5.791452	0.533192
C	-1.411364	-4.803786	-1.182482
H	-1.870845	-6.821518	-1.567483
C	0.409419	-4.378638	0.345145
C	-0.609565	-3.838032	-0.510347
C	1.210332	-3.413062	1.016449
C	-0.830799	-2.426473	-0.696879
C	0.999856	-2.059348	0.839039
C	-0.000000	-1.478216	-0.000000
H	1.673483	-1.394783	1.403737
C	1.736282	-6.187987	1.461835
C	2.306183	-3.798164	1.936119
N	2.491597	-5.170003	2.093916
C	-2.510310	-4.424987	-2.104529
C	-1.936153	-2.036627	-1.625377
N	-2.691451	-3.049156	-2.257873
O	2.034222	-7.353131	1.715561
O	3.014044	-2.986854	2.528858
O	-3.209622	-5.248946	-2.690385
O	-2.251529	-0.878829	-1.891876
C	3.573032	-5.563799	3.002711
H	3.606932	-6.664085	3.032655
H	3.382888	-5.147101	4.010326
H	4.533125	-5.148785	2.640711
C	-3.756832	-2.587487	-3.152408
H	-4.249778	-3.483329	-3.564653
H	-3.328759	-1.964972	-3.960905
H	-4.477709	-1.962932	-2.591422
C	0.000000	0.000000	0.000000
S	0.686805	0.396760	1.580530
C	2.105095	1.215640	0.904911
C	0.864201	0.499140	-0.985400
C	2.007514	1.159347	-0.493528
H	0.660136	0.381296	-2.059934
H	2.770388	1.599875	-1.152593
H	2.867745	1.656053	1.556025
H	0.461623	-7.361589	-0.783314
H	-0.693983	-7.361192	0.592677
H	0.694617	-1.478831	-0.826987
$end

$rem
JOBTYPE		SP
EXCHANGE	HF
CORRELATION	pRIMP2
BASIS		cc-pvtz
METHOD		rimp2
AUX_BASIS	rimp2-cc-pvtz
SOLVENT_METHOD	PCM
PURECART	11111
SYMMETRY	false
MEM_TOTAL	110000
SCF_CONVERGENCE = 6
THRESH=10
GUI = 2
$end

$solvent
dielectric 4.90
$end
--------------------------------------------------------------

             Standard Nuclear Orientation (Angstroms)
    I     Atom           X                Y                Z
 ----------------------------------------------------------------
    1      C      -0.1977670000    -6.7414040000    -0.1640180000
    2      C      -1.1981090000    -6.1556380000    -1.0032400000
    3      C       0.6324280000    -5.7914520000     0.5331920000
    4      C      -1.4113640000    -4.8037860000    -1.1824820000
    5      H      -1.8708450000    -6.8215180000    -1.5674830000
    6      C       0.4094190000    -4.3786380000     0.3451450000
    7      C      -0.6095650000    -3.8380320000    -0.5103470000
    8      C       1.2103320000    -3.4130620000     1.0164490000
    9      C      -0.8307990000    -2.4264730000    -0.6968790000
   10      C       0.9998560000    -2.0593480000     0.8390390000
   11      C       0.0000000000    -1.4782160000     0.0000000000
   12      H       1.6734830000    -1.3947830000     1.4037370000
   13      C       1.7362820000    -6.1879870000     1.4618350000
   14      C       2.3061830000    -3.7981640000     1.9361190000
   15      N       2.4915970000    -5.1700030000     2.0939160000
   16      C      -2.5103100000    -4.4249870000    -2.1045290000
   17      C      -1.9361530000    -2.0366270000    -1.6253770000
   18      N      -2.6914510000    -3.0491560000    -2.2578730000
   19      O       2.0342220000    -7.3531310000     1.7155610000
   20      O       3.0140440000    -2.9868540000     2.5288580000
   21      O      -3.2096220000    -5.2489460000    -2.6903850000
   22      O      -2.2515290000    -0.8788290000    -1.8918760000
   23      C       3.5730320000    -5.5637990000     3.0027110000
   24      H       3.6069320000    -6.6640850000     3.0326550000
   25      H       3.3828880000    -5.1471010000     4.0103260000
   26      H       4.5331250000    -5.1487850000     2.6407110000
   27      C      -3.7568320000    -2.5874870000    -3.1524080000
   28      H      -4.2497780000    -3.4833290000    -3.5646530000
   29      H      -3.3287590000    -1.9649720000    -3.9609050000
   30      H      -4.4777090000    -1.9629320000    -2.5914220000
   31      C       0.0000000000     0.0000000000     0.0000000000
   32      S       0.6868050000     0.3967600000     1.5805300000
   33      C       2.1050950000     1.2156400000     0.9049110000
   34      C       0.8642010000     0.4991400000    -0.9854000000
   35      C       2.0075140000     1.1593470000    -0.4935280000
   36      H       0.6601360000     0.3812960000    -2.0599340000
   37      H       2.7703880000     1.5998750000    -1.1525930000
   38      H       2.8677450000     1.6560530000     1.5560250000
   39      H       0.4616230000    -7.3615890000    -0.7833140000
   40      H      -0.6939830000    -7.3611920000     0.5926770000
   41      H       0.6946170000    -1.4788310000    -0.8269870000
 ----------------------------------------------------------------

   11   -1571.6506923126      6.82e-07  Convergence criterion met
 Total energy in the final basis set =    -1571.6506923126
        RIMP2         total energy =     -1576.3294887093 a.u.

                    Orbital Energies (a.u.)
 --------------------------------------------------------------

 Alpha MOs
 -- Occupied --
-91.9927 -20.5526 -20.5431 -20.5381 -20.5373 -15.6260 -15.6186 -11.3926
-11.3835 -11.3793 -11.3761 -11.3062 -11.3018 -11.3007 -11.3002 -11.2987
-11.2923 -11.2837 -11.2779 -11.2740 -11.2649 -11.2624 -11.2613 -11.2589
-11.2586 -11.2581 -11.2489  -8.9942  -6.6746  -6.6740  -6.6738  -1.4189
 -1.4092  -1.3963  -1.3883  -1.2610  -1.2528  -1.2367  -1.1964  -1.1508
 -1.1104  -1.0829  -1.0445  -1.0048  -0.9992  -0.9856  -0.9536  -0.9466
 -0.8946  -0.8849  -0.8732  -0.8552  -0.7995  -0.7792  -0.7691  -0.7659
 -0.7397  -0.7203  -0.7021  -0.6922  -0.6856  -0.6694  -0.6648  -0.6553
 -0.6477  -0.6447  -0.6335  -0.6331  -0.6278  -0.6248  -0.6198  -0.6030
 -0.5901  -0.5824  -0.5703  -0.5603  -0.5555  -0.5510  -0.5496  -0.5484
 -0.5453  -0.5418  -0.5224  -0.5078  -0.4913  -0.4816  -0.4753  -0.4691
 -0.4556  -0.4495  -0.4399  -0.4313  -0.4125  -0.4052  -0.3583  -0.3419
 -0.3373  -0.2765

          Ground-State Mulliken Net Atomic Charges

     Atom                 Charge (a.u.)
  ----------------------------------------
      1 C                    -0.085842
      2 C                    -0.037078
      3 C                    -0.116803
      4 C                    -0.116929
      5 H                     0.196793
      6 C                     0.011399
      7 C                     0.100048
      8 C                    -0.063124
      9 C                    -0.172517
     10 C                    -0.186449
     11 C                     0.204984
     12 H                     0.192695
     13 C                     0.338544
     14 C                     0.342261
     15 N                    -0.088187
     16 C                     0.355620
     17 C                     0.358463
     18 N                    -0.090528
     19 O                    -0.500854
     20 O                    -0.514043
     21 O                    -0.502600
     22 O                    -0.472401
     23 C                    -0.205925
     24 H                     0.139217
     25 H                     0.108355
     26 H                     0.107749
     27 C                    -0.198493
     28 H                     0.133157
     29 H                     0.110322
     30 H                     0.112060
     31 C                    -0.097549
     32 S                     0.028209
     33 C                    -0.150971
     34 C                    -0.091218
     35 C                    -0.236248
     36 H                     0.199943
     37 H                     0.194840
     38 H                     0.219290
     39 H                     0.134083
     40 H                     0.134389
     41 H                     0.205338
  ----------------------------------------
  Sum of atomic charges =     0.000000

                    Cartesian Multipole Moments
 -----------------------------------------------------------------
    Charge (ESU x 10^10)
                 0.0000
    Dipole Moment (Debye)
         X       2.4423      Y       3.2253      Z      -2.1594
       Tot       4.5860
    Quadrupole Moments (Debye-Ang)
        XX    -173.3040     XY      12.6921     YY    -194.6867
        XZ     -16.0950     YZ       7.5915     ZZ    -169.2410

 Total job time:  344.05s(wall), 11614.57s(cpu)
        *  Thank you very much for using Q-Chem.  Have a nice day.  *
