 Q-Chem 5.4, Q-Chem, Inc., Pleasanton, CA (2021)
 Q-Chem 5.4.0 for Intel X86 EM64T Linux

User input:
--------------------------------------------------------------
$molecule
0 1
C	0.256927	-6.741404	-0.001478
C	1.562675	-6.155638	-0.001603
C	-0.827197	-5.791452	-0.001931
C	1.841253	-4.803786	-0.001374
H	2.440709	-6.821518	-0.001794
C	-0.535488	-4.378638	-0.001227
C	0.794999	-3.838032	-0.000872
C	-1.580529	-3.413062	-0.000658
C	1.084374	-2.426473	-0.000186
C	-1.305258	-2.059348	-0.000046
C	-0.000000	-1.478216	-0.000000
H	-2.184267	-1.394783	0.000369
C	-2.269719	-6.187987	-0.003770
C	-3.011152	-3.798164	-0.000767
N	-3.254617	-5.170003	-0.002465
C	3.275775	-4.424987	-0.001433
C	2.527951	-2.036627	0.000576
N	3.513104	-3.049156	-0.000400
O	-2.661046	-7.353131	-0.006623
O	-3.934410	-2.986854	0.000172
O	4.188059	-5.248946	-0.002151
O	2.940845	-0.878829	0.002006
C	-4.667206	-5.563799	-0.003509
H	-4.712423	-6.664085	-0.004658
H	-5.169231	-5.147101	-0.897610
H	-5.169992	-5.148785	0.890935
C	4.904229	-2.587487	0.000039
H	5.546833	-3.483329	-0.001022
H	5.095998	-1.964972	0.894545
H	5.095858	-1.962932	-0.893071
C	0.000000	0.000000	0.000000
S	0.607475	0.509994	1.580530
C	1.862020	1.562717	0.904911
C	0.764397	0.641624	-0.985400
C	1.775697	1.490335	-0.493528
H	0.583895	0.490135	-2.059934
H	2.450484	2.056643	-1.152593
H	2.536607	2.128872	1.556025
H	0.149881	-7.361589	0.896779
H	0.150656	-7.361192	-0.900100
H	-0.000531	-1.478831	1.080000
$end

$rem
JOBTYPE		SP
EXCHANGE	HF
CORRELATION	pRIMP2
BASIS		cc-pvtz
METHOD		rimp2
AUX_BASIS	rimp2-cc-pvtz
SOLVENT_METHOD	PCM
PURECART	11111
SYMMETRY	false
MEM_TOTAL	110000
SCF_CONVERGENCE = 6
THRESH=10
GUI = 2
$end

$solvent
dielectric 4.90
$end
--------------------------------------------------------------

             Standard Nuclear Orientation (Angstroms)
    I     Atom           X                Y                Z
 ----------------------------------------------------------------
    1      C       0.2569270000    -6.7414040000    -0.0014780000
    2      C       1.5626750000    -6.1556380000    -0.0016030000
    3      C      -0.8271970000    -5.7914520000    -0.0019310000
    4      C       1.8412530000    -4.8037860000    -0.0013740000
    5      H       2.4407090000    -6.8215180000    -0.0017940000
    6      C      -0.5354880000    -4.3786380000    -0.0012270000
    7      C       0.7949990000    -3.8380320000    -0.0008720000
    8      C      -1.5805290000    -3.4130620000    -0.0006580000
    9      C       1.0843740000    -2.4264730000    -0.0001860000
   10      C      -1.3052580000    -2.0593480000    -0.0000460000
   11      C       0.0000000000    -1.4782160000     0.0000000000
   12      H      -2.1842670000    -1.3947830000     0.0003690000
   13      C      -2.2697190000    -6.1879870000    -0.0037700000
   14      C      -3.0111520000    -3.7981640000    -0.0007670000
   15      N      -3.2546170000    -5.1700030000    -0.0024650000
   16      C       3.2757750000    -4.4249870000    -0.0014330000
   17      C       2.5279510000    -2.0366270000     0.0005760000
   18      N       3.5131040000    -3.0491560000    -0.0004000000
   19      O      -2.6610460000    -7.3531310000    -0.0066230000
   20      O      -3.9344100000    -2.9868540000     0.0001720000
   21      O       4.1880590000    -5.2489460000    -0.0021510000
   22      O       2.9408450000    -0.8788290000     0.0020060000
   23      C      -4.6672060000    -5.5637990000    -0.0035090000
   24      H      -4.7124230000    -6.6640850000    -0.0046580000
   25      H      -5.1692310000    -5.1471010000    -0.8976100000
   26      H      -5.1699920000    -5.1487850000     0.8909350000
   27      C       4.9042290000    -2.5874870000     0.0000390000
   28      H       5.5468330000    -3.4833290000    -0.0010220000
   29      H       5.0959980000    -1.9649720000     0.8945450000
   30      H       5.0958580000    -1.9629320000    -0.8930710000
   31      C       0.0000000000     0.0000000000     0.0000000000
   32      S       0.6074750000     0.5099940000     1.5805300000
   33      C       1.8620200000     1.5627170000     0.9049110000
   34      C       0.7643970000     0.6416240000    -0.9854000000
   35      C       1.7756970000     1.4903350000    -0.4935280000
   36      H       0.5838950000     0.4901350000    -2.0599340000
   37      H       2.4504840000     2.0566430000    -1.1525930000
   38      H       2.5366070000     2.1288720000     1.5560250000
   39      H       0.1498810000    -7.3615890000     0.8967790000
   40      H       0.1506560000    -7.3611920000    -0.9001000000
   41      H      -0.0005310000    -1.4788310000     1.0800000000
 ----------------------------------------------------------------

   11   -1571.6843939533      6.25e-07  Convergence criterion met
 Total energy in the final basis set =    -1571.6843939533
        RIMP2         total energy =     -1576.3547286511 a.u.

                    Orbital Energies (a.u.)
 --------------------------------------------------------------

 Alpha MOs
 -- Occupied --
-91.9847 -20.5461 -20.5432 -20.5381 -20.5367 -15.6252 -15.6182 -11.3895
-11.3837 -11.3800 -11.3750 -11.3051 -11.3016 -11.3008 -11.3007 -11.2944
-11.2943 -11.2792 -11.2668 -11.2661 -11.2650 -11.2635 -11.2628 -11.2577
-11.2569 -11.2502 -11.2452  -8.9856  -6.6664  -6.6656  -6.6652  -1.4177
 -1.4089  -1.3958  -1.3880  -1.2604  -1.2524  -1.2274  -1.1874  -1.1496
 -1.1098  -1.0822  -1.0429  -0.9934  -0.9875  -0.9859  -0.9530  -0.9492
 -0.8931  -0.8803  -0.8743  -0.8566  -0.7873  -0.7762  -0.7724  -0.7666
 -0.7366  -0.7159  -0.7023  -0.6892  -0.6740  -0.6669  -0.6653  -0.6550
 -0.6449  -0.6400  -0.6345  -0.6292  -0.6285  -0.6254  -0.6213  -0.6014
 -0.5816  -0.5738  -0.5671  -0.5605  -0.5537  -0.5494  -0.5481  -0.5469
 -0.5455  -0.5419  -0.5177  -0.5080  -0.4983  -0.4766  -0.4696  -0.4659
 -0.4515  -0.4406  -0.4368  -0.4314  -0.4128  -0.4049  -0.3505  -0.3469
 -0.3287  -0.2841

          Ground-State Mulliken Net Atomic Charges

     Atom                 Charge (a.u.)
  ----------------------------------------
      1 C                    -0.084403
      2 C                    -0.033834
      3 C                    -0.121098
      4 C                    -0.117776
      5 H                     0.197425
      6 C                     0.014484
      7 C                     0.113805
      8 C                    -0.082178
      9 C                    -0.165388
     10 C                    -0.159103
     11 C                     0.200388
     12 H                     0.191799
     13 C                     0.340924
     14 C                     0.346872
     15 N                    -0.088897
     16 C                     0.354540
     17 C                     0.367170
     18 N                    -0.086465
     19 O                    -0.499422
     20 O                    -0.511043
     21 O                    -0.503412
     22 O                    -0.468292
     23 C                    -0.205645
     24 H                     0.138853
     25 H                     0.108303
     26 H                     0.108392
     27 C                    -0.197744
     28 H                     0.133954
     29 H                     0.109911
     30 H                     0.109694
     31 C                    -0.109684
     32 S                    -0.007811
     33 C                    -0.142997
     34 C                    -0.136227
     35 C                    -0.158620
     36 H                     0.190282
     37 H                     0.182224
     38 H                     0.210620
     39 H                     0.135588
     40 H                     0.135700
     41 H                     0.189111
  ----------------------------------------
  Sum of atomic charges =     0.000000

                    Cartesian Multipole Moments
 -----------------------------------------------------------------
    Charge (ESU x 10^10)
                 0.0000
    Dipole Moment (Debye)
         X       4.0544      Y       3.1752      Z      -0.4082
       Tot       5.1659
    Quadrupole Moments (Debye-Ang)
        XX    -188.9265     XY      -3.5721     YY    -190.8445
        XZ       0.9681     YZ      -0.6520     ZZ    -155.9552

 Total job time:  307.39s(wall), 9413.66s(cpu)
        *  Thank you very much for using Q-Chem.  Have a nice day.  *
