 Q-Chem 5.4, Q-Chem, Inc., Pleasanton, CA (2021)
 Q-Chem 5.4.0 for Intel X86 EM64T Linux

User input:
--------------------------------------------------------------
$molecule
0 1
C	0.256927	-6.741404	-0.001478
C	1.562675	-6.155638	-0.001603
C	-0.827197	-5.791452	-0.001931
C	1.841253	-4.803786	-0.001374
H	2.440709	-6.821518	-0.001794
C	-0.535488	-4.378638	-0.001227
C	0.794999	-3.838032	-0.000872
C	-1.580529	-3.413062	-0.000658
C	1.084374	-2.426473	-0.000186
C	-1.305258	-2.059348	-0.000046
C	0.000000	-1.478216	0.000000
H	-2.184267	-1.394783	0.000369
C	-2.269719	-6.187987	-0.003770
C	-3.011152	-3.798164	-0.000767
N	-3.254617	-5.170003	-0.002465
C	3.275775	-4.424987	-0.001433
C	2.527951	-2.036627	0.000576
N	3.513104	-3.049156	-0.000400
O	-2.661046	-7.353131	-0.006623
O	-3.934410	-2.986854	0.000172
O	4.188059	-5.248946	-0.002151
O	2.940845	-0.878829	0.002006
C	-4.667206	-5.563799	-0.003509
H	-4.712423	-6.664085	-0.004658
H	-5.169231	-5.147101	-0.897610
H	-5.169992	-5.148785	0.890935
C	4.904229	-2.587487	0.000039
H	5.546833	-3.483329	-0.001022
H	5.095998	-1.964972	0.894545
H	5.095858	-1.962932	-0.893071
C	0.000000	0.000000	0.000000
S	0.137535	0.781156	1.580530
C	0.421895	2.393994	0.904911
C	0.173134	0.982857	-0.985400
C	0.402294	2.283058	-0.493528
H	0.132237	0.750786	-2.059934
H	0.555196	3.150621	-1.152593
H	0.574741	3.261310	1.556025
H	0.149881	-7.361589	0.896779
H	0.150656	-7.361192	-0.900100
H	-0.000531	-1.478831	1.080000
$end

$rem
JOBTYPE		SP
EXCHANGE	HF
CORRELATION	pRIMP2
BASIS		cc-pvtz
METHOD		rimp2
AUX_BASIS	rimp2-cc-pvtz
SOLVENT_METHOD	PCM
PURECART	11111
SYMMETRY	false
MEM_TOTAL	110000
SCF_CONVERGENCE = 6
THRESH=10
GUI = 2
$end

$solvent
dielectric 4.90
$end
--------------------------------------------------------------

             Standard Nuclear Orientation (Angstroms)
    I     Atom           X                Y                Z
 ----------------------------------------------------------------
    1      C       0.2569270000    -6.7414040000    -0.0014780000
    2      C       1.5626750000    -6.1556380000    -0.0016030000
    3      C      -0.8271970000    -5.7914520000    -0.0019310000
    4      C       1.8412530000    -4.8037860000    -0.0013740000
    5      H       2.4407090000    -6.8215180000    -0.0017940000
    6      C      -0.5354880000    -4.3786380000    -0.0012270000
    7      C       0.7949990000    -3.8380320000    -0.0008720000
    8      C      -1.5805290000    -3.4130620000    -0.0006580000
    9      C       1.0843740000    -2.4264730000    -0.0001860000
   10      C      -1.3052580000    -2.0593480000    -0.0000460000
   11      C       0.0000000000    -1.4782160000     0.0000000000
   12      H      -2.1842670000    -1.3947830000     0.0003690000
   13      C      -2.2697190000    -6.1879870000    -0.0037700000
   14      C      -3.0111520000    -3.7981640000    -0.0007670000
   15      N      -3.2546170000    -5.1700030000    -0.0024650000
   16      C       3.2757750000    -4.4249870000    -0.0014330000
   17      C       2.5279510000    -2.0366270000     0.0005760000
   18      N       3.5131040000    -3.0491560000    -0.0004000000
   19      O      -2.6610460000    -7.3531310000    -0.0066230000
   20      O      -3.9344100000    -2.9868540000     0.0001720000
   21      O       4.1880590000    -5.2489460000    -0.0021510000
   22      O       2.9408450000    -0.8788290000     0.0020060000
   23      C      -4.6672060000    -5.5637990000    -0.0035090000
   24      H      -4.7124230000    -6.6640850000    -0.0046580000
   25      H      -5.1692310000    -5.1471010000    -0.8976100000
   26      H      -5.1699920000    -5.1487850000     0.8909350000
   27      C       4.9042290000    -2.5874870000     0.0000390000
   28      H       5.5468330000    -3.4833290000    -0.0010220000
   29      H       5.0959980000    -1.9649720000     0.8945450000
   30      H       5.0958580000    -1.9629320000    -0.8930710000
   31      C       0.0000000000     0.0000000000     0.0000000000
   32      S       0.1375350000     0.7811560000     1.5805300000
   33      C       0.4218950000     2.3939940000     0.9049110000
   34      C       0.1731340000     0.9828570000    -0.9854000000
   35      C       0.4022940000     2.2830580000    -0.4935280000
   36      H       0.1322370000     0.7507860000    -2.0599340000
   37      H       0.5551960000     3.1506210000    -1.1525930000
   38      H       0.5747410000     3.2613100000     1.5560250000
   39      H       0.1498810000    -7.3615890000     0.8967790000
   40      H       0.1506560000    -7.3611920000    -0.9001000000
   41      H      -0.0005310000    -1.4788310000     1.0800000000
 ----------------------------------------------------------------

   11   -1571.7441217235      5.56e-07  Convergence criterion met
 Total energy in the final basis set =    -1571.7441217235
        RIMP2         total energy =     -1576.3986216265 a.u.

                    Orbital Energies (a.u.)
 --------------------------------------------------------------

 Alpha MOs
 -- Occupied --
-91.9928 -20.5511 -20.5442 -20.5418 -20.5404 -15.6264 -15.6212 -11.3925
-11.3848 -11.3836 -11.3789 -11.3082 -11.3081 -11.3046 -11.3044 -11.2962
-11.2927 -11.2886 -11.2834 -11.2692 -11.2679 -11.2640 -11.2625 -11.2594
-11.2534 -11.2527 -11.2509  -8.9924  -6.6732  -6.6727  -6.6721  -1.4187
 -1.4122  -1.3966  -1.3913  -1.2615  -1.2553  -1.2296  -1.1866  -1.1525
 -1.1137  -1.0866  -1.0463  -0.9959  -0.9875  -0.9845  -0.9548  -0.9511
 -0.8958  -0.8868  -0.8765  -0.8598  -0.7930  -0.7757  -0.7736  -0.7684
 -0.7383  -0.7164  -0.7041  -0.6912  -0.6770  -0.6701  -0.6673  -0.6570
 -0.6468  -0.6406  -0.6378  -0.6318  -0.6308  -0.6266  -0.6227  -0.6049
 -0.5844  -0.5749  -0.5666  -0.5611  -0.5568  -0.5510  -0.5501  -0.5478
 -0.5456  -0.5435  -0.5204  -0.5165  -0.5085  -0.4804  -0.4742  -0.4691
 -0.4570  -0.4506  -0.4426  -0.4345  -0.4130  -0.4073  -0.3562  -0.3510
 -0.3274  -0.2910

          Ground-State Mulliken Net Atomic Charges

     Atom                 Charge (a.u.)
  ----------------------------------------
      1 C                    -0.084647
      2 C                    -0.030701
      3 C                    -0.110620
      4 C                    -0.120426
      5 H                     0.198537
      6 C                     0.008344
      7 C                     0.120743
      8 C                    -0.081454
      9 C                    -0.166765
     10 C                    -0.143577
     11 C                     0.254496
     12 H                     0.190244
     13 C                     0.343618
     14 C                     0.351632
     15 N                    -0.090299
     16 C                     0.357051
     17 C                     0.354660
     18 N                    -0.091265
     19 O                    -0.494195
     20 O                    -0.507235
     21 O                    -0.501761
     22 O                    -0.471808
     23 C                    -0.204725
     24 H                     0.139417
     25 H                     0.109104
     26 H                     0.109148
     27 C                    -0.197317
     28 H                     0.133184
     29 H                     0.111564
     30 H                     0.111345
     31 C                    -0.073906
     32 S                     0.010651
     33 C                    -0.214479
     34 C                    -0.171166
     35 C                    -0.200883
     36 H                     0.188023
     37 H                     0.191133
     38 H                     0.212854
     39 H                     0.137599
     40 H                     0.137737
     41 H                     0.186143
  ----------------------------------------
  Sum of atomic charges =     0.000000

                    Cartesian Multipole Moments
 -----------------------------------------------------------------
    Charge (ESU x 10^10)
                 0.0000
    Dipole Moment (Debye)
         X       1.2789      Y       2.3947      Z      -0.2394
       Tot       2.7253
    Quadrupole Moments (Debye-Ang)
        XX    -195.8187     XY      -6.6857     YY    -177.6448
        XZ       0.2472     YZ      -0.4802     ZZ    -156.1349

 Total job time:  337.70s(wall), 9371.99s(cpu)
        *  Thank you very much for using Q-Chem.  Have a nice day.  *
