 Q-Chem 5.4, Q-Chem, Inc., Pleasanton, CA (2021)
 Q-Chem 5.4.0 for Intel X86 EM64T Linux

User input:
--------------------------------------------------------------
$molecule
0 1
C	0.043160	-6.741404	-0.253280
C	0.269777	-6.155638	-1.539213
C	-0.145543	-5.791452	0.814295
C	0.318377	-4.803786	-1.813519
H	0.422058	-6.821518	-2.403941
C	-0.094194	-4.378638	0.527140
C	0.137191	-3.838032	-0.783072
C	-0.275104	-3.413062	1.556403
C	0.188116	-2.426473	-1.067932
C	-0.226701	-2.059348	1.285420
C	0.000000	-1.478216	0.000000
H	-0.378931	-1.394783	2.151147
C	-0.397845	-6.187987	2.234582
C	-0.523637	-3.798164	2.965273
N	-0.567586	-5.170003	3.204744
C	0.567421	-4.424987	-3.226257
C	0.439541	-2.036627	-2.489446
N	0.609650	-3.049156	-3.459801
O	-0.468608	-7.353131	2.619468
O	-0.683034	-2.986854	3.874668
O	0.725131	-5.248946	-4.124806
O	0.512648	-0.878829	-2.895819
C	-0.813908	-5.563799	4.595691
H	-0.822891	-6.664085	4.640022
H	-1.781600	-5.147101	4.934830
H	-0.020360	-5.148785	5.246157
C	0.851649	-2.587487	-4.829716
H	0.962191	-3.483329	-5.462742
H	1.765865	-1.964972	-4.863242
H	0.005383	-1.962932	-5.173521
C	0.000000	0.000000	0.000000
S	0.068929	0.790170	1.580530
C	0.211639	2.421655	0.904911
C	0.086813	0.994207	-0.985400
C	0.201782	2.309433	-0.493528
H	0.066299	0.759454	-2.059934
H	0.278488	3.187020	-1.152593
H	0.288312	3.298992	1.556025
H	0.909181	-7.361589	0.008120
H	-0.860264	-7.361192	-0.304668
H	1.063500	-1.478831	0.188062
$end

$rem
JOBTYPE		SP
EXCHANGE	HF
CORRELATION	pRIMP2
BASIS		cc-pvtz
METHOD		rimp2
AUX_BASIS	rimp2-cc-pvtz
SOLVENT_METHOD	PCM
PURECART	11111
SYMMETRY	false
MEM_TOTAL	110000
SCF_CONVERGENCE = 6
THRESH=10
GUI = 2
$end

$solvent
dielectric 4.90
$end
--------------------------------------------------------------

             Standard Nuclear Orientation (Angstroms)
    I     Atom           X                Y                Z
 ----------------------------------------------------------------
    1      C       0.0431600000    -6.7414040000    -0.2532800000
    2      C       0.2697770000    -6.1556380000    -1.5392130000
    3      C      -0.1455430000    -5.7914520000     0.8142950000
    4      C       0.3183770000    -4.8037860000    -1.8135190000
    5      H       0.4220580000    -6.8215180000    -2.4039410000
    6      C      -0.0941940000    -4.3786380000     0.5271400000
    7      C       0.1371910000    -3.8380320000    -0.7830720000
    8      C      -0.2751040000    -3.4130620000     1.5564030000
    9      C       0.1881160000    -2.4264730000    -1.0679320000
   10      C      -0.2267010000    -2.0593480000     1.2854200000
   11      C       0.0000000000    -1.4782160000     0.0000000000
   12      H      -0.3789310000    -1.3947830000     2.1511470000
   13      C      -0.3978450000    -6.1879870000     2.2345820000
   14      C      -0.5236370000    -3.7981640000     2.9652730000
   15      N      -0.5675860000    -5.1700030000     3.2047440000
   16      C       0.5674210000    -4.4249870000    -3.2262570000
   17      C       0.4395410000    -2.0366270000    -2.4894460000
   18      N       0.6096500000    -3.0491560000    -3.4598010000
   19      O      -0.4686080000    -7.3531310000     2.6194680000
   20      O      -0.6830340000    -2.9868540000     3.8746680000
   21      O       0.7251310000    -5.2489460000    -4.1248060000
   22      O       0.5126480000    -0.8788290000    -2.8958190000
   23      C      -0.8139080000    -5.5637990000     4.5956910000
   24      H      -0.8228910000    -6.6640850000     4.6400220000
   25      H      -1.7816000000    -5.1471010000     4.9348300000
   26      H      -0.0203600000    -5.1487850000     5.2461570000
   27      C       0.8516490000    -2.5874870000    -4.8297160000
   28      H       0.9621910000    -3.4833290000    -5.4627420000
   29      H       1.7658650000    -1.9649720000    -4.8632420000
   30      H       0.0053830000    -1.9629320000    -5.1735210000
   31      C       0.0000000000     0.0000000000     0.0000000000
   32      S       0.0689290000     0.7901700000     1.5805300000
   33      C       0.2116390000     2.4216550000     0.9049110000
   34      C       0.0868130000     0.9942070000    -0.9854000000
   35      C       0.2017820000     2.3094330000    -0.4935280000
   36      H       0.0662990000     0.7594540000    -2.0599340000
   37      H       0.2784880000     3.1870200000    -1.1525930000
   38      H       0.2883120000     3.2989920000     1.5560250000
   39      H       0.9091810000    -7.3615890000     0.0081200000
   40      H      -0.8602640000    -7.3611920000    -0.3046680000
   41      H       1.0635000000    -1.4788310000     0.1880620000
 ----------------------------------------------------------------

   11   -1571.7344137665      5.94e-07  Convergence criterion met
 Total energy in the final basis set =    -1571.7344137665
        RIMP2         total energy =     -1576.3925441035 a.u.

                    Orbital Energies (a.u.)
 --------------------------------------------------------------

 Alpha MOs
 -- Occupied --
-91.9894 -20.5537 -20.5460 -20.5428 -20.5418 -15.6293 -15.6222 -11.3979
-11.3868 -11.3847 -11.3804 -11.3106 -11.3102 -11.3069 -11.3058 -11.2981
-11.2980 -11.2928 -11.2744 -11.2712 -11.2695 -11.2680 -11.2644 -11.2598
-11.2540 -11.2462 -11.2356  -8.9894  -6.6703  -6.6699  -6.6691  -1.4239
 -1.4132  -1.4002  -1.3924  -1.2649  -1.2565  -1.2323  -1.1879  -1.1503
 -1.1159  -1.0879  -1.0492  -0.9958  -0.9890  -0.9812  -0.9562  -0.9496
 -0.8985  -0.8913  -0.8787  -0.8620  -0.7953  -0.7810  -0.7732  -0.7593
 -0.7406  -0.7202  -0.7027  -0.6899  -0.6815  -0.6755  -0.6687  -0.6585
 -0.6495  -0.6475  -0.6390  -0.6326  -0.6320  -0.6297  -0.6243  -0.6058
 -0.5928  -0.5715  -0.5639  -0.5602  -0.5578  -0.5527  -0.5516  -0.5492
 -0.5486  -0.5430  -0.5172  -0.5152  -0.5126  -0.4868  -0.4748  -0.4602
 -0.4583  -0.4502  -0.4434  -0.4368  -0.4160  -0.4086  -0.3576  -0.3497
 -0.3318  -0.2786

          Ground-State Mulliken Net Atomic Charges

     Atom                 Charge (a.u.)
  ----------------------------------------
      1 C                    -0.083609
      2 C                    -0.030963
      3 C                    -0.104435
      4 C                    -0.123561
      5 H                     0.199312
      6 C                     0.023556
      7 C                     0.116899
      8 C                    -0.041995
      9 C                    -0.191311
     10 C                    -0.178348
     11 C                     0.201032
     12 H                     0.180835
     13 C                     0.342255
     14 C                     0.350540
     15 N                    -0.090256
     16 C                     0.358574
     17 C                     0.386211
     18 N                    -0.087318
     19 O                    -0.492827
     20 O                    -0.505869
     21 O                    -0.500405
     22 O                    -0.480838
     23 C                    -0.204625
     24 H                     0.139620
     25 H                     0.109674
     26 H                     0.109561
     27 C                    -0.198549
     28 H                     0.134433
     29 H                     0.111893
     30 H                     0.112140
     31 C                    -0.045226
     32 S                    -0.011769
     33 C                    -0.234779
     34 C                    -0.161873
     35 C                    -0.230920
     36 H                     0.221366
     37 H                     0.189202
     38 H                     0.214723
     39 H                     0.138346
     40 H                     0.138804
     41 H                     0.220497
  ----------------------------------------
  Sum of atomic charges =     0.000000

                    Cartesian Multipole Moments
 -----------------------------------------------------------------
    Charge (ESU x 10^10)
                -0.0000
    Dipole Moment (Debye)
         X       1.2242      Y       1.3165      Z      -2.0995
       Tot       2.7640
    Quadrupole Moments (Debye-Ang)
        XX    -163.3751     XY      -1.9299     YY    -175.5973
        XZ       5.3978     YZ       8.7947     ZZ    -187.6208

 Total job time:  297.31s(wall), 9049.29s(cpu)
        *  Thank you very much for using Q-Chem.  Have a nice day.  *
