 Q-Chem 5.4, Q-Chem, Inc., Pleasanton, CA (2021)
 Q-Chem 5.4.0 for Intel X86 EM64T Linux

User input:
--------------------------------------------------------------
$molecule
0 1
C	0.195868	-6.741404	-0.166281
C	1.196048	-6.155638	-1.005696
C	-0.634911	-5.791452	0.530233
C	1.409599	-4.803786	-1.184587
H	1.868538	-6.821518	-1.570232
C	-0.410996	-4.378638	0.343266
C	0.608444	-3.838032	-0.511683
C	-1.211179	-3.413062	1.015440
C	0.830559	-2.426473	-0.697165
C	-0.999915	-2.059348	0.838968
C	-0.000000	-1.478216	-0.000000
H	-1.673009	-1.394783	1.404302
C	-1.741129	-6.187987	1.456059
C	-2.307170	-3.798164	1.934944
N	-2.494766	-5.170003	2.090139
C	2.508468	-4.424987	-2.106725
C	1.936893	-2.036627	-1.624494
N	2.690936	-3.049156	-2.258486
O	-2.042736	-7.353131	1.705414
O	-3.013823	-2.986854	2.529122
O	3.206857	-5.248946	-2.693680
O	2.254108	-0.878829	-1.888802
C	-3.577543	-5.563799	2.997334
H	-3.612920	-6.664085	3.025519
H	-4.536833	-5.147101	2.635109
H	-3.387762	-5.148785	4.005702
C	3.756883	-2.587487	-3.152347
H	4.248464	-3.483329	-3.566218
H	4.478763	-1.964972	-2.590383
H	3.329599	-1.962932	-3.959687
C	0.000000	0.000000	0.000000
S	0.607475	0.509994	1.580530
C	1.862020	1.562717	0.904911
C	0.764397	0.641624	-0.985400
C	1.775697	1.490335	-0.493528
H	0.583895	0.490135	-2.059934
H	2.450484	2.056643	-1.152593
H	2.536607	2.128872	1.556025
H	0.691254	-7.361589	0.590631
H	-0.463164	-7.361192	-0.786357
H	0.693804	-1.478831	0.827669
$end

$rem
JOBTYPE		SP
EXCHANGE	HF
CORRELATION	pRIMP2
BASIS		cc-pvtz
METHOD		rimp2
AUX_BASIS	rimp2-cc-pvtz
SOLVENT_METHOD	PCM
PURECART	11111
SYMMETRY	false
MEM_TOTAL	110000
SCF_CONVERGENCE = 6
THRESH=10
GUI = 2
$end

$solvent
dielectric 4.90
$end
--------------------------------------------------------------

             Standard Nuclear Orientation (Angstroms)
    I     Atom           X                Y                Z
 ----------------------------------------------------------------
    1      C       0.1958680000    -6.7414040000    -0.1662810000
    2      C       1.1960480000    -6.1556380000    -1.0056960000
    3      C      -0.6349110000    -5.7914520000     0.5302330000
    4      C       1.4095990000    -4.8037860000    -1.1845870000
    5      H       1.8685380000    -6.8215180000    -1.5702320000
    6      C      -0.4109960000    -4.3786380000     0.3432660000
    7      C       0.6084440000    -3.8380320000    -0.5116830000
    8      C      -1.2111790000    -3.4130620000     1.0154400000
    9      C       0.8305590000    -2.4264730000    -0.6971650000
   10      C      -0.9999150000    -2.0593480000     0.8389680000
   11      C       0.0000000000    -1.4782160000     0.0000000000
   12      H      -1.6730090000    -1.3947830000     1.4043020000
   13      C      -1.7411290000    -6.1879870000     1.4560590000
   14      C      -2.3071700000    -3.7981640000     1.9349440000
   15      N      -2.4947660000    -5.1700030000     2.0901390000
   16      C       2.5084680000    -4.4249870000    -2.1067250000
   17      C       1.9368930000    -2.0366270000    -1.6244940000
   18      N       2.6909360000    -3.0491560000    -2.2584860000
   19      O      -2.0427360000    -7.3531310000     1.7054140000
   20      O      -3.0138230000    -2.9868540000     2.5291220000
   21      O       3.2068570000    -5.2489460000    -2.6936800000
   22      O       2.2541080000    -0.8788290000    -1.8888020000
   23      C      -3.5775430000    -5.5637990000     2.9973340000
   24      H      -3.6129200000    -6.6640850000     3.0255190000
   25      H      -4.5368330000    -5.1471010000     2.6351090000
   26      H      -3.3877620000    -5.1487850000     4.0057020000
   27      C       3.7568830000    -2.5874870000    -3.1523470000
   28      H       4.2484640000    -3.4833290000    -3.5662180000
   29      H       4.4787630000    -1.9649720000    -2.5903830000
   30      H       3.3295990000    -1.9629320000    -3.9596870000
   31      C       0.0000000000     0.0000000000     0.0000000000
   32      S       0.6074750000     0.5099940000     1.5805300000
   33      C       1.8620200000     1.5627170000     0.9049110000
   34      C       0.7643970000     0.6416240000    -0.9854000000
   35      C       1.7756970000     1.4903350000    -0.4935280000
   36      H       0.5838950000     0.4901350000    -2.0599340000
   37      H       2.4504840000     2.0566430000    -1.1525930000
   38      H       2.5366070000     2.1288720000     1.5560250000
   39      H       0.6912540000    -7.3615890000     0.5906310000
   40      H      -0.4631640000    -7.3611920000    -0.7863570000
   41      H       0.6938040000    -1.4788310000     0.8276690000
 ----------------------------------------------------------------

   11   -1571.6777478016      6.23e-07  Convergence criterion met
 Total energy in the final basis set =    -1571.6777478016
        RIMP2         total energy =     -1576.3459682644 a.u.

                    Orbital Energies (a.u.)
 --------------------------------------------------------------

 Alpha MOs
 -- Occupied --
-91.9803 -20.5531 -20.5448 -20.5386 -20.5378 -15.6287 -15.6189 -11.3963
-11.3854 -11.3805 -11.3761 -11.3057 -11.3039 -11.3023 -11.3011 -11.2972
-11.2953 -11.2779 -11.2700 -11.2670 -11.2645 -11.2643 -11.2629 -11.2603
-11.2579 -11.2508 -11.2481  -8.9819  -6.6628  -6.6620  -6.6615  -1.4245
 -1.4096  -1.3998  -1.3887  -1.2642  -1.2531  -1.2294  -1.1896  -1.1507
 -1.1113  -1.0833  -1.0445  -0.9958  -0.9896  -0.9871  -0.9542  -0.9484
 -0.8949  -0.8828  -0.8759  -0.8582  -0.7899  -0.7762  -0.7720  -0.7684
 -0.7386  -0.7218  -0.7025  -0.6874  -0.6784  -0.6716  -0.6656  -0.6563
 -0.6462  -0.6447  -0.6362  -0.6306  -0.6292  -0.6273  -0.6216  -0.6025
 -0.5850  -0.5768  -0.5675  -0.5609  -0.5554  -0.5519  -0.5503  -0.5473
 -0.5458  -0.5427  -0.5195  -0.5111  -0.5030  -0.4830  -0.4706  -0.4641
 -0.4530  -0.4481  -0.4406  -0.4329  -0.4149  -0.4054  -0.3508  -0.3445
 -0.3301  -0.2772

          Ground-State Mulliken Net Atomic Charges

     Atom                 Charge (a.u.)
  ----------------------------------------
      1 C                    -0.086171
      2 C                    -0.031123
      3 C                    -0.119963
      4 C                    -0.121860
      5 H                     0.197849
      6 C                     0.013246
      7 C                     0.123072
      8 C                    -0.085807
      9 C                    -0.180407
     10 C                    -0.144485
     11 C                     0.182704
     12 H                     0.190874
     13 C                     0.342204
     14 C                     0.346431
     15 N                    -0.088956
     16 C                     0.357508
     17 C                     0.391728
     18 N                    -0.085659
     19 O                    -0.498787
     20 O                    -0.509691
     21 O                    -0.501720
     22 O                    -0.479697
     23 C                    -0.205528
     24 H                     0.138966
     25 H                     0.108616
     26 H                     0.108612
     27 C                    -0.198530
     28 H                     0.134755
     29 H                     0.111479
     30 H                     0.110960
     31 C                    -0.147315
     32 S                    -0.015163
     33 C                    -0.164842
     34 C                    -0.039257
     35 C                    -0.214586
     36 H                     0.192206
     37 H                     0.186639
     38 H                     0.214683
     39 H                     0.135969
     40 H                     0.136202
     41 H                     0.194844
  ----------------------------------------
  Sum of atomic charges =     0.000000

                    Cartesian Multipole Moments
 -----------------------------------------------------------------
    Charge (ESU x 10^10)
                 0.0000
    Dipole Moment (Debye)
         X       4.1860      Y       2.7745      Z      -2.0396
       Tot       5.4204
    Quadrupole Moments (Debye-Ang)
        XX    -174.5289     XY      -2.3287     YY    -188.5838
        XZ      16.6089     YZ       5.9636     ZZ    -169.8438

 Total job time:  464.70s(wall), 9081.32s(cpu)
        *  Thank you very much for using Q-Chem.  Have a nice day.  *
