 Q-Chem 5.4, Q-Chem, Inc., Pleasanton, CA (2021)
 Q-Chem 5.4.0 for Intel X86 EM64T Linux

User input:
--------------------------------------------------------------
$molecule
0 1
C	-0.252767	-6.741404	0.046070
C	-1.538656	-6.155638	0.272935
C	0.814966	-5.791452	-0.141739
C	-1.813042	-4.803786	0.321083
H	-2.403318	-6.821518	0.425592
C	0.527566	-4.378638	-0.091779
C	-0.782769	-3.838032	0.138909
C	1.556632	-3.413062	-0.273808
C	-1.067868	-2.426473	0.188483
C	1.285436	-2.059348	-0.226610
C	-0.000000	-1.478216	-0.000000
H	2.151019	-1.394783	-0.379657
C	2.235891	-6.187987	-0.390420
C	2.965540	-3.798164	-0.522125
N	3.205600	-5.170003	-0.562731
C	-3.225760	-4.424987	0.570244
C	-2.489646	-2.036627	0.438407
N	-3.459662	-3.049156	0.610438
O	2.621768	-7.353131	-0.455563
O	3.874608	-2.986854	-0.683373
O	-4.124059	-5.248946	0.729367
O	-2.896516	-0.878829	0.508697
C	4.596910	-5.563799	-0.806996
H	4.641640	-6.664085	-0.813717
H	5.246567	-5.147101	-0.013655
H	4.936739	-5.148785	-1.775159
C	-4.829729	-2.587487	0.851572
H	-5.462387	-3.483329	0.964204
H	-5.173914	-1.964972	0.003956
H	-4.863360	-1.962932	1.764390
C	0.000000	0.000000	0.000000
S	-0.000201	0.793171	1.580530
C	-0.000228	2.430885	0.904911
C	-0.000168	0.997990	-0.985400
C	-0.000267	2.318231	-0.493528
H	-0.000145	0.762343	-2.059934
H	-0.000339	3.199164	-1.152593
H	-0.000311	3.311566	1.556025
H	-0.303328	-7.361589	-0.857128
H	0.007933	-7.361192	0.912587
H	-0.187017	-1.478831	-1.063684
$end

$rem
JOBTYPE		SP
EXCHANGE	HF
CORRELATION	pRIMP2
BASIS		cc-pvtz
METHOD		rimp2
AUX_BASIS	rimp2-cc-pvtz
SOLVENT_METHOD	PCM
PURECART	11111
SYMMETRY	false
MEM_TOTAL	110000
SCF_CONVERGENCE = 6
THRESH=10
GUI = 2
$end

$solvent
dielectric 4.90
$end
--------------------------------------------------------------

             Standard Nuclear Orientation (Angstroms)
    I     Atom           X                Y                Z
 ----------------------------------------------------------------
    1      C      -0.2527670000    -6.7414040000     0.0460700000
    2      C      -1.5386560000    -6.1556380000     0.2729350000
    3      C       0.8149660000    -5.7914520000    -0.1417390000
    4      C      -1.8130420000    -4.8037860000     0.3210830000
    5      H      -2.4033180000    -6.8215180000     0.4255920000
    6      C       0.5275660000    -4.3786380000    -0.0917790000
    7      C      -0.7827690000    -3.8380320000     0.1389090000
    8      C       1.5566320000    -3.4130620000    -0.2738080000
    9      C      -1.0678680000    -2.4264730000     0.1884830000
   10      C       1.2854360000    -2.0593480000    -0.2266100000
   11      C       0.0000000000    -1.4782160000     0.0000000000
   12      H       2.1510190000    -1.3947830000    -0.3796570000
   13      C       2.2358910000    -6.1879870000    -0.3904200000
   14      C       2.9655400000    -3.7981640000    -0.5221250000
   15      N       3.2056000000    -5.1700030000    -0.5627310000
   16      C      -3.2257600000    -4.4249870000     0.5702440000
   17      C      -2.4896460000    -2.0366270000     0.4384070000
   18      N      -3.4596620000    -3.0491560000     0.6104380000
   19      O       2.6217680000    -7.3531310000    -0.4555630000
   20      O       3.8746080000    -2.9868540000    -0.6833730000
   21      O      -4.1240590000    -5.2489460000     0.7293670000
   22      O      -2.8965160000    -0.8788290000     0.5086970000
   23      C       4.5969100000    -5.5637990000    -0.8069960000
   24      H       4.6416400000    -6.6640850000    -0.8137170000
   25      H       5.2465670000    -5.1471010000    -0.0136550000
   26      H       4.9367390000    -5.1487850000    -1.7751590000
   27      C      -4.8297290000    -2.5874870000     0.8515720000
   28      H      -5.4623870000    -3.4833290000     0.9642040000
   29      H      -5.1739140000    -1.9649720000     0.0039560000
   30      H      -4.8633600000    -1.9629320000     1.7643900000
   31      C       0.0000000000     0.0000000000     0.0000000000
   32      S      -0.0002010000     0.7931710000     1.5805300000
   33      C      -0.0002280000     2.4308850000     0.9049110000
   34      C      -0.0001680000     0.9979900000    -0.9854000000
   35      C      -0.0002670000     2.3182310000    -0.4935280000
   36      H      -0.0001450000     0.7623430000    -2.0599340000
   37      H      -0.0003390000     3.1991640000    -1.1525930000
   38      H      -0.0003110000     3.3115660000     1.5560250000
   39      H      -0.3033280000    -7.3615890000    -0.8571280000
   40      H       0.0079330000    -7.3611920000     0.9125870000
   41      H      -0.1870170000    -1.4788310000    -1.0636840000
 ----------------------------------------------------------------

   11   -1571.7499220237      5.45e-07  Convergence criterion met
 Total energy in the final basis set =    -1571.7499220237
        RIMP2         total energy =     -1576.4037320112 a.u.

                    Orbital Energies (a.u.)
 --------------------------------------------------------------

 Alpha MOs
 -- Occupied --
-91.9863 -20.5518 -20.5444 -20.5420 -20.5407 -15.6267 -15.6215 -11.3931
-11.3851 -11.3838 -11.3794 -11.3093 -11.3090 -11.3055 -11.3050 -11.2976
-11.2967 -11.2900 -11.2811 -11.2696 -11.2683 -11.2648 -11.2626 -11.2595
-11.2577 -11.2530 -11.2503  -8.9860  -6.6669  -6.6663  -6.6658  -1.4192
 -1.4124  -1.3970  -1.3916  -1.2619  -1.2556  -1.2297  -1.1861  -1.1526
 -1.1143  -1.0867  -1.0468  -0.9951  -0.9878  -0.9838  -0.9551  -0.9515
 -0.8964  -0.8877  -0.8768  -0.8602  -0.7947  -0.7769  -0.7709  -0.7620
 -0.7425  -0.7175  -0.7044  -0.6918  -0.6803  -0.6721  -0.6666  -0.6573
 -0.6472  -0.6443  -0.6361  -0.6329  -0.6311  -0.6278  -0.6219  -0.6045
 -0.5847  -0.5754  -0.5670  -0.5614  -0.5573  -0.5513  -0.5506  -0.5481
 -0.5466  -0.5437  -0.5187  -0.5166  -0.5095  -0.4827  -0.4747  -0.4615
 -0.4571  -0.4510  -0.4429  -0.4348  -0.4133  -0.4075  -0.3549  -0.3508
 -0.3280  -0.2903

          Ground-State Mulliken Net Atomic Charges

     Atom                 Charge (a.u.)
  ----------------------------------------
      1 C                    -0.084692
      2 C                    -0.030450
      3 C                    -0.110554
      4 C                    -0.122652
      5 H                     0.198833
      6 C                     0.015345
      7 C                     0.122304
      8 C                    -0.086600
      9 C                    -0.175506
     10 C                    -0.121383
     11 C                     0.193780
     12 H                     0.192345
     13 C                     0.343644
     14 C                     0.348866
     15 N                    -0.090226
     16 C                     0.357566
     17 C                     0.352302
     18 N                    -0.092254
     19 O                    -0.493967
     20 O                    -0.507341
     21 O                    -0.501690
     22 O                    -0.471079
     23 C                    -0.204716
     24 H                     0.139519
     25 H                     0.109428
     26 H                     0.108909
     27 C                    -0.196986
     28 H                     0.133057
     29 H                     0.111253
     30 H                     0.112165
     31 C                    -0.024035
     32 S                     0.017286
     33 C                    -0.207763
     34 C                    -0.187530
     35 C                    -0.209089
     36 H                     0.185600
     37 H                     0.191525
     38 H                     0.210189
     39 H                     0.137632
     40 H                     0.137999
     41 H                     0.198964
  ----------------------------------------
  Sum of atomic charges =     0.000000

                    Cartesian Multipole Moments
 -----------------------------------------------------------------
    Charge (ESU x 10^10)
                 0.0000
    Dipole Moment (Debye)
         X      -1.0493      Y       2.1246      Z      -1.6664
       Tot       2.8969
    Quadrupole Moments (Debye-Ang)
        XX    -194.9806     XY       8.7924     YY    -177.1992
        XZ       5.6641     YZ       0.3881     ZZ    -157.3637

 Total job time:  311.64s(wall), 9008.80s(cpu)
        *  Thank you very much for using Q-Chem.  Have a nice day.  *
