 Q-Chem 5.4, Q-Chem, Inc., Pleasanton, CA (2021)
 Q-Chem 5.4.0 for Intel X86 EM64T Linux

User input:
--------------------------------------------------------------
$molecule
0 1
C	-0.223244	-6.741404	-0.127184
C	-1.354118	-6.155638	-0.779949
C	0.715408	-5.791452	0.415271
C	-1.595259	-4.803786	-0.919437
H	-2.114613	-6.821518	-1.218801
C	0.463133	-4.378638	0.268806
C	-0.688925	-3.838032	-0.396744
C	1.368449	-3.413062	0.790835
C	-0.939189	-2.426473	-0.542026
C	1.130363	-2.059348	0.652669
C	0.000000	-1.478216	0.000000
H	1.891815	-1.394783	1.091814
C	1.963749	-6.187987	1.138124
C	2.607351	-3.798164	1.506241
N	2.817348	-5.170003	1.629443
C	-2.837621	-4.424987	-1.636646
C	-2.188982	-2.036627	-1.264474
N	-3.042637	-3.049156	-1.756205
O	2.301222	-7.353131	1.336258
O	3.407386	-2.986854	1.967056
O	-3.628041	-5.248946	-2.092167
O	-2.545844	-0.878829	-1.472160
C	4.040164	-5.563799	2.336642
H	4.078749	-6.664085	2.360245
H	4.027880	-5.147101	3.361968
H	4.922811	-5.148785	1.813424
C	-4.247167	-2.587487	-2.452149
H	-4.804209	-3.483329	-2.772531
H	-3.965991	-1.964972	-3.322697
H	-4.859678	-1.962932	-1.774507
C	0.000000	0.000000	0.000000
S	0.396411	0.687007	1.580530
C	1.215245	2.105322	0.904911
C	0.498850	0.864369	-0.985400
C	1.158885	2.007781	-0.493528
H	0.381046	0.660280	-2.059934
H	1.599289	2.770727	-1.152593
H	1.655514	2.868056	1.556025
H	0.318588	-7.361589	-0.851574
H	-0.580522	-7.361192	0.704181
H	0.540459	-1.478831	-0.935042
$end

$rem
JOBTYPE		SP
EXCHANGE	HF
CORRELATION	pRIMP2
BASIS		cc-pvtz
METHOD		rimp2
AUX_BASIS	rimp2-cc-pvtz
SOLVENT_METHOD	PCM
PURECART	11111
SYMMETRY	false
MEM_TOTAL	110000
SCF_CONVERGENCE = 6
THRESH=10
GUI = 2
$end

$solvent
dielectric 4.90
$end
--------------------------------------------------------------

             Standard Nuclear Orientation (Angstroms)
    I     Atom           X                Y                Z
 ----------------------------------------------------------------
    1      C      -0.2232440000    -6.7414040000    -0.1271840000
    2      C      -1.3541180000    -6.1556380000    -0.7799490000
    3      C       0.7154080000    -5.7914520000     0.4152710000
    4      C      -1.5952590000    -4.8037860000    -0.9194370000
    5      H      -2.1146130000    -6.8215180000    -1.2188010000
    6      C       0.4631330000    -4.3786380000     0.2688060000
    7      C      -0.6889250000    -3.8380320000    -0.3967440000
    8      C       1.3684490000    -3.4130620000     0.7908350000
    9      C      -0.9391890000    -2.4264730000    -0.5420260000
   10      C       1.1303630000    -2.0593480000     0.6526690000
   11      C       0.0000000000    -1.4782160000     0.0000000000
   12      H       1.8918150000    -1.3947830000     1.0918140000
   13      C       1.9637490000    -6.1879870000     1.1381240000
   14      C       2.6073510000    -3.7981640000     1.5062410000
   15      N       2.8173480000    -5.1700030000     1.6294430000
   16      C      -2.8376210000    -4.4249870000    -1.6366460000
   17      C      -2.1889820000    -2.0366270000    -1.2644740000
   18      N      -3.0426370000    -3.0491560000    -1.7562050000
   19      O       2.3012220000    -7.3531310000     1.3362580000
   20      O       3.4073860000    -2.9868540000     1.9670560000
   21      O      -3.6280410000    -5.2489460000    -2.0921670000
   22      O      -2.5458440000    -0.8788290000    -1.4721600000
   23      C       4.0401640000    -5.5637990000     2.3366420000
   24      H       4.0787490000    -6.6640850000     2.3602450000
   25      H       4.0278800000    -5.1471010000     3.3619680000
   26      H       4.9228110000    -5.1487850000     1.8134240000
   27      C      -4.2471670000    -2.5874870000    -2.4521490000
   28      H      -4.8042090000    -3.4833290000    -2.7725310000
   29      H      -3.9659910000    -1.9649720000    -3.3226970000
   30      H      -4.8596780000    -1.9629320000    -1.7745070000
   31      C       0.0000000000     0.0000000000     0.0000000000
   32      S       0.3964110000     0.6870070000     1.5805300000
   33      C       1.2152450000     2.1053220000     0.9049110000
   34      C       0.4988500000     0.8643690000    -0.9854000000
   35      C       1.1588850000     2.0077810000    -0.4935280000
   36      H       0.3810460000     0.6602800000    -2.0599340000
   37      H       1.5992890000     2.7707270000    -1.1525930000
   38      H       1.6555140000     2.8680560000     1.5560250000
   39      H       0.3185880000    -7.3615890000    -0.8515740000
   40      H      -0.5805220000    -7.3611920000     0.7041810000
   41      H       0.5404590000    -1.4788310000    -0.9350420000
 ----------------------------------------------------------------

   11   -1571.7315484535      5.62e-07  Convergence criterion met
 Total energy in the final basis set =    -1571.7315484535
        RIMP2         total energy =     -1576.3907531540 a.u.

                    Orbital Energies (a.u.)
 --------------------------------------------------------------

 Alpha MOs
 -- Occupied --
-91.9902 -20.5529 -20.5442 -20.5410 -20.5402 -15.6269 -15.6208 -11.3935
-11.3848 -11.3828 -11.3788 -11.3075 -11.3063 -11.3039 -11.3036 -11.2953
-11.2951 -11.2884 -11.2851 -11.2677 -11.2672 -11.2643 -11.2628 -11.2592
-11.2579 -11.2525 -11.2519  -8.9901  -6.6709  -6.6704  -6.6699  -1.4196
 -1.4117  -1.3971  -1.3909  -1.2619  -1.2550  -1.2304  -1.1888  -1.1523
 -1.1134  -1.0855  -1.0461  -0.9966  -0.9882  -0.9872  -0.9549  -0.9497
 -0.8963  -0.8872  -0.8758  -0.8587  -0.7954  -0.7782  -0.7702  -0.7622
 -0.7414  -0.7170  -0.7034  -0.6917  -0.6822  -0.6713  -0.6662  -0.6569
 -0.6465  -0.6439  -0.6356  -0.6327  -0.6302  -0.6271  -0.6217  -0.6043
 -0.5853  -0.5758  -0.5681  -0.5612  -0.5561  -0.5510  -0.5506  -0.5489
 -0.5473  -0.5432  -0.5199  -0.5121  -0.5075  -0.4842  -0.4756  -0.4655
 -0.4578  -0.4510  -0.4424  -0.4340  -0.4133  -0.4070  -0.3584  -0.3487
 -0.3306  -0.2851

          Ground-State Mulliken Net Atomic Charges

     Atom                 Charge (a.u.)
  ----------------------------------------
      1 C                    -0.084708
      2 C                    -0.033380
      3 C                    -0.112624
      4 C                    -0.120446
      5 H                     0.198187
      6 C                     0.020013
      7 C                     0.114382
      8 C                    -0.091504
      9 C                    -0.174317
     10 C                    -0.127184
     11 C                     0.160609
     12 H                     0.200864
     13 C                     0.342580
     14 C                     0.345451
     15 N                    -0.089721
     16 C                     0.357108
     17 C                     0.348700
     18 N                    -0.091454
     19 O                    -0.495349
     20 O                    -0.507452
     21 O                    -0.501614
     22 O                    -0.472975
     23 C                    -0.205006
     24 H                     0.139414
     25 H                     0.109220
     26 H                     0.108794
     27 C                    -0.197507
     28 H                     0.133300
     29 H                     0.110766
     30 H                     0.112194
     31 C                     0.020085
     32 S                     0.006882
     33 C                    -0.202741
     34 C                    -0.184182
     35 C                    -0.207177
     36 H                     0.184621
     37 H                     0.193087
     38 H                     0.211332
     39 H                     0.136736
     40 H                     0.136954
     41 H                     0.208063
  ----------------------------------------
  Sum of atomic charges =     0.000000

                    Cartesian Multipole Moments
 -----------------------------------------------------------------
    Charge (ESU x 10^10)
                 0.0000
    Dipole Moment (Debye)
         X       0.7497      Y       2.3524      Z      -2.1420
       Tot       3.2686
    Quadrupole Moments (Debye-Ang)
        XX    -185.0042     XY      11.8877     YY    -182.0035
        XZ     -14.2016     YZ       6.1120     ZZ    -164.3914

 Total job time:  406.63s(wall), 8911.65s(cpu)
        *  Thank you very much for using Q-Chem.  Have a nice day.  *
