 Q-Chem 5.4, Q-Chem, Inc., Pleasanton, CA (2021)
 Q-Chem 5.4.0 for Intel X86 EM64T Linux

User input:
--------------------------------------------------------------
$molecule
0 1
C	-0.252767	-6.741404	0.046070
C	-1.538656	-6.155638	0.272935
C	0.814966	-5.791452	-0.141739
C	-1.813042	-4.803786	0.321083
H	-2.403318	-6.821518	0.425592
C	0.527566	-4.378638	-0.091779
C	-0.782769	-3.838032	0.138909
C	1.556632	-3.413062	-0.273808
C	-1.067868	-2.426473	0.188483
C	1.285436	-2.059348	-0.226610
C	-0.000000	-1.478216	-0.000000
H	2.151019	-1.394783	-0.379657
C	2.235891	-6.187987	-0.390420
C	2.965540	-3.798164	-0.522125
N	3.205600	-5.170003	-0.562731
C	-3.225760	-4.424987	0.570244
C	-2.489646	-2.036627	0.438407
N	-3.459662	-3.049156	0.610438
O	2.621768	-7.353131	-0.455563
O	3.874608	-2.986854	-0.683373
O	-4.124059	-5.248946	0.729367
O	-2.896516	-0.878829	0.508697
C	4.596910	-5.563799	-0.806996
H	4.641640	-6.664085	-0.813717
H	5.246567	-5.147101	-0.013655
H	4.936739	-5.148785	-1.775159
C	-4.829729	-2.587487	0.851572
H	-5.462387	-3.483329	0.964204
H	-5.173914	-1.964972	0.003956
H	-4.863360	-1.962932	1.764390
C	0.000000	0.000000	0.000000
S	0.607475	0.509994	1.580530
C	1.862020	1.562717	0.904911
C	0.764397	0.641624	-0.985400
C	1.775697	1.490335	-0.493528
H	0.583895	0.490135	-2.059934
H	2.450484	2.056643	-1.152593
H	2.536607	2.128872	1.556025
H	-0.303328	-7.361589	-0.857128
H	0.007933	-7.361192	0.912587
H	-0.187017	-1.478831	-1.063684
$end

$rem
JOBTYPE		SP
EXCHANGE	HF
CORRELATION	pRIMP2
BASIS		cc-pvtz
METHOD		rimp2
AUX_BASIS	rimp2-cc-pvtz
SOLVENT_METHOD	PCM
PURECART	11111
SYMMETRY	false
MEM_TOTAL	110000
SCF_CONVERGENCE = 6
THRESH=10
GUI = 2
$end

$solvent
dielectric 4.90
$end
--------------------------------------------------------------

             Standard Nuclear Orientation (Angstroms)
    I     Atom           X                Y                Z
 ----------------------------------------------------------------
    1      C      -0.2527670000    -6.7414040000     0.0460700000
    2      C      -1.5386560000    -6.1556380000     0.2729350000
    3      C       0.8149660000    -5.7914520000    -0.1417390000
    4      C      -1.8130420000    -4.8037860000     0.3210830000
    5      H      -2.4033180000    -6.8215180000     0.4255920000
    6      C       0.5275660000    -4.3786380000    -0.0917790000
    7      C      -0.7827690000    -3.8380320000     0.1389090000
    8      C       1.5566320000    -3.4130620000    -0.2738080000
    9      C      -1.0678680000    -2.4264730000     0.1884830000
   10      C       1.2854360000    -2.0593480000    -0.2266100000
   11      C       0.0000000000    -1.4782160000     0.0000000000
   12      H       2.1510190000    -1.3947830000    -0.3796570000
   13      C       2.2358910000    -6.1879870000    -0.3904200000
   14      C       2.9655400000    -3.7981640000    -0.5221250000
   15      N       3.2056000000    -5.1700030000    -0.5627310000
   16      C      -3.2257600000    -4.4249870000     0.5702440000
   17      C      -2.4896460000    -2.0366270000     0.4384070000
   18      N      -3.4596620000    -3.0491560000     0.6104380000
   19      O       2.6217680000    -7.3531310000    -0.4555630000
   20      O       3.8746080000    -2.9868540000    -0.6833730000
   21      O      -4.1240590000    -5.2489460000     0.7293670000
   22      O      -2.8965160000    -0.8788290000     0.5086970000
   23      C       4.5969100000    -5.5637990000    -0.8069960000
   24      H       4.6416400000    -6.6640850000    -0.8137170000
   25      H       5.2465670000    -5.1471010000    -0.0136550000
   26      H       4.9367390000    -5.1487850000    -1.7751590000
   27      C      -4.8297290000    -2.5874870000     0.8515720000
   28      H      -5.4623870000    -3.4833290000     0.9642040000
   29      H      -5.1739140000    -1.9649720000     0.0039560000
   30      H      -4.8633600000    -1.9629320000     1.7643900000
   31      C       0.0000000000     0.0000000000     0.0000000000
   32      S       0.6074750000     0.5099940000     1.5805300000
   33      C       1.8620200000     1.5627170000     0.9049110000
   34      C       0.7643970000     0.6416240000    -0.9854000000
   35      C       1.7756970000     1.4903350000    -0.4935280000
   36      H       0.5838950000     0.4901350000    -2.0599340000
   37      H       2.4504840000     2.0566430000    -1.1525930000
   38      H       2.5366070000     2.1288720000     1.5560250000
   39      H      -0.3033280000    -7.3615890000    -0.8571280000
   40      H       0.0079330000    -7.3611920000     0.9125870000
   41      H      -0.1870170000    -1.4788310000    -1.0636840000
 ----------------------------------------------------------------

   11   -1571.7085590013      5.53e-07  Convergence criterion met
 Total energy in the final basis set =    -1571.7085590013
        RIMP2         total energy =     -1576.3735793873 a.u.

                    Orbital Energies (a.u.)
 --------------------------------------------------------------

 Alpha MOs
 -- Occupied --
-91.9894 -20.5517 -20.5434 -20.5404 -20.5398 -15.6258 -15.6204 -11.3920
-11.3839 -11.3822 -11.3783 -11.3060 -11.3043 -11.3030 -11.3013 -11.2986
-11.2940 -11.2851 -11.2818 -11.2692 -11.2665 -11.2662 -11.2627 -11.2620
-11.2590 -11.2556 -11.2511  -8.9897  -6.6704  -6.6697  -6.6694  -1.4184
 -1.4113  -1.3961  -1.3905  -1.2609  -1.2545  -1.2306  -1.1919  -1.1525
 -1.1122  -1.0840  -1.0446  -0.9992  -0.9918  -0.9866  -0.9544  -0.9489
 -0.8953  -0.8856  -0.8745  -0.8572  -0.7944  -0.7770  -0.7697  -0.7664
 -0.7427  -0.7166  -0.7039  -0.6906  -0.6824  -0.6708  -0.6657  -0.6563
 -0.6457  -0.6427  -0.6362  -0.6327  -0.6296  -0.6260  -0.6204  -0.6043
 -0.5829  -0.5787  -0.5717  -0.5605  -0.5561  -0.5506  -0.5500  -0.5472
 -0.5460  -0.5427  -0.5240  -0.5089  -0.5007  -0.4820  -0.4743  -0.4603
 -0.4575  -0.4502  -0.4418  -0.4330  -0.4124  -0.4065  -0.3616  -0.3473
 -0.3325  -0.2869

          Ground-State Mulliken Net Atomic Charges

     Atom                 Charge (a.u.)
  ----------------------------------------
      1 C                    -0.086370
      2 C                    -0.034791
      3 C                    -0.111653
      4 C                    -0.119751
      5 H                     0.197665
      6 C                     0.017393
      7 C                     0.122323
      8 C                    -0.105549
      9 C                    -0.207089
     10 C                    -0.115900
     11 C                     0.181949
     12 H                     0.197489
     13 C                     0.343318
     14 C                     0.342217
     15 N                    -0.089307
     16 C                     0.355121
     17 C                     0.354674
     18 N                    -0.091241
     19 O                    -0.496197
     20 O                    -0.509797
     21 O                    -0.502261
     22 O                    -0.468430
     23 C                    -0.205403
     24 H                     0.139490
     25 H                     0.108954
     26 H                     0.108433
     27 C                    -0.198069
     28 H                     0.132875
     29 H                     0.111171
     30 H                     0.111736
     31 C                    -0.031205
     32 S                     0.021304
     33 C                    -0.159161
     34 C                    -0.168526
     35 C                    -0.214134
     36 H                     0.193468
     37 H                     0.195725
     38 H                     0.214513
     39 H                     0.136074
     40 H                     0.136405
     41 H                     0.192539
  ----------------------------------------
  Sum of atomic charges =     0.000000

                    Cartesian Multipole Moments
 -----------------------------------------------------------------
    Charge (ESU x 10^10)
                 0.0000
    Dipole Moment (Debye)
         X       1.0724      Y       2.7214      Z      -1.6063
       Tot       3.3371
    Quadrupole Moments (Debye-Ang)
        XX    -188.3778     XY      15.3236     YY    -186.9938
        XZ       6.6165     YZ       0.3067     ZZ    -156.8061

 Total job time:  300.72s(wall), 9133.13s(cpu)
        *  Thank you very much for using Q-Chem.  Have a nice day.  *
