 Q-Chem 5.4, Q-Chem, Inc., Pleasanton, CA (2021)
 Q-Chem 5.4.0 for Intel X86 EM64T Linux

User input:
--------------------------------------------------------------
$molecule
0 1
C	-0.166281	-6.741404	-0.195868
C	-1.005696	-6.155638	-1.196048
C	0.530233	-5.791452	0.634911
C	-1.184587	-4.803786	-1.409599
H	-1.570232	-6.821518	-1.868538
C	0.343266	-4.378638	0.410996
C	-0.511683	-3.838032	-0.608444
C	1.015440	-3.413062	1.211179
C	-0.697165	-2.426473	-0.830559
C	0.838968	-2.059348	0.999915
C	-0.000000	-1.478216	-0.000000
H	1.404302	-1.394783	1.673009
C	1.456059	-6.187987	1.741129
C	1.934944	-3.798164	2.307170
N	2.090139	-5.170003	2.494766
C	-2.106725	-4.424987	-2.508468
C	-1.624494	-2.036627	-1.936893
N	-2.258486	-3.049156	-2.690936
O	1.705414	-7.353131	2.042736
O	2.529122	-2.986854	3.013823
O	-2.693680	-5.248946	-3.206857
O	-1.888802	-0.878829	-2.254108
C	2.997334	-5.563799	3.577543
H	3.025519	-6.664085	3.612920
H	2.635109	-5.147101	4.536833
H	4.005702	-5.148785	3.387762
C	-3.152347	-2.587487	-3.756883
H	-3.566218	-3.483329	-4.248464
H	-2.590383	-1.964972	-4.478763
H	-3.959687	-1.962932	-3.329599
C	0.000000	0.000000	0.000000
S	0.686805	0.396760	1.580530
C	2.105095	1.215640	0.904911
C	0.864201	0.499140	-0.985400
C	2.007514	1.159347	-0.493528
H	0.660136	0.381296	-2.059934
H	2.770388	1.599875	-1.152593
H	2.867745	1.656053	1.556025
H	0.590631	-7.361589	-0.691254
H	-0.786357	-7.361192	0.463164
H	0.827669	-1.478831	-0.693804
$end

$rem
JOBTYPE		SP
EXCHANGE	HF
CORRELATION	pRIMP2
BASIS		cc-pvtz
METHOD		rimp2
AUX_BASIS	rimp2-cc-pvtz
SOLVENT_METHOD	PCM
PURECART	11111
SYMMETRY	false
MEM_TOTAL	110000
SCF_CONVERGENCE = 6
THRESH=10
GUI = 2
$end

$solvent
dielectric 4.90
$end
--------------------------------------------------------------

             Standard Nuclear Orientation (Angstroms)
    I     Atom           X                Y                Z
 ----------------------------------------------------------------
    1      C      -0.1662810000    -6.7414040000    -0.1958680000
    2      C      -1.0056960000    -6.1556380000    -1.1960480000
    3      C       0.5302330000    -5.7914520000     0.6349110000
    4      C      -1.1845870000    -4.8037860000    -1.4095990000
    5      H      -1.5702320000    -6.8215180000    -1.8685380000
    6      C       0.3432660000    -4.3786380000     0.4109960000
    7      C      -0.5116830000    -3.8380320000    -0.6084440000
    8      C       1.0154400000    -3.4130620000     1.2111790000
    9      C      -0.6971650000    -2.4264730000    -0.8305590000
   10      C       0.8389680000    -2.0593480000     0.9999150000
   11      C       0.0000000000    -1.4782160000     0.0000000000
   12      H       1.4043020000    -1.3947830000     1.6730090000
   13      C       1.4560590000    -6.1879870000     1.7411290000
   14      C       1.9349440000    -3.7981640000     2.3071700000
   15      N       2.0901390000    -5.1700030000     2.4947660000
   16      C      -2.1067250000    -4.4249870000    -2.5084680000
   17      C      -1.6244940000    -2.0366270000    -1.9368930000
   18      N      -2.2584860000    -3.0491560000    -2.6909360000
   19      O       1.7054140000    -7.3531310000     2.0427360000
   20      O       2.5291220000    -2.9868540000     3.0138230000
   21      O      -2.6936800000    -5.2489460000    -3.2068570000
   22      O      -1.8888020000    -0.8788290000    -2.2541080000
   23      C       2.9973340000    -5.5637990000     3.5775430000
   24      H       3.0255190000    -6.6640850000     3.6129200000
   25      H       2.6351090000    -5.1471010000     4.5368330000
   26      H       4.0057020000    -5.1487850000     3.3877620000
   27      C      -3.1523470000    -2.5874870000    -3.7568830000
   28      H      -3.5662180000    -3.4833290000    -4.2484640000
   29      H      -2.5903830000    -1.9649720000    -4.4787630000
   30      H      -3.9596870000    -1.9629320000    -3.3295990000
   31      C       0.0000000000     0.0000000000     0.0000000000
   32      S       0.6868050000     0.3967600000     1.5805300000
   33      C       2.1050950000     1.2156400000     0.9049110000
   34      C       0.8642010000     0.4991400000    -0.9854000000
   35      C       2.0075140000     1.1593470000    -0.4935280000
   36      H       0.6601360000     0.3812960000    -2.0599340000
   37      H       2.7703880000     1.5998750000    -1.1525930000
   38      H       2.8677450000     1.6560530000     1.5560250000
   39      H       0.5906310000    -7.3615890000    -0.6912540000
   40      H      -0.7863570000    -7.3611920000     0.4631640000
   41      H       0.8276690000    -1.4788310000    -0.6938040000
 ----------------------------------------------------------------

   11   -1571.6392146165      6.95e-07  Convergence criterion met
 Total energy in the final basis set =    -1571.6392146165
        RIMP2         total energy =     -1576.3206303431 a.u.

                    Orbital Energies (a.u.)
 --------------------------------------------------------------

 Alpha MOs
 -- Occupied --
-91.9936 -20.5532 -20.5434 -20.5376 -20.5367 -15.6265 -15.6183 -11.3932
-11.3839 -11.3787 -11.3755 -11.3070 -11.3030 -11.3010 -11.3001 -11.2953
-11.2932 -11.2848 -11.2777 -11.2719 -11.2653 -11.2627 -11.2605 -11.2579
-11.2575 -11.2574 -11.2489  -8.9954  -6.6759  -6.6753  -6.6750  -1.4195
 -1.4087  -1.3968  -1.3878  -1.2614  -1.2524  -1.2375  -1.1966  -1.1506
 -1.1104  -1.0832  -1.0454  -1.0052  -0.9996  -0.9857  -0.9535  -0.9462
 -0.8950  -0.8856  -0.8734  -0.8554  -0.8005  -0.7796  -0.7692  -0.7649
 -0.7385  -0.7212  -0.7008  -0.6933  -0.6861  -0.6694  -0.6652  -0.6551
 -0.6497  -0.6450  -0.6338  -0.6321  -0.6278  -0.6250  -0.6201  -0.6029
 -0.5923  -0.5822  -0.5707  -0.5605  -0.5564  -0.5510  -0.5492  -0.5485
 -0.5451  -0.5418  -0.5225  -0.5101  -0.4918  -0.4797  -0.4752  -0.4678
 -0.4549  -0.4497  -0.4396  -0.4312  -0.4128  -0.4050  -0.3524  -0.3438
 -0.3376  -0.2743

          Ground-State Mulliken Net Atomic Charges

     Atom                 Charge (a.u.)
  ----------------------------------------
      1 C                    -0.085561
      2 C                    -0.035330
      3 C                    -0.118680
      4 C                    -0.117266
      5 H                     0.197135
      6 C                     0.012411
      7 C                     0.101126
      8 C                    -0.046404
      9 C                    -0.175266
     10 C                    -0.194094
     11 C                     0.196715
     12 H                     0.192588
     13 C                     0.337425
     14 C                     0.345210
     15 N                    -0.087742
     16 C                     0.356077
     17 C                     0.358124
     18 N                    -0.090377
     19 O                    -0.501968
     20 O                    -0.515420
     21 O                    -0.502398
     22 O                    -0.473776
     23 C                    -0.206001
     24 H                     0.139141
     25 H                     0.108266
     26 H                     0.107699
     27 C                    -0.198538
     28 H                     0.133345
     29 H                     0.110253
     30 H                     0.112225
     31 C                    -0.103106
     32 S                     0.039787
     33 C                    -0.154107
     34 C                    -0.090688
     35 C                    -0.243785
     36 H                     0.204540
     37 H                     0.194449
     38 H                     0.220195
     39 H                     0.134162
     40 H                     0.134430
     41 H                     0.205202
  ----------------------------------------
  Sum of atomic charges =     0.000000

                    Cartesian Multipole Moments
 -----------------------------------------------------------------
    Charge (ESU x 10^10)
                 0.0000
    Dipole Moment (Debye)
         X       2.6334      Y       3.1992      Z      -2.1500
       Tot       4.6682
    Quadrupole Moments (Debye-Ang)
        XX    -167.2598     XY      11.5885     YY    -194.9399
        XZ     -16.0274     YZ       9.1581     ZZ    -175.1818

 Total job time:  322.71s(wall), 10198.86s(cpu)
        *  Thank you very much for using Q-Chem.  Have a nice day.  *
