 Q-Chem 5.4, Q-Chem, Inc., Pleasanton, CA (2021)
 Q-Chem 5.4.0 for Intel X86 EM64T Linux

User input:
--------------------------------------------------------------
$molecule
0 1
C	-0.197767	-6.741404	-0.164018
C	-1.198109	-6.155638	-1.003240
C	0.632428	-5.791452	0.533192
C	-1.411364	-4.803786	-1.182482
H	-1.870845	-6.821518	-1.567483
C	0.409419	-4.378638	0.345145
C	-0.609565	-3.838032	-0.510347
C	1.210332	-3.413062	1.016449
C	-0.830799	-2.426473	-0.696879
C	0.999856	-2.059348	0.839039
C	0.000000	-1.478216	0.000000
H	1.673483	-1.394783	1.403737
C	1.736282	-6.187987	1.461835
C	2.306183	-3.798164	1.936119
N	2.491597	-5.170003	2.093916
C	-2.510310	-4.424987	-2.104529
C	-1.936153	-2.036627	-1.625377
N	-2.691451	-3.049156	-2.257873
O	2.034222	-7.353131	1.715561
O	3.014044	-2.986854	2.528858
O	-3.209622	-5.248946	-2.690385
O	-2.251529	-0.878829	-1.891876
C	3.573032	-5.563799	3.002711
H	3.606932	-6.664085	3.032655
H	3.382888	-5.147101	4.010326
H	4.533125	-5.148785	2.640711
C	-3.756832	-2.587487	-3.152408
H	-4.249778	-3.483329	-3.564653
H	-3.328759	-1.964972	-3.960905
H	-4.477709	-1.962932	-2.591422
C	0.000000	0.000000	0.000000
S	0.396411	0.687007	1.580530
C	1.215245	2.105322	0.904911
C	0.498850	0.864369	-0.985400
C	1.158885	2.007781	-0.493528
H	0.381046	0.660280	-2.059934
H	1.599289	2.770727	-1.152593
H	1.655514	2.868056	1.556025
H	0.461623	-7.361589	-0.783314
H	-0.693983	-7.361192	0.592677
H	0.694617	-1.478831	-0.826987
$end

$rem
JOBTYPE		SP
EXCHANGE	HF
CORRELATION	pRIMP2
BASIS		cc-pvtz
METHOD		rimp2
AUX_BASIS	rimp2-cc-pvtz
SOLVENT_METHOD	PCM
PURECART	11111
SYMMETRY	false
MEM_TOTAL	110000
SCF_CONVERGENCE = 6
THRESH=10
GUI = 2
$end

$solvent
dielectric 4.90
$end
--------------------------------------------------------------

             Standard Nuclear Orientation (Angstroms)
    I     Atom           X                Y                Z
 ----------------------------------------------------------------
    1      C      -0.1977670000    -6.7414040000    -0.1640180000
    2      C      -1.1981090000    -6.1556380000    -1.0032400000
    3      C       0.6324280000    -5.7914520000     0.5331920000
    4      C      -1.4113640000    -4.8037860000    -1.1824820000
    5      H      -1.8708450000    -6.8215180000    -1.5674830000
    6      C       0.4094190000    -4.3786380000     0.3451450000
    7      C      -0.6095650000    -3.8380320000    -0.5103470000
    8      C       1.2103320000    -3.4130620000     1.0164490000
    9      C      -0.8307990000    -2.4264730000    -0.6968790000
   10      C       0.9998560000    -2.0593480000     0.8390390000
   11      C       0.0000000000    -1.4782160000     0.0000000000
   12      H       1.6734830000    -1.3947830000     1.4037370000
   13      C       1.7362820000    -6.1879870000     1.4618350000
   14      C       2.3061830000    -3.7981640000     1.9361190000
   15      N       2.4915970000    -5.1700030000     2.0939160000
   16      C      -2.5103100000    -4.4249870000    -2.1045290000
   17      C      -1.9361530000    -2.0366270000    -1.6253770000
   18      N      -2.6914510000    -3.0491560000    -2.2578730000
   19      O       2.0342220000    -7.3531310000     1.7155610000
   20      O       3.0140440000    -2.9868540000     2.5288580000
   21      O      -3.2096220000    -5.2489460000    -2.6903850000
   22      O      -2.2515290000    -0.8788290000    -1.8918760000
   23      C       3.5730320000    -5.5637990000     3.0027110000
   24      H       3.6069320000    -6.6640850000     3.0326550000
   25      H       3.3828880000    -5.1471010000     4.0103260000
   26      H       4.5331250000    -5.1487850000     2.6407110000
   27      C      -3.7568320000    -2.5874870000    -3.1524080000
   28      H      -4.2497780000    -3.4833290000    -3.5646530000
   29      H      -3.3287590000    -1.9649720000    -3.9609050000
   30      H      -4.4777090000    -1.9629320000    -2.5914220000
   31      C       0.0000000000     0.0000000000     0.0000000000
   32      S       0.3964110000     0.6870070000     1.5805300000
   33      C       1.2152450000     2.1053220000     0.9049110000
   34      C       0.4988500000     0.8643690000    -0.9854000000
   35      C       1.1588850000     2.0077810000    -0.4935280000
   36      H       0.3810460000     0.6602800000    -2.0599340000
   37      H       1.5992890000     2.7707270000    -1.1525930000
   38      H       1.6555140000     2.8680560000     1.5560250000
   39      H       0.4616230000    -7.3615890000    -0.7833140000
   40      H      -0.6939830000    -7.3611920000     0.5926770000
   41      H       0.6946170000    -1.4788310000    -0.8269870000
 ----------------------------------------------------------------

   11   -1571.7280530890      5.71e-07  Convergence criterion met
 Total energy in the final basis set =    -1571.7280530890
        RIMP2         total energy =     -1576.3884622442 a.u.

                    Orbital Energies (a.u.)
 --------------------------------------------------------------

 Alpha MOs
 -- Occupied --
-91.9906 -20.5532 -20.5444 -20.5408 -20.5401 -15.6271 -15.6208 -11.3939
-11.3850 -11.3827 -11.3787 -11.3068 -11.3064 -11.3040 -11.3038 -11.2956
-11.2956 -11.2891 -11.2843 -11.2674 -11.2674 -11.2640 -11.2630 -11.2591
-11.2560 -11.2520 -11.2519  -8.9907  -6.6715  -6.6709  -6.6704  -1.4199
 -1.4116  -1.3974  -1.3908  -1.2622  -1.2549  -1.2308  -1.1892  -1.1521
 -1.1134  -1.0857  -1.0463  -0.9966  -0.9884  -0.9872  -0.9550  -0.9495
 -0.8964  -0.8875  -0.8760  -0.8588  -0.7956  -0.7788  -0.7703  -0.7615
 -0.7407  -0.7169  -0.7028  -0.6919  -0.6826  -0.6713  -0.6664  -0.6569
 -0.6467  -0.6447  -0.6359  -0.6324  -0.6303  -0.6273  -0.6218  -0.6043
 -0.5866  -0.5755  -0.5676  -0.5613  -0.5564  -0.5512  -0.5506  -0.5494
 -0.5473  -0.5432  -0.5197  -0.5115  -0.5082  -0.4848  -0.4759  -0.4662
 -0.4575  -0.4511  -0.4423  -0.4340  -0.4135  -0.4070  -0.3565  -0.3499
 -0.3313  -0.2827

          Ground-State Mulliken Net Atomic Charges

     Atom                 Charge (a.u.)
  ----------------------------------------
      1 C                    -0.084684
      2 C                    -0.032757
      3 C                    -0.113031
      4 C                    -0.121017
      5 H                     0.198311
      6 C                     0.020157
      7 C                     0.114375
      8 C                    -0.082606
      9 C                    -0.174534
     10 C                    -0.144425
     11 C                     0.168908
     12 H                     0.198455
     13 C                     0.342094
     14 C                     0.346644
     15 N                    -0.089632
     16 C                     0.357000
     17 C                     0.348769
     18 N                    -0.091135
     19 O                    -0.495783
     20 O                    -0.507842
     21 O                    -0.501559
     22 O                    -0.472987
     23 C                    -0.205024
     24 H                     0.139400
     25 H                     0.109187
     26 H                     0.108753
     27 C                    -0.197639
     28 H                     0.133377
     29 H                     0.110716
     30 H                     0.112297
     31 C                     0.012297
     32 S                     0.006322
     33 C                    -0.200707
     34 C                    -0.174000
     35 C                    -0.213735
     36 H                     0.186647
     37 H                     0.192425
     38 H                     0.211708
     39 H                     0.136782
     40 H                     0.137041
     41 H                     0.211432
  ----------------------------------------
  Sum of atomic charges =     0.000000

                    Cartesian Multipole Moments
 -----------------------------------------------------------------
    Charge (ESU x 10^10)
                 0.0000
    Dipole Moment (Debye)
         X       0.9230      Y       2.3057      Z      -2.1897
       Tot       3.3111
    Quadrupole Moments (Debye-Ang)
        XX    -179.4901     XY      10.8853     YY    -182.2073
        XZ     -16.2144     YZ       7.3687     ZZ    -169.8282

 Total job time:  345.84s(wall), 12097.89s(cpu)
        *  Thank you very much for using Q-Chem.  Have a nice day.  *
