 Q-Chem 5.4, Q-Chem, Inc., Pleasanton, CA (2021)
 Q-Chem 5.4.0 for Intel X86 EM64T Linux

User input:
--------------------------------------------------------------
$molecule
0 1
C	-0.241938	-6.741404	-0.086486
C	-1.468983	-6.155638	-0.532960
C	0.776651	-5.791452	0.284733
C	-1.730681	-4.803786	-0.628455
H	-2.294130	-6.821518	-0.833086
C	0.502775	-4.378638	0.184300
C	-0.747353	-3.838032	-0.271086
C	1.484986	-3.413062	0.541191
C	-1.019042	-2.426473	-0.370703
C	1.226525	-2.059348	0.446468
C	-0.000000	-1.478216	-0.000000
H	2.052666	-1.394783	0.746717
C	2.131549	-6.187987	0.779832
C	2.829295	-3.798164	1.030596
N	3.057496	-5.170003	1.115461
C	-3.078712	-4.424987	-1.119034
C	-2.375300	-2.036627	-0.865151
N	-3.301374	-3.049156	-1.201176
O	2.498300	-7.353131	0.916355
O	3.697195	-2.986854	1.345486
O	-3.936224	-5.248946	-1.430379
O	-2.762805	-0.878829	-1.007714
C	4.384539	-5.563799	1.599576
H	4.426636	-6.664085	1.616121
H	4.550487	-5.147101	2.611458
H	5.162921	-5.148785	0.931037
C	-4.608454	-2.587487	-1.677382
H	-5.212668	-3.483329	-1.896168
H	-4.482719	-1.964972	-2.583531
H	-5.093988	-1.962932	-0.903674
C	0.000000	0.000000	0.000000
S	0.335026	0.718942	1.580530
C	1.027130	2.203226	0.904911
C	0.421617	0.904557	-0.985400
C	0.979485	2.101144	-0.493528
H	0.322049	0.690978	-2.059934
H	1.351718	2.899571	-1.152593
H	1.399246	3.001430	1.556025
H	0.165874	-7.361589	-0.893959
H	-0.449423	-7.361192	0.794290
H	0.369880	-1.478831	-1.014686
$end

$rem
JOBTYPE		SP
EXCHANGE	HF
CORRELATION	pRIMP2
BASIS		cc-pvtz
METHOD		rimp2
AUX_BASIS	rimp2-cc-pvtz
SOLVENT_METHOD	PCM
PURECART	11111
SYMMETRY	false
MEM_TOTAL	110000
SCF_CONVERGENCE = 6
THRESH=10
GUI = 2
$end

$solvent
dielectric 4.90
$end
--------------------------------------------------------------

             Standard Nuclear Orientation (Angstroms)
    I     Atom           X                Y                Z
 ----------------------------------------------------------------
    1      C      -0.2419380000    -6.7414040000    -0.0864860000
    2      C      -1.4689830000    -6.1556380000    -0.5329600000
    3      C       0.7766510000    -5.7914520000     0.2847330000
    4      C      -1.7306810000    -4.8037860000    -0.6284550000
    5      H      -2.2941300000    -6.8215180000    -0.8330860000
    6      C       0.5027750000    -4.3786380000     0.1843000000
    7      C      -0.7473530000    -3.8380320000    -0.2710860000
    8      C       1.4849860000    -3.4130620000     0.5411910000
    9      C      -1.0190420000    -2.4264730000    -0.3707030000
   10      C       1.2265250000    -2.0593480000     0.4464680000
   11      C       0.0000000000    -1.4782160000     0.0000000000
   12      H       2.0526660000    -1.3947830000     0.7467170000
   13      C       2.1315490000    -6.1879870000     0.7798320000
   14      C       2.8292950000    -3.7981640000     1.0305960000
   15      N       3.0574960000    -5.1700030000     1.1154610000
   16      C      -3.0787120000    -4.4249870000    -1.1190340000
   17      C      -2.3753000000    -2.0366270000    -0.8651510000
   18      N      -3.3013740000    -3.0491560000    -1.2011760000
   19      O       2.4983000000    -7.3531310000     0.9163550000
   20      O       3.6971950000    -2.9868540000     1.3454860000
   21      O      -3.9362240000    -5.2489460000    -1.4303790000
   22      O      -2.7628050000    -0.8788290000    -1.0077140000
   23      C       4.3845390000    -5.5637990000     1.5995760000
   24      H       4.4266360000    -6.6640850000     1.6161210000
   25      H       4.5504870000    -5.1471010000     2.6114580000
   26      H       5.1629210000    -5.1487850000     0.9310370000
   27      C      -4.6084540000    -2.5874870000    -1.6773820000
   28      H      -5.2126680000    -3.4833290000    -1.8961680000
   29      H      -4.4827190000    -1.9649720000    -2.5835310000
   30      H      -5.0939880000    -1.9629320000    -0.9036740000
   31      C       0.0000000000     0.0000000000     0.0000000000
   32      S       0.3350260000     0.7189420000     1.5805300000
   33      C       1.0271300000     2.2032260000     0.9049110000
   34      C       0.4216170000     0.9045570000    -0.9854000000
   35      C       0.9794850000     2.1011440000    -0.4935280000
   36      H       0.3220490000     0.6909780000    -2.0599340000
   37      H       1.3517180000     2.8995710000    -1.1525930000
   38      H       1.3992460000     3.0014300000     1.5560250000
   39      H       0.1658740000    -7.3615890000    -0.8939590000
   40      H      -0.4494230000    -7.3611920000     0.7942900000
   41      H       0.3698800000    -1.4788310000    -1.0146860000
 ----------------------------------------------------------------

   11   -1571.7394939044      5.51e-07  Convergence criterion met
 Total energy in the final basis set =    -1571.7394939044
        RIMP2         total energy =     -1576.3962936866 a.u.

                    Orbital Energies (a.u.)
 --------------------------------------------------------------

 Alpha MOs
 -- Occupied --
-91.9895 -20.5527 -20.5442 -20.5416 -20.5406 -15.6268 -15.6212 -11.3934
-11.3849 -11.3834 -11.3792 -11.3087 -11.3068 -11.3044 -11.3039 -11.2961
-11.2956 -11.2888 -11.2841 -11.2686 -11.2675 -11.2650 -11.2628 -11.2593
-11.2582 -11.2523 -11.2522  -8.9893  -6.6702  -6.6696  -6.6691  -1.4195
 -1.4122  -1.3971  -1.3913  -1.2619  -1.2554  -1.2301  -1.1880  -1.1526
 -1.1138  -1.0859  -1.0463  -0.9963  -0.9876  -0.9868  -0.9551  -0.9503
 -0.8965  -0.8874  -0.8761  -0.8591  -0.7954  -0.7777  -0.7704  -0.7625
 -0.7422  -0.7172  -0.7040  -0.6916  -0.6817  -0.6715  -0.6664  -0.6571
 -0.6468  -0.6436  -0.6357  -0.6330  -0.6306  -0.6274  -0.6218  -0.6044
 -0.5848  -0.5759  -0.5678  -0.5613  -0.5565  -0.5511  -0.5506  -0.5483
 -0.5476  -0.5434  -0.5200  -0.5142  -0.5078  -0.4836  -0.4755  -0.4641
 -0.4584  -0.4511  -0.4427  -0.4344  -0.4133  -0.4073  -0.3587  -0.3489
 -0.3294  -0.2879

          Ground-State Mulliken Net Atomic Charges

     Atom                 Charge (a.u.)
  ----------------------------------------
      1 C                    -0.084532
      2 C                    -0.032878
      3 C                    -0.111767
      4 C                    -0.121028
      5 H                     0.198368
      6 C                     0.019196
      7 C                     0.116633
      8 C                    -0.093039
      9 C                    -0.177427
     10 C                    -0.110354
     11 C                     0.151965
     12 H                     0.202357
     13 C                     0.343413
     14 C                     0.344484
     15 N                    -0.090066
     16 C                     0.357459
     17 C                     0.346704
     18 N                    -0.092289
     19 O                    -0.494510
     20 O                    -0.506750
     21 O                    -0.501624
     22 O                    -0.472341
     23 C                    -0.204853
     24 H                     0.139433
     25 H                     0.109296
     26 H                     0.108948
     27 C                    -0.197164
     28 H                     0.133166
     29 H                     0.110877
     30 H                     0.112186
     31 C                     0.028128
     32 S                     0.009254
     33 C                    -0.208142
     34 C                    -0.198863
     35 C                    -0.200477
     36 H                     0.183714
     37 H                     0.193276
     38 H                     0.210927
     39 H                     0.137082
     40 H                     0.137325
     41 H                     0.203911
  ----------------------------------------
  Sum of atomic charges =     0.000000

                    Cartesian Multipole Moments
 -----------------------------------------------------------------
    Charge (ESU x 10^10)
                 0.0000
    Dipole Moment (Debye)
         X       0.3836      Y       2.2744      Z      -2.0749
       Tot       3.1025
    Quadrupole Moments (Debye-Ang)
        XX    -190.1843     XY      11.9801     YY    -180.2699
        XZ     -10.4659     YZ       4.7608     ZZ    -160.0391

 Total job time:  295.96s(wall), 9008.15s(cpu)
        *  Thank you very much for using Q-Chem.  Have a nice day.  *
