 Q-Chem 5.4, Q-Chem, Inc., Pleasanton, CA (2021)
 Q-Chem 5.4.0 for Intel X86 EM64T Linux

User input:
--------------------------------------------------------------
$molecule
0 1
C	0.086486	-6.741404	-0.241938
C	0.532960	-6.155638	-1.468983
C	-0.284733	-5.791452	0.776651
C	0.628455	-4.803786	-1.730681
H	0.833086	-6.821518	-2.294130
C	-0.184300	-4.378638	0.502775
C	0.271086	-3.838032	-0.747353
C	-0.541191	-3.413062	1.484986
C	0.370703	-2.426473	-1.019042
C	-0.446468	-2.059348	1.226525
C	0.000000	-1.478216	0.000000
H	-0.746717	-1.394783	2.052666
C	-0.779832	-6.187987	2.131549
C	-1.030596	-3.798164	2.829295
N	-1.115461	-5.170003	3.057496
C	1.119034	-4.424987	-3.078712
C	0.865151	-2.036627	-2.375300
N	1.201176	-3.049156	-3.301374
O	-0.916355	-7.353131	2.498300
O	-1.345486	-2.986854	3.697195
O	1.430379	-5.248946	-3.936224
O	1.007714	-0.878829	-2.762805
C	-1.599576	-5.563799	4.384539
H	-1.616121	-6.664085	4.426636
H	-2.611458	-5.147101	4.550487
H	-0.931037	-5.148785	5.162921
C	1.677382	-2.587487	-4.608454
H	1.896168	-3.483329	-5.212668
H	2.583531	-1.964972	-4.482719
H	0.903674	-1.962932	-5.093988
C	0.000000	0.000000	0.000000
S	0.509686	0.607733	1.580530
C	1.562368	1.862312	0.904911
C	0.641367	0.764613	-0.985400
C	1.489926	1.776040	-0.493528
H	0.489914	0.584081	-2.059934
H	2.056124	2.450920	-1.152593
H	2.128395	2.537007	1.556025
H	0.893959	-7.361589	0.165874
H	-0.794290	-7.361192	-0.449423
H	1.014686	-1.478831	0.369880
$end

$rem
JOBTYPE		SP
EXCHANGE	HF
CORRELATION	pRIMP2
BASIS		cc-pvtz
METHOD		rimp2
AUX_BASIS	rimp2-cc-pvtz
SOLVENT_METHOD	PCM
PURECART	11111
SYMMETRY	false
MEM_TOTAL	110000
SCF_CONVERGENCE = 6
THRESH=10
GUI = 2
$end

$solvent
dielectric 4.90
$end
--------------------------------------------------------------

             Standard Nuclear Orientation (Angstroms)
    I     Atom           X                Y                Z
 ----------------------------------------------------------------
    1      C       0.0864860000    -6.7414040000    -0.2419380000
    2      C       0.5329600000    -6.1556380000    -1.4689830000
    3      C      -0.2847330000    -5.7914520000     0.7766510000
    4      C       0.6284550000    -4.8037860000    -1.7306810000
    5      H       0.8330860000    -6.8215180000    -2.2941300000
    6      C      -0.1843000000    -4.3786380000     0.5027750000
    7      C       0.2710860000    -3.8380320000    -0.7473530000
    8      C      -0.5411910000    -3.4130620000     1.4849860000
    9      C       0.3707030000    -2.4264730000    -1.0190420000
   10      C      -0.4464680000    -2.0593480000     1.2265250000
   11      C       0.0000000000    -1.4782160000     0.0000000000
   12      H      -0.7467170000    -1.3947830000     2.0526660000
   13      C      -0.7798320000    -6.1879870000     2.1315490000
   14      C      -1.0305960000    -3.7981640000     2.8292950000
   15      N      -1.1154610000    -5.1700030000     3.0574960000
   16      C       1.1190340000    -4.4249870000    -3.0787120000
   17      C       0.8651510000    -2.0366270000    -2.3753000000
   18      N       1.2011760000    -3.0491560000    -3.3013740000
   19      O      -0.9163550000    -7.3531310000     2.4983000000
   20      O      -1.3454860000    -2.9868540000     3.6971950000
   21      O       1.4303790000    -5.2489460000    -3.9362240000
   22      O       1.0077140000    -0.8788290000    -2.7628050000
   23      C      -1.5995760000    -5.5637990000     4.3845390000
   24      H      -1.6161210000    -6.6640850000     4.4266360000
   25      H      -2.6114580000    -5.1471010000     4.5504870000
   26      H      -0.9310370000    -5.1487850000     5.1629210000
   27      C       1.6773820000    -2.5874870000    -4.6084540000
   28      H       1.8961680000    -3.4833290000    -5.2126680000
   29      H       2.5835310000    -1.9649720000    -4.4827190000
   30      H       0.9036740000    -1.9629320000    -5.0939880000
   31      C       0.0000000000     0.0000000000     0.0000000000
   32      S       0.5096860000     0.6077330000     1.5805300000
   33      C       1.5623680000     1.8623120000     0.9049110000
   34      C       0.6413670000     0.7646130000    -0.9854000000
   35      C       1.4899260000     1.7760400000    -0.4935280000
   36      H       0.4899140000     0.5840810000    -2.0599340000
   37      H       2.0561240000     2.4509200000    -1.1525930000
   38      H       2.1283950000     2.5370070000     1.5560250000
   39      H       0.8939590000    -7.3615890000     0.1658740000
   40      H      -0.7942900000    -7.3611920000    -0.4494230000
   41      H       1.0146860000    -1.4788310000     0.3698800000
 ----------------------------------------------------------------

   11   -1571.6909747455      5.56e-07  Convergence criterion met
 Total energy in the final basis set =    -1571.6909747455
        RIMP2         total energy =     -1576.3577105982 a.u.

                    Orbital Energies (a.u.)
 --------------------------------------------------------------

 Alpha MOs
 -- Occupied --
-91.9839 -20.5518 -20.5459 -20.5412 -20.5402 -15.6298 -15.6208 -11.3992
-11.3865 -11.3830 -11.3786 -11.3080 -11.3062 -11.3054 -11.3042 -11.2967
-11.2867 -11.2867 -11.2799 -11.2686 -11.2684 -11.2649 -11.2648 -11.2590
-11.2527 -11.2460 -11.2404  -8.9849  -6.6657  -6.6651  -6.6645  -1.4261
 -1.4118  -1.4010  -1.3909  -1.2656  -1.2552  -1.2313  -1.1892  -1.1497
 -1.1138  -1.0852  -1.0475  -0.9963  -0.9885  -0.9841  -0.9555  -0.9479
 -0.8974  -0.8882  -0.8778  -0.8608  -0.7920  -0.7802  -0.7731  -0.7616
 -0.7395  -0.7279  -0.7026  -0.6881  -0.6798  -0.6747  -0.6675  -0.6578
 -0.6486  -0.6473  -0.6372  -0.6315  -0.6309  -0.6303  -0.6236  -0.6044
 -0.5907  -0.5693  -0.5658  -0.5620  -0.5571  -0.5520  -0.5519  -0.5483
 -0.5474  -0.5422  -0.5174  -0.5129  -0.5064  -0.4805  -0.4724  -0.4620
 -0.4559  -0.4457  -0.4405  -0.4353  -0.4167  -0.4074  -0.3568  -0.3463
 -0.3312  -0.2757

          Ground-State Mulliken Net Atomic Charges

     Atom                 Charge (a.u.)
  ----------------------------------------
      1 C                    -0.084356
      2 C                    -0.031554
      3 C                    -0.111560
      4 C                    -0.120189
      5 H                     0.198571
      6 C                     0.018318
      7 C                     0.127536
      8 C                    -0.068358
      9 C                    -0.201320
     10 C                    -0.144197
     11 C                     0.176280
     12 H                     0.181391
     13 C                     0.342674
     14 C                     0.345846
     15 N                    -0.089979
     16 C                     0.357824
     17 C                     0.392907
     18 N                    -0.086995
     19 O                    -0.495001
     20 O                    -0.507074
     21 O                    -0.500093
     22 O                    -0.473516
     23 C                    -0.205040
     24 H                     0.139295
     25 H                     0.109287
     26 H                     0.109215
     27 C                    -0.199324
     28 H                     0.134885
     29 H                     0.111513
     30 H                     0.112346
     31 C                    -0.032442
     32 S                    -0.012427
     33 C                    -0.206116
     34 C                    -0.186994
     35 C                    -0.210218
     36 H                     0.217894
     37 H                     0.192166
     38 H                     0.214149
     39 H                     0.137359
     40 H                     0.137799
     41 H                     0.209501
  ----------------------------------------
  Sum of atomic charges =     0.000000

                    Cartesian Multipole Moments
 -----------------------------------------------------------------
    Charge (ESU x 10^10)
                 0.0000
    Dipole Moment (Debye)
         X       2.7843      Y       1.7759      Z      -2.4050
       Tot       4.0853
    Quadrupole Moments (Debye-Ang)
        XX    -161.5528     XY       1.1650     YY    -182.2326
        XZ      10.4396     YZ       8.8844     ZZ    -184.7062

 Total job time:  306.57s(wall), 9226.01s(cpu)
        *  Thank you very much for using Q-Chem.  Have a nice day.  *
