 Q-Chem 5.4, Q-Chem, Inc., Pleasanton, CA (2021)
 Q-Chem 5.4.0 for Intel X86 EM64T Linux

User input:
--------------------------------------------------------------
$molecule
0 1
C	0.252767	-6.741404	-0.046070
C	1.538656	-6.155638	-0.272935
C	-0.814966	-5.791452	0.141739
C	1.813042	-4.803786	-0.321083
H	2.403318	-6.821518	-0.425592
C	-0.527566	-4.378638	0.091779
C	0.782769	-3.838032	-0.138909
C	-1.556632	-3.413062	0.273808
C	1.067868	-2.426473	-0.188483
C	-1.285436	-2.059348	0.226610
C	0.000000	-1.478216	0.000000
H	-2.151019	-1.394783	0.379657
C	-2.235891	-6.187987	0.390420
C	-2.965540	-3.798164	0.522125
N	-3.205600	-5.170003	0.562731
C	3.225760	-4.424987	-0.570244
C	2.489646	-2.036627	-0.438407
N	3.459662	-3.049156	-0.610438
O	-2.621768	-7.353131	0.455563
O	-3.874608	-2.986854	0.683373
O	4.124059	-5.248946	-0.729367
O	2.896516	-0.878829	-0.508697
C	-4.596910	-5.563799	0.806996
H	-4.641640	-6.664085	0.813717
H	-5.246567	-5.147101	0.013655
H	-4.936739	-5.148785	1.775159
C	4.829729	-2.587487	-0.851572
H	5.462387	-3.483329	-0.964204
H	5.173914	-1.964972	-0.003956
H	4.863360	-1.962932	-1.764390
C	0.000000	0.000000	0.000000
S	0.396411	0.687007	1.580530
C	1.215245	2.105322	0.904911
C	0.498850	0.864369	-0.985400
C	1.158885	2.007781	-0.493528
H	0.381046	0.660280	-2.059934
H	1.599289	2.770727	-1.152593
H	1.655514	2.868056	1.556025
H	0.303328	-7.361589	0.857128
H	-0.007933	-7.361192	-0.912587
H	0.187017	-1.478831	1.063684
$end

$rem
JOBTYPE		SP
EXCHANGE	HF
CORRELATION	pRIMP2
BASIS		cc-pvtz
METHOD		rimp2
AUX_BASIS	rimp2-cc-pvtz
SOLVENT_METHOD	PCM
PURECART	11111
SYMMETRY	false
MEM_TOTAL	110000
SCF_CONVERGENCE = 6
THRESH=10
GUI = 2
$end

$solvent
dielectric 4.90
$end
--------------------------------------------------------------

             Standard Nuclear Orientation (Angstroms)
    I     Atom           X                Y                Z
 ----------------------------------------------------------------
    1      C       0.2527670000    -6.7414040000    -0.0460700000
    2      C       1.5386560000    -6.1556380000    -0.2729350000
    3      C      -0.8149660000    -5.7914520000     0.1417390000
    4      C       1.8130420000    -4.8037860000    -0.3210830000
    5      H       2.4033180000    -6.8215180000    -0.4255920000
    6      C      -0.5275660000    -4.3786380000     0.0917790000
    7      C       0.7827690000    -3.8380320000    -0.1389090000
    8      C      -1.5566320000    -3.4130620000     0.2738080000
    9      C       1.0678680000    -2.4264730000    -0.1884830000
   10      C      -1.2854360000    -2.0593480000     0.2266100000
   11      C       0.0000000000    -1.4782160000     0.0000000000
   12      H      -2.1510190000    -1.3947830000     0.3796570000
   13      C      -2.2358910000    -6.1879870000     0.3904200000
   14      C      -2.9655400000    -3.7981640000     0.5221250000
   15      N      -3.2056000000    -5.1700030000     0.5627310000
   16      C       3.2257600000    -4.4249870000    -0.5702440000
   17      C       2.4896460000    -2.0366270000    -0.4384070000
   18      N       3.4596620000    -3.0491560000    -0.6104380000
   19      O      -2.6217680000    -7.3531310000     0.4555630000
   20      O      -3.8746080000    -2.9868540000     0.6833730000
   21      O       4.1240590000    -5.2489460000    -0.7293670000
   22      O       2.8965160000    -0.8788290000    -0.5086970000
   23      C      -4.5969100000    -5.5637990000     0.8069960000
   24      H      -4.6416400000    -6.6640850000     0.8137170000
   25      H      -5.2465670000    -5.1471010000     0.0136550000
   26      H      -4.9367390000    -5.1487850000     1.7751590000
   27      C       4.8297290000    -2.5874870000    -0.8515720000
   28      H       5.4623870000    -3.4833290000    -0.9642040000
   29      H       5.1739140000    -1.9649720000    -0.0039560000
   30      H       4.8633600000    -1.9629320000    -1.7643900000
   31      C       0.0000000000     0.0000000000     0.0000000000
   32      S       0.3964110000     0.6870070000     1.5805300000
   33      C       1.2152450000     2.1053220000     0.9049110000
   34      C       0.4988500000     0.8643690000    -0.9854000000
   35      C       1.1588850000     2.0077810000    -0.4935280000
   36      H       0.3810460000     0.6602800000    -2.0599340000
   37      H       1.5992890000     2.7707270000    -1.1525930000
   38      H       1.6555140000     2.8680560000     1.5560250000
   39      H       0.3033280000    -7.3615890000     0.8571280000
   40      H      -0.0079330000    -7.3611920000    -0.9125870000
   41      H       0.1870170000    -1.4788310000     1.0636840000
 ----------------------------------------------------------------

   11   -1571.7263104705      5.67e-07  Convergence criterion met
 Total energy in the final basis set =    -1571.7263104705
        RIMP2         total energy =     -1576.3854739282 a.u.

                    Orbital Energies (a.u.)
 --------------------------------------------------------------

 Alpha MOs
 -- Occupied --
-91.9906 -20.5498 -20.5439 -20.5403 -20.5389 -15.6260 -15.6200 -11.3916
-11.3845 -11.3822 -11.3774 -11.3071 -11.3051 -11.3035 -11.3034 -11.2956
-11.2887 -11.2847 -11.2822 -11.2673 -11.2670 -11.2626 -11.2613 -11.2586
-11.2582 -11.2517 -11.2499  -8.9907  -6.6715  -6.6709  -6.6703  -1.4182
 -1.4109  -1.3962  -1.3900  -1.2611  -1.2541  -1.2285  -1.1867  -1.1517
 -1.1123  -1.0851  -1.0450  -0.9955  -0.9869  -0.9855  -0.9541  -0.9503
 -0.8945  -0.8846  -0.8757  -0.8588  -0.7909  -0.7748  -0.7734  -0.7680
 -0.7384  -0.7159  -0.7035  -0.6903  -0.6751  -0.6691  -0.6665  -0.6562
 -0.6460  -0.6407  -0.6366  -0.6306  -0.6299  -0.6255  -0.6222  -0.6037
 -0.5833  -0.5738  -0.5676  -0.5607  -0.5556  -0.5504  -0.5491  -0.5469
 -0.5461  -0.5430  -0.5212  -0.5123  -0.5053  -0.4788  -0.4725  -0.4685
 -0.4546  -0.4490  -0.4414  -0.4334  -0.4127  -0.4064  -0.3543  -0.3502
 -0.3287  -0.2875

          Ground-State Mulliken Net Atomic Charges

     Atom                 Charge (a.u.)
  ----------------------------------------
      1 C                    -0.084215
      2 C                    -0.031216
      3 C                    -0.116083
      4 C                    -0.119752
      5 H                     0.198016
      6 C                     0.007969
      7 C                     0.114364
      8 C                    -0.065120
      9 C                    -0.142315
     10 C                    -0.171647
     11 C                     0.222197
     12 H                     0.191221
     13 C                     0.342826
     14 C                     0.348893
     15 N                    -0.089537
     16 C                     0.356500
     17 C                     0.357537
     18 N                    -0.088925
     19 O                    -0.496138
     20 O                    -0.508569
     21 O                    -0.502342
     22 O                    -0.469161
     23 C                    -0.205089
     24 H                     0.139233
     25 H                     0.108818
     26 H                     0.108795
     27 C                    -0.197890
     28 H                     0.133190
     29 H                     0.111372
     30 H                     0.110650
     31 C                    -0.061761
     32 S                     0.004035
     33 C                    -0.201221
     34 C                    -0.175871
     35 C                    -0.179802
     36 H                     0.186101
     37 H                     0.189320
     38 H                     0.213564
     39 H                     0.136815
     40 H                     0.136971
     41 H                     0.188272
  ----------------------------------------
  Sum of atomic charges =     0.000000

                    Cartesian Multipole Moments
 -----------------------------------------------------------------
    Charge (ESU x 10^10)
                 0.0000
    Dipole Moment (Debye)
         X       2.5035      Y       2.8555      Z      -0.5619
       Tot       3.8389
    Quadrupole Moments (Debye-Ang)
        XX    -192.5033     XY      -3.9708     YY    -182.4990
        XZ       6.2286     YZ       1.0906     ZZ    -157.0820

 Total job time:  314.55s(wall), 9799.64s(cpu)
        *  Thank you very much for using Q-Chem.  Have a nice day.  *
