 Q-Chem 5.4, Q-Chem, Inc., Pleasanton, CA (2021)
 Q-Chem 5.4.0 for Intel X86 EM64T Linux

User input:
--------------------------------------------------------------
$molecule
0 1
C	0.586080	-6.715879	-0.256927
C	0.534902	-6.132354	-1.562675
C	0.502834	-5.769583	0.827197
C	0.417309	-4.785626	-1.841253
H	0.592747	-6.795716	-2.440709
C	0.380402	-4.362083	0.535488
C	0.333638	-3.823504	-0.794999
C	0.296812	-3.400131	1.580529
C	0.211295	-2.417255	-1.084374
C	0.179438	-2.051515	1.305258
C	0.128835	-1.472591	-0.000000
H	0.121931	-1.389444	2.184267
C	0.535563	-6.164769	2.269719
C	0.330267	-3.783778	3.011152
N	0.448140	-5.150545	3.254617
C	0.384235	-4.408274	-3.275775
C	0.178078	-2.028827	-2.527951
N	0.265353	-3.037588	-3.513104
O	0.634270	-7.325728	2.661046
O	0.260493	-2.975473	3.934410
O	0.455333	-5.229160	-4.188059
O	0.078594	-0.875310	-2.940845
C	0.481421	-5.542933	4.667206
H	0.576173	-6.639132	4.712423
H	-0.445595	-5.205747	5.169231
H	1.336290	-5.051542	5.169992
C	0.225553	-2.577637	-4.904229
H	0.302574	-3.470163	-5.546833
H	1.062399	-1.879530	-5.095998
H	-0.718592	-2.033299	-5.095858
C	0.000000	0.000000	0.000000
S	0.271091	0.745405	1.580530
C	0.831198	2.284363	0.904911
C	0.341175	0.937861	-0.985400
C	0.792631	2.178516	-0.493528
H	0.260601	0.716417	-2.059934
H	1.093860	3.006347	-1.152593
H	1.132330	3.111961	1.556025
H	1.534971	-7.255416	-0.149881
H	-0.255105	-7.411629	-0.150656
H	1.204779	-1.379075	0.000531
$end

$rem
JOBTYPE		SP
EXCHANGE	HF
CORRELATION	pRIMP2
BASIS		cc-pvtz
METHOD		rimp2
AUX_BASIS	rimp2-cc-pvtz
SOLVENT_METHOD	PCM
PURECART	11111
SYMMETRY	false
MEM_TOTAL	110000
SCF_CONVERGENCE = 6
THRESH=10
GUI = 2
$end

$solvent
dielectric 4.90
$end
--------------------------------------------------------------

             Standard Nuclear Orientation (Angstroms)
    I     Atom           X                Y                Z
 ----------------------------------------------------------------
    1      C       0.5860800000    -6.7158790000    -0.2569270000
    2      C       0.5349020000    -6.1323540000    -1.5626750000
    3      C       0.5028340000    -5.7695830000     0.8271970000
    4      C       0.4173090000    -4.7856260000    -1.8412530000
    5      H       0.5927470000    -6.7957160000    -2.4407090000
    6      C       0.3804020000    -4.3620830000     0.5354880000
    7      C       0.3336380000    -3.8235040000    -0.7949990000
    8      C       0.2968120000    -3.4001310000     1.5805290000
    9      C       0.2112950000    -2.4172550000    -1.0843740000
   10      C       0.1794380000    -2.0515150000     1.3052580000
   11      C       0.1288350000    -1.4725910000     0.0000000000
   12      H       0.1219310000    -1.3894440000     2.1842670000
   13      C       0.5355630000    -6.1647690000     2.2697190000
   14      C       0.3302670000    -3.7837780000     3.0111520000
   15      N       0.4481400000    -5.1505450000     3.2546170000
   16      C       0.3842350000    -4.4082740000    -3.2757750000
   17      C       0.1780780000    -2.0288270000    -2.5279510000
   18      N       0.2653530000    -3.0375880000    -3.5131040000
   19      O       0.6342700000    -7.3257280000     2.6610460000
   20      O       0.2604930000    -2.9754730000     3.9344100000
   21      O       0.4553330000    -5.2291600000    -4.1880590000
   22      O       0.0785940000    -0.8753100000    -2.9408450000
   23      C       0.4814210000    -5.5429330000     4.6672060000
   24      H       0.5761730000    -6.6391320000     4.7124230000
   25      H      -0.4455950000    -5.2057470000     5.1692310000
   26      H       1.3362900000    -5.0515420000     5.1699920000
   27      C       0.2255530000    -2.5776370000    -4.9042290000
   28      H       0.3025740000    -3.4701630000    -5.5468330000
   29      H       1.0623990000    -1.8795300000    -5.0959980000
   30      H      -0.7185920000    -2.0332990000    -5.0958580000
   31      C       0.0000000000     0.0000000000     0.0000000000
   32      S       0.2710910000     0.7454050000     1.5805300000
   33      C       0.8311980000     2.2843630000     0.9049110000
   34      C       0.3411750000     0.9378610000    -0.9854000000
   35      C       0.7926310000     2.1785160000    -0.4935280000
   36      H       0.2606010000     0.7164170000    -2.0599340000
   37      H       1.0938600000     3.0063470000    -1.1525930000
   38      H       1.1323300000     3.1119610000     1.5560250000
   39      H       1.5349710000    -7.2554160000    -0.1498810000
   40      H      -0.2551050000    -7.4116290000    -0.1506560000
   41      H       1.2047790000    -1.3790750000     0.0005310000
 ----------------------------------------------------------------

   11   -1571.7207479257      5.81e-07  Convergence criterion met
 Total energy in the final basis set =    -1571.7207479257
        RIMP2         total energy =     -1576.3824350202 a.u.

                    Orbital Energies (a.u.)
 --------------------------------------------------------------

 Alpha MOs
 -- Occupied --
-91.9883 -20.5540 -20.5460 -20.5423 -20.5412 -15.6295 -15.6217 -11.3983
-11.3867 -11.3841 -11.3796 -11.3099 -11.3080 -11.3059 -11.3051 -11.2978
-11.2947 -11.2916 -11.2772 -11.2703 -11.2691 -11.2665 -11.2645 -11.2595
-11.2536 -11.2463 -11.2360  -8.9887  -6.6696  -6.6690  -6.6684  -1.4246
 -1.4127  -1.4005  -1.3919  -1.2651  -1.2560  -1.2322  -1.1888  -1.1500
 -1.1151  -1.0869  -1.0487  -0.9961  -0.9888  -0.9830  -0.9559  -0.9487
 -0.8980  -0.8906  -0.8782  -0.8614  -0.7947  -0.7815  -0.7730  -0.7589
 -0.7396  -0.7219  -0.7018  -0.6899  -0.6834  -0.6743  -0.6686  -0.6583
 -0.6495  -0.6477  -0.6381  -0.6322  -0.6316  -0.6299  -0.6242  -0.6052
 -0.5933  -0.5713  -0.5641  -0.5618  -0.5579  -0.5526  -0.5516  -0.5490
 -0.5482  -0.5426  -0.5173  -0.5145  -0.5091  -0.4857  -0.4740  -0.4589
 -0.4576  -0.4492  -0.4428  -0.4363  -0.4162  -0.4083  -0.3583  -0.3486
 -0.3323  -0.2772

          Ground-State Mulliken Net Atomic Charges

     Atom                 Charge (a.u.)
  ----------------------------------------
      1 C                    -0.083920
      2 C                    -0.031975
      3 C                    -0.104886
      4 C                    -0.120816
      5 H                     0.199099
      6 C                     0.025796
      7 C                     0.119459
      8 C                    -0.044363
      9 C                    -0.209198
     10 C                    -0.164652
     11 C                     0.171308
     12 H                     0.186854
     13 C                     0.341764
     14 C                     0.344245
     15 N                    -0.089983
     16 C                     0.357993
     17 C                     0.384752
     18 N                    -0.088018
     19 O                    -0.493783
     20 O                    -0.506505
     21 O                    -0.500138
     22 O                    -0.481748
     23 C                    -0.204807
     24 H                     0.139486
     25 H                     0.109624
     26 H                     0.109338
     27 C                    -0.198802
     28 H                     0.134597
     29 H                     0.111527
     30 H                     0.112404
     31 C                     0.030296
     32 S                    -0.008345
     33 C                    -0.236021
     34 C                    -0.227085
     35 C                    -0.215860
     36 H                     0.229203
     37 H                     0.191272
     38 H                     0.214563
     39 H                     0.138207
     40 H                     0.138466
     41 H                     0.220652
  ----------------------------------------
  Sum of atomic charges =     0.000000

                    Cartesian Multipole Moments
 -----------------------------------------------------------------
    Charge (ESU x 10^10)
                 0.0000
    Dipole Moment (Debye)
         X       1.5295      Y       1.5350      Z      -2.3322
       Tot       3.1835
    Quadrupole Moments (Debye-Ang)
        XX    -161.1870     XY       4.0882     YY    -177.5588
        XZ      -0.8027     YZ       9.4569     ZZ    -188.5435

 Total job time:  303.10s(wall), 9115.63s(cpu)
        *  Thank you very much for using Q-Chem.  Have a nice day.  *
