 Q-Chem 5.4, Q-Chem, Inc., Pleasanton, CA (2021)
 Q-Chem 5.4.0 for Intel X86 EM64T Linux

User input:
--------------------------------------------------------------
$molecule
0 1
C	0.127184	-6.741404	-0.223244
C	0.779949	-6.155638	-1.354118
C	-0.415271	-5.791452	0.715408
C	0.919437	-4.803786	-1.595259
H	1.218801	-6.821518	-2.114613
C	-0.268806	-4.378638	0.463133
C	0.396744	-3.838032	-0.688925
C	-0.790835	-3.413062	1.368449
C	0.542026	-2.426473	-0.939189
C	-0.652669	-2.059348	1.130363
C	-0.000000	-1.478216	-0.000000
H	-1.091814	-1.394783	1.891815
C	-1.138124	-6.187987	1.963749
C	-1.506241	-3.798164	2.607351
N	-1.629443	-5.170003	2.817348
C	1.636646	-4.424987	-2.837621
C	1.264474	-2.036627	-2.188982
N	1.756205	-3.049156	-3.042637
O	-1.336258	-7.353131	2.301222
O	-1.967056	-2.986854	3.407386
O	2.092167	-5.248946	-3.628041
O	1.472160	-0.878829	-2.545844
C	-2.336642	-5.563799	4.040164
H	-2.360245	-6.664085	4.078749
H	-3.361968	-5.147101	4.027880
H	-1.813424	-5.148785	4.922811
C	2.452149	-2.587487	-4.247167
H	2.772531	-3.483329	-4.804209
H	3.322697	-1.964972	-3.965991
H	1.774507	-1.962932	-4.859678
C	0.000000	0.000000	0.000000
S	-0.000201	0.793171	1.580530
C	-0.000228	2.430885	0.904911
C	-0.000168	0.997990	-0.985400
C	-0.000267	2.318231	-0.493528
H	-0.000145	0.762343	-2.059934
H	-0.000339	3.199164	-1.152593
H	-0.000311	3.311566	1.556025
H	0.851574	-7.361589	0.318588
H	-0.704181	-7.361192	-0.580522
H	0.935042	-1.478831	0.540459
$end

$rem
JOBTYPE		SP
EXCHANGE	HF
CORRELATION	pRIMP2
BASIS		cc-pvtz
METHOD		rimp2
AUX_BASIS	rimp2-cc-pvtz
SOLVENT_METHOD	PCM
PURECART	11111
SYMMETRY	false
MEM_TOTAL	110000
SCF_CONVERGENCE = 6
THRESH=10
GUI = 2
$end

$solvent
dielectric 4.90
$end
--------------------------------------------------------------

             Standard Nuclear Orientation (Angstroms)
    I     Atom           X                Y                Z
 ----------------------------------------------------------------
    1      C       0.1271840000    -6.7414040000    -0.2232440000
    2      C       0.7799490000    -6.1556380000    -1.3541180000
    3      C      -0.4152710000    -5.7914520000     0.7154080000
    4      C       0.9194370000    -4.8037860000    -1.5952590000
    5      H       1.2188010000    -6.8215180000    -2.1146130000
    6      C      -0.2688060000    -4.3786380000     0.4631330000
    7      C       0.3967440000    -3.8380320000    -0.6889250000
    8      C      -0.7908350000    -3.4130620000     1.3684490000
    9      C       0.5420260000    -2.4264730000    -0.9391890000
   10      C      -0.6526690000    -2.0593480000     1.1303630000
   11      C       0.0000000000    -1.4782160000     0.0000000000
   12      H      -1.0918140000    -1.3947830000     1.8918150000
   13      C      -1.1381240000    -6.1879870000     1.9637490000
   14      C      -1.5062410000    -3.7981640000     2.6073510000
   15      N      -1.6294430000    -5.1700030000     2.8173480000
   16      C       1.6366460000    -4.4249870000    -2.8376210000
   17      C       1.2644740000    -2.0366270000    -2.1889820000
   18      N       1.7562050000    -3.0491560000    -3.0426370000
   19      O      -1.3362580000    -7.3531310000     2.3012220000
   20      O      -1.9670560000    -2.9868540000     3.4073860000
   21      O       2.0921670000    -5.2489460000    -3.6280410000
   22      O       1.4721600000    -0.8788290000    -2.5458440000
   23      C      -2.3366420000    -5.5637990000     4.0401640000
   24      H      -2.3602450000    -6.6640850000     4.0787490000
   25      H      -3.3619680000    -5.1471010000     4.0278800000
   26      H      -1.8134240000    -5.1487850000     4.9228110000
   27      C       2.4521490000    -2.5874870000    -4.2471670000
   28      H       2.7725310000    -3.4833290000    -4.8042090000
   29      H       3.3226970000    -1.9649720000    -3.9659910000
   30      H       1.7745070000    -1.9629320000    -4.8596780000
   31      C       0.0000000000     0.0000000000     0.0000000000
   32      S      -0.0002010000     0.7931710000     1.5805300000
   33      C      -0.0002280000     2.4308850000     0.9049110000
   34      C      -0.0001680000     0.9979900000    -0.9854000000
   35      C      -0.0002670000     2.3182310000    -0.4935280000
   36      H      -0.0001450000     0.7623430000    -2.0599340000
   37      H      -0.0003390000     3.1991640000    -1.1525930000
   38      H      -0.0003110000     3.3115660000     1.5560250000
   39      H       0.8515740000    -7.3615890000     0.3185880000
   40      H      -0.7041810000    -7.3611920000    -0.5805220000
   41      H       0.9350420000    -1.4788310000     0.5404590000
 ----------------------------------------------------------------

   11   -1571.7415543722      5.85e-07  Convergence criterion met
 Total energy in the final basis set =    -1571.7415543722
        RIMP2         total energy =     -1576.3978469249 a.u.

                    Orbital Energies (a.u.)
 --------------------------------------------------------------

 Alpha MOs
 -- Occupied --
-91.9907 -20.5523 -20.5452 -20.5423 -20.5413 -15.6279 -15.6218 -11.3950
-11.3859 -11.3842 -11.3799 -11.3097 -11.3092 -11.3061 -11.3053 -11.2973
-11.2973 -11.2918 -11.2778 -11.2703 -11.2688 -11.2668 -11.2637 -11.2596
-11.2534 -11.2484 -11.2440  -8.9907  -6.6716  -6.6711  -6.6704  -1.4210
 -1.4128  -1.3984  -1.3919  -1.2632  -1.2560  -1.2315  -1.1876  -1.1513
 -1.1150  -1.0876  -1.0481  -0.9959  -0.9884  -0.9821  -0.9557  -0.9500
 -0.8976  -0.8896  -0.8777  -0.8610  -0.7947  -0.7786  -0.7717  -0.7623
 -0.7414  -0.7157  -0.7024  -0.6907  -0.6784  -0.6743  -0.6679  -0.6578
 -0.6482  -0.6459  -0.6389  -0.6319  -0.6314  -0.6281  -0.6231  -0.6057
 -0.5895  -0.5730  -0.5645  -0.5598  -0.5579  -0.5523  -0.5504  -0.5485
 -0.5481  -0.5434  -0.5177  -0.5169  -0.5117  -0.4858  -0.4756  -0.4646
 -0.4582  -0.4516  -0.4434  -0.4356  -0.4142  -0.4081  -0.3553  -0.3517
 -0.3308  -0.2810

          Ground-State Mulliken Net Atomic Charges

     Atom                 Charge (a.u.)
  ----------------------------------------
      1 C                    -0.084604
      2 C                    -0.029771
      3 C                    -0.108092
      4 C                    -0.126924
      5 H                     0.199289
      6 C                     0.022500
      7 C                     0.118896
      8 C                    -0.060610
      9 C                    -0.167499
     10 C                    -0.186245
     11 C                     0.246478
     12 H                     0.184234
     13 C                     0.342697
     14 C                     0.350501
     15 N                    -0.090243
     16 C                     0.357918
     17 C                     0.362970
     18 N                    -0.088461
     19 O                    -0.493461
     20 O                    -0.506172
     21 O                    -0.501159
     22 O                    -0.475813
     23 C                    -0.204623
     24 H                     0.139501
     25 H                     0.109503
     26 H                     0.109375
     27 C                    -0.197643
     28 H                     0.133883
     29 H                     0.111665
     30 H                     0.111475
     31 C                    -0.082253
     32 S                    -0.000175
     33 C                    -0.222600
     34 C                    -0.139582
     35 C                    -0.218209
     36 H                     0.194271
     37 H                     0.189454
     38 H                     0.213100
     39 H                     0.137977
     40 H                     0.138337
     41 H                     0.210111
  ----------------------------------------
  Sum of atomic charges =     0.000000

                    Cartesian Multipole Moments
 -----------------------------------------------------------------
    Charge (ESU x 10^10)
                 0.0000
    Dipole Moment (Debye)
         X       1.2445      Y       1.7546      Z      -1.5322
       Tot       2.6411
    Quadrupole Moments (Debye-Ang)
        XX    -170.6954     XY      -5.4201     YY    -176.3805
        XZ      14.1248     YZ       7.3261     ZZ    -181.0746

 Total job time:  303.90s(wall), 9234.85s(cpu)
        *  Thank you very much for using Q-Chem.  Have a nice day.  *
