 Q-Chem 5.4, Q-Chem, Inc., Pleasanton, CA (2021)
 Q-Chem 5.4.0 for Intel X86 EM64T Linux

User input:
--------------------------------------------------------------
$molecule
0 1
C	0.043160	-6.741404	-0.253280
C	0.269777	-6.155638	-1.539213
C	-0.145543	-5.791452	0.814295
C	0.318377	-4.803786	-1.813519
H	0.422058	-6.821518	-2.403941
C	-0.094194	-4.378638	0.527140
C	0.137191	-3.838032	-0.783072
C	-0.275104	-3.413062	1.556403
C	0.188116	-2.426473	-1.067932
C	-0.226701	-2.059348	1.285420
C	-0.000000	-1.478216	-0.000000
H	-0.378931	-1.394783	2.151147
C	-0.397845	-6.187987	2.234582
C	-0.523637	-3.798164	2.965273
N	-0.567586	-5.170003	3.204744
C	0.567421	-4.424987	-3.226257
C	0.439541	-2.036627	-2.489446
N	0.609650	-3.049156	-3.459801
O	-0.468608	-7.353131	2.619468
O	-0.683034	-2.986854	3.874668
O	0.725131	-5.248946	-4.124806
O	0.512648	-0.878829	-2.895819
C	-0.813908	-5.563799	4.595691
H	-0.822891	-6.664085	4.640022
H	-1.781600	-5.147101	4.934830
H	-0.020360	-5.148785	5.246157
C	0.851649	-2.587487	-4.829716
H	0.962191	-3.483329	-5.462742
H	1.765865	-1.964972	-4.863242
H	0.005383	-1.962932	-5.173521
C	0.000000	0.000000	0.000000
S	0.686805	0.396760	1.580530
C	2.105095	1.215640	0.904911
C	0.864201	0.499140	-0.985400
C	2.007514	1.159347	-0.493528
H	0.660136	0.381296	-2.059934
H	2.770388	1.599875	-1.152593
H	2.867745	1.656053	1.556025
H	0.909181	-7.361589	0.008120
H	-0.860264	-7.361192	-0.304668
H	1.063500	-1.478831	0.188062
$end

$rem
JOBTYPE		SP
EXCHANGE	HF
CORRELATION	pRIMP2
BASIS		cc-pvtz
METHOD		rimp2
AUX_BASIS	rimp2-cc-pvtz
SOLVENT_METHOD	PCM
PURECART	11111
SYMMETRY	false
MEM_TOTAL	110000
SCF_CONVERGENCE = 6
THRESH=10
GUI = 2
$end

$solvent
dielectric 4.90
$end
--------------------------------------------------------------

             Standard Nuclear Orientation (Angstroms)
    I     Atom           X                Y                Z
 ----------------------------------------------------------------
    1      C       0.0431600000    -6.7414040000    -0.2532800000
    2      C       0.2697770000    -6.1556380000    -1.5392130000
    3      C      -0.1455430000    -5.7914520000     0.8142950000
    4      C       0.3183770000    -4.8037860000    -1.8135190000
    5      H       0.4220580000    -6.8215180000    -2.4039410000
    6      C      -0.0941940000    -4.3786380000     0.5271400000
    7      C       0.1371910000    -3.8380320000    -0.7830720000
    8      C      -0.2751040000    -3.4130620000     1.5564030000
    9      C       0.1881160000    -2.4264730000    -1.0679320000
   10      C      -0.2267010000    -2.0593480000     1.2854200000
   11      C       0.0000000000    -1.4782160000     0.0000000000
   12      H      -0.3789310000    -1.3947830000     2.1511470000
   13      C      -0.3978450000    -6.1879870000     2.2345820000
   14      C      -0.5236370000    -3.7981640000     2.9652730000
   15      N      -0.5675860000    -5.1700030000     3.2047440000
   16      C       0.5674210000    -4.4249870000    -3.2262570000
   17      C       0.4395410000    -2.0366270000    -2.4894460000
   18      N       0.6096500000    -3.0491560000    -3.4598010000
   19      O      -0.4686080000    -7.3531310000     2.6194680000
   20      O      -0.6830340000    -2.9868540000     3.8746680000
   21      O       0.7251310000    -5.2489460000    -4.1248060000
   22      O       0.5126480000    -0.8788290000    -2.8958190000
   23      C      -0.8139080000    -5.5637990000     4.5956910000
   24      H      -0.8228910000    -6.6640850000     4.6400220000
   25      H      -1.7816000000    -5.1471010000     4.9348300000
   26      H      -0.0203600000    -5.1487850000     5.2461570000
   27      C       0.8516490000    -2.5874870000    -4.8297160000
   28      H       0.9621910000    -3.4833290000    -5.4627420000
   29      H       1.7658650000    -1.9649720000    -4.8632420000
   30      H       0.0053830000    -1.9629320000    -5.1735210000
   31      C       0.0000000000     0.0000000000     0.0000000000
   32      S       0.6868050000     0.3967600000     1.5805300000
   33      C       2.1050950000     1.2156400000     0.9049110000
   34      C       0.8642010000     0.4991400000    -0.9854000000
   35      C       2.0075140000     1.1593470000    -0.4935280000
   36      H       0.6601360000     0.3812960000    -2.0599340000
   37      H       2.7703880000     1.5998750000    -1.1525930000
   38      H       2.8677450000     1.6560530000     1.5560250000
   39      H       0.9091810000    -7.3615890000     0.0081200000
   40      H      -0.8602640000    -7.3611920000    -0.3046680000
   41      H       1.0635000000    -1.4788310000     0.1880620000
 ----------------------------------------------------------------

   11   -1571.6299201434      5.55e-07  Convergence criterion met
 Total energy in the final basis set =    -1571.6299201434
        RIMP2         total energy =     -1576.3077160438 a.u.

                    Orbital Energies (a.u.)
 --------------------------------------------------------------

 Alpha MOs
 -- Occupied --
-91.9816 -20.5555 -20.5465 -20.5396 -20.5384 -15.6317 -15.6195 -11.4031
-11.3871 -11.3815 -11.3766 -11.3073 -11.3038 -11.3028 -11.3022 -11.3021
-11.2967 -11.2837 -11.2682 -11.2664 -11.2657 -11.2634 -11.2608 -11.2583
-11.2520 -11.2471 -11.2427  -8.9838  -6.6644  -6.6635  -6.6632  -1.4325
 -1.4103  -1.4031  -1.3894  -1.2680  -1.2539  -1.2346  -1.1942  -1.1492
 -1.1126  -1.0836  -1.0474  -0.9993  -0.9917  -0.9882  -0.9552  -0.9464
 -0.8988  -0.8872  -0.8776  -0.8600  -0.7941  -0.7830  -0.7753  -0.7635
 -0.7388  -0.7359  -0.7016  -0.6888  -0.6839  -0.6743  -0.6680  -0.6575
 -0.6503  -0.6486  -0.6369  -0.6331  -0.6306  -0.6302  -0.6238  -0.6033
 -0.5938  -0.5713  -0.5686  -0.5644  -0.5575  -0.5544  -0.5523  -0.5473
 -0.5464  -0.5417  -0.5172  -0.5111  -0.5011  -0.4714  -0.4680  -0.4596
 -0.4546  -0.4429  -0.4376  -0.4328  -0.4183  -0.4065  -0.3608  -0.3416
 -0.3338  -0.2736

          Ground-State Mulliken Net Atomic Charges

     Atom                 Charge (a.u.)
  ----------------------------------------
      1 C                    -0.083976
      2 C                    -0.031952
      3 C                    -0.114019
      4 C                    -0.115780
      5 H                     0.198353
      6 C                     0.016052
      7 C                     0.122479
      8 C                    -0.061343
      9 C                    -0.213743
     10 C                    -0.125852
     11 C                     0.165201
     12 H                     0.180924
     13 C                     0.341083
     14 C                     0.345208
     15 N                    -0.089480
     16 C                     0.357627
     17 C                     0.388032
     18 N                    -0.085565
     19 O                    -0.497411
     20 O                    -0.510001
     21 O                    -0.499176
     22 O                    -0.455875
     23 C                    -0.205533
     24 H                     0.139102
     25 H                     0.108980
     26 H                     0.108704
     27 C                    -0.199561
     28 H                     0.135291
     29 H                     0.111767
     30 H                     0.113141
     31 C                    -0.111848
     32 S                    -0.007583
     33 C                    -0.149688
     34 C                    -0.126213
     35 C                    -0.256122
     36 H                     0.247453
     37 H                     0.190728
     38 H                     0.215779
     39 H                     0.136998
     40 H                     0.137467
     41 H                     0.180352
  ----------------------------------------
  Sum of atomic charges =     0.000000

                    Cartesian Multipole Moments
 -----------------------------------------------------------------
    Charge (ESU x 10^10)
                 0.0000
    Dipole Moment (Debye)
         X       3.6812      Y       1.8064      Z      -2.8290
       Tot       4.9817
    Quadrupole Moments (Debye-Ang)
        XX    -154.4651     XY       2.5509     YY    -187.3304
        XZ       6.0443     YZ      10.7113     ZZ    -186.4977

 Total job time:  494.02s(wall), 11084.16s(cpu)
        *  Thank you very much for using Q-Chem.  Have a nice day.  *
