 Q-Chem 5.4, Q-Chem, Inc., Pleasanton, CA (2021)
 Q-Chem 5.4.0 for Intel X86 EM64T Linux

User input:
--------------------------------------------------------------
$molecule
0 1
C	0.043160	-6.741404	-0.253280
C	0.269777	-6.155638	-1.539213
C	-0.145543	-5.791452	0.814295
C	0.318377	-4.803786	-1.813519
H	0.422058	-6.821518	-2.403941
C	-0.094194	-4.378638	0.527140
C	0.137191	-3.838032	-0.783072
C	-0.275104	-3.413062	1.556403
C	0.188116	-2.426473	-1.067932
C	-0.226701	-2.059348	1.285420
C	-0.000000	-1.478216	-0.000000
H	-0.378931	-1.394783	2.151147
C	-0.397845	-6.187987	2.234582
C	-0.523637	-3.798164	2.965273
N	-0.567586	-5.170003	3.204744
C	0.567421	-4.424987	-3.226257
C	0.439541	-2.036627	-2.489446
N	0.609650	-3.049156	-3.459801
O	-0.468608	-7.353131	2.619468
O	-0.683034	-2.986854	3.874668
O	0.725131	-5.248946	-4.124806
O	0.512648	-0.878829	-2.895819
C	-0.813908	-5.563799	4.595691
H	-0.822891	-6.664085	4.640022
H	-1.781600	-5.147101	4.934830
H	-0.020360	-5.148785	5.246157
C	0.851649	-2.587487	-4.829716
H	0.962191	-3.483329	-5.462742
H	1.765865	-1.964972	-4.863242
H	0.005383	-1.962932	-5.173521
C	0.000000	0.000000	0.000000
S	0.205093	0.766196	1.580530
C	0.628939	2.348114	0.904911
C	0.258137	0.964028	-0.985400
C	0.599745	2.239309	-0.493528
H	0.197169	0.736404	-2.059934
H	0.827678	3.090243	-1.152593
H	0.856796	3.198808	1.556025
H	0.909181	-7.361589	0.008120
H	-0.860264	-7.361192	-0.304668
H	1.063500	-1.478831	0.188062
$end

$rem
JOBTYPE		SP
EXCHANGE	HF
CORRELATION	pRIMP2
BASIS		cc-pvtz
METHOD		rimp2
AUX_BASIS	rimp2-cc-pvtz
SOLVENT_METHOD	PCM
PURECART	11111
SYMMETRY	false
MEM_TOTAL	110000
SCF_CONVERGENCE = 6
THRESH=10
GUI = 2
$end

$solvent
dielectric 4.90
$end
--------------------------------------------------------------

             Standard Nuclear Orientation (Angstroms)
    I     Atom           X                Y                Z
 ----------------------------------------------------------------
    1      C       0.0431600000    -6.7414040000    -0.2532800000
    2      C       0.2697770000    -6.1556380000    -1.5392130000
    3      C      -0.1455430000    -5.7914520000     0.8142950000
    4      C       0.3183770000    -4.8037860000    -1.8135190000
    5      H       0.4220580000    -6.8215180000    -2.4039410000
    6      C      -0.0941940000    -4.3786380000     0.5271400000
    7      C       0.1371910000    -3.8380320000    -0.7830720000
    8      C      -0.2751040000    -3.4130620000     1.5564030000
    9      C       0.1881160000    -2.4264730000    -1.0679320000
   10      C      -0.2267010000    -2.0593480000     1.2854200000
   11      C       0.0000000000    -1.4782160000     0.0000000000
   12      H      -0.3789310000    -1.3947830000     2.1511470000
   13      C      -0.3978450000    -6.1879870000     2.2345820000
   14      C      -0.5236370000    -3.7981640000     2.9652730000
   15      N      -0.5675860000    -5.1700030000     3.2047440000
   16      C       0.5674210000    -4.4249870000    -3.2262570000
   17      C       0.4395410000    -2.0366270000    -2.4894460000
   18      N       0.6096500000    -3.0491560000    -3.4598010000
   19      O      -0.4686080000    -7.3531310000     2.6194680000
   20      O      -0.6830340000    -2.9868540000     3.8746680000
   21      O       0.7251310000    -5.2489460000    -4.1248060000
   22      O       0.5126480000    -0.8788290000    -2.8958190000
   23      C      -0.8139080000    -5.5637990000     4.5956910000
   24      H      -0.8228910000    -6.6640850000     4.6400220000
   25      H      -1.7816000000    -5.1471010000     4.9348300000
   26      H      -0.0203600000    -5.1487850000     5.2461570000
   27      C       0.8516490000    -2.5874870000    -4.8297160000
   28      H       0.9621910000    -3.4833290000    -5.4627420000
   29      H       1.7658650000    -1.9649720000    -4.8632420000
   30      H       0.0053830000    -1.9629320000    -5.1735210000
   31      C       0.0000000000     0.0000000000     0.0000000000
   32      S       0.2050930000     0.7661960000     1.5805300000
   33      C       0.6289390000     2.3481140000     0.9049110000
   34      C       0.2581370000     0.9640280000    -0.9854000000
   35      C       0.5997450000     2.2393090000    -0.4935280000
   36      H       0.1971690000     0.7364040000    -2.0599340000
   37      H       0.8276780000     3.0902430000    -1.1525930000
   38      H       0.8567960000     3.1988080000     1.5560250000
   39      H       0.9091810000    -7.3615890000     0.0081200000
   40      H      -0.8602640000    -7.3611920000    -0.3046680000
   41      H       1.0635000000    -1.4788310000     0.1880620000
 ----------------------------------------------------------------

   11   -1571.7295828605      5.90e-07  Convergence criterion met
 Total energy in the final basis set =    -1571.7295828605
        RIMP2         total energy =     -1576.3887577862 a.u.

                    Orbital Energies (a.u.)
 --------------------------------------------------------------

 Alpha MOs
 -- Occupied --
-91.9886 -20.5534 -20.5460 -20.5428 -20.5417 -15.6294 -15.6221 -11.3982
-11.3868 -11.3846 -11.3802 -11.3104 -11.3097 -11.3066 -11.3057 -11.2980
-11.2963 -11.2923 -11.2753 -11.2711 -11.2694 -11.2677 -11.2645 -11.2597
-11.2539 -11.2459 -11.2349  -8.9888  -6.6697  -6.6692  -6.6685  -1.4242
 -1.4131  -1.4004  -1.3923  -1.2650  -1.2564  -1.2322  -1.1881  -1.1500
 -1.1156  -1.0876  -1.0491  -0.9959  -0.9890  -0.9814  -0.9561  -0.9492
 -0.8983  -0.8910  -0.8786  -0.8619  -0.7948  -0.7810  -0.7732  -0.7592
 -0.7405  -0.7214  -0.7026  -0.6896  -0.6817  -0.6753  -0.6686  -0.6585
 -0.6495  -0.6477  -0.6386  -0.6326  -0.6319  -0.6299  -0.6243  -0.6056
 -0.5927  -0.5712  -0.5638  -0.5607  -0.5575  -0.5526  -0.5518  -0.5490
 -0.5485  -0.5428  -0.5176  -0.5150  -0.5112  -0.4864  -0.4743  -0.4602
 -0.4580  -0.4494  -0.4431  -0.4367  -0.4162  -0.4085  -0.3577  -0.3492
 -0.3317  -0.2781

          Ground-State Mulliken Net Atomic Charges

     Atom                 Charge (a.u.)
  ----------------------------------------
      1 C                    -0.083587
      2 C                    -0.030995
      3 C                    -0.105389
      4 C                    -0.123352
      5 H                     0.199178
      6 C                     0.024474
      7 C                     0.118929
      8 C                    -0.049065
      9 C                    -0.197979
     10 C                    -0.168161
     11 C                     0.192115
     12 H                     0.181642
     13 C                     0.342611
     14 C                     0.348221
     15 N                    -0.090230
     16 C                     0.358367
     17 C                     0.384880
     18 N                    -0.087402
     19 O                    -0.492902
     20 O                    -0.505750
     21 O                    -0.500242
     22 O                    -0.479371
     23 C                    -0.204661
     24 H                     0.139600
     25 H                     0.109634
     26 H                     0.109540
     27 C                    -0.198791
     28 H                     0.134518
     29 H                     0.111821
     30 H                     0.112209
     31 C                    -0.001826
     32 S                    -0.007922
     33 C                    -0.242875
     34 C                    -0.210024
     35 C                    -0.210962
     36 H                     0.220559
     37 H                     0.190343
     38 H                     0.214129
     39 H                     0.138334
     40 H                     0.138766
     41 H                     0.221613
  ----------------------------------------
  Sum of atomic charges =     0.000000

                    Cartesian Multipole Moments
 -----------------------------------------------------------------
    Charge (ESU x 10^10)
                -0.0000
    Dipole Moment (Debye)
         X       1.5285      Y       1.3094      Z      -2.1724
       Tot       2.9614
    Quadrupole Moments (Debye-Ang)
        XX    -162.7309     XY      -0.2424     YY    -176.3247
        XZ       5.4191     YZ       8.8429     ZZ    -187.5693

 Total job time:  302.92s(wall), 8902.43s(cpu)
        *  Thank you very much for using Q-Chem.  Have a nice day.  *
