 Q-Chem 5.4, Q-Chem, Inc., Pleasanton, CA (2021)
 Q-Chem 5.4.0 for Intel X86 EM64T Linux

User input:
--------------------------------------------------------------
$molecule
0 1
C	0.129743	-6.741404	0.221766
C	0.782726	-6.155638	1.352515
C	-0.411926	-5.791452	-0.717339
C	0.921816	-4.803786	1.593885
H	1.221908	-6.821518	2.112819
C	-0.266682	-4.378638	-0.464360
C	0.398255	-3.838032	0.688053
C	-0.789694	-3.413062	-1.369108
C	0.542349	-2.426473	0.939002
C	-0.652589	-2.059348	-1.130409
C	0.000000	-1.478216	0.000000
H	-1.092453	-1.394783	-1.891446
C	-1.131595	-6.187987	-1.967519
C	-1.504912	-3.798164	-2.608118
N	-1.625174	-5.170003	-2.819813
C	1.639129	-4.424987	2.836188
C	1.263477	-2.036627	2.189558
N	1.756898	-3.049156	3.042237
O	-1.324787	-7.353131	-2.307845
O	-1.967354	-2.986854	-3.407213
O	2.095892	-5.248946	3.625890
O	1.468685	-0.878829	2.547850
C	-2.330564	-5.563799	-4.043674
H	-2.352178	-6.664085	-4.083407
H	-1.807263	-5.147101	-4.925490
H	-3.356568	-5.148785	-4.031877
C	2.452080	-2.587487	4.247206
H	2.774302	-3.483329	4.803187
H	1.773301	-1.964972	4.860536
H	3.321351	-1.962932	3.966607
C	0.000000	0.000000	0.000000
S	0.137535	0.781156	1.580530
C	0.421895	2.393994	0.904911
C	0.173134	0.982857	-0.985400
C	0.402294	2.283058	-0.493528
H	0.132237	0.750786	-2.059934
H	0.555196	3.150621	-1.152593
H	0.574741	3.261310	1.556025
H	-0.701693	-7.361589	0.578191
H	0.854838	-7.361192	-0.319578
H	-0.935572	-1.478831	0.539540
$end

$rem
JOBTYPE		SP
EXCHANGE	HF
CORRELATION	pRIMP2
BASIS		cc-pvtz
METHOD		rimp2
AUX_BASIS	rimp2-cc-pvtz
SOLVENT_METHOD	PCM
PURECART	11111
SYMMETRY	false
MEM_TOTAL	110000
SCF_CONVERGENCE = 6
THRESH=10
GUI = 2
$end

$solvent
dielectric 4.90
$end
--------------------------------------------------------------

             Standard Nuclear Orientation (Angstroms)
    I     Atom           X                Y                Z
 ----------------------------------------------------------------
    1      C       0.1297430000    -6.7414040000     0.2217660000
    2      C       0.7827260000    -6.1556380000     1.3525150000
    3      C      -0.4119260000    -5.7914520000    -0.7173390000
    4      C       0.9218160000    -4.8037860000     1.5938850000
    5      H       1.2219080000    -6.8215180000     2.1128190000
    6      C      -0.2666820000    -4.3786380000    -0.4643600000
    7      C       0.3982550000    -3.8380320000     0.6880530000
    8      C      -0.7896940000    -3.4130620000    -1.3691080000
    9      C       0.5423490000    -2.4264730000     0.9390020000
   10      C      -0.6525890000    -2.0593480000    -1.1304090000
   11      C       0.0000000000    -1.4782160000     0.0000000000
   12      H      -1.0924530000    -1.3947830000    -1.8914460000
   13      C      -1.1315950000    -6.1879870000    -1.9675190000
   14      C      -1.5049120000    -3.7981640000    -2.6081180000
   15      N      -1.6251740000    -5.1700030000    -2.8198130000
   16      C       1.6391290000    -4.4249870000     2.8361880000
   17      C       1.2634770000    -2.0366270000     2.1895580000
   18      N       1.7568980000    -3.0491560000     3.0422370000
   19      O      -1.3247870000    -7.3531310000    -2.3078450000
   20      O      -1.9673540000    -2.9868540000    -3.4072130000
   21      O       2.0958920000    -5.2489460000     3.6258900000
   22      O       1.4686850000    -0.8788290000     2.5478500000
   23      C      -2.3305640000    -5.5637990000    -4.0436740000
   24      H      -2.3521780000    -6.6640850000    -4.0834070000
   25      H      -1.8072630000    -5.1471010000    -4.9254900000
   26      H      -3.3565680000    -5.1487850000    -4.0318770000
   27      C       2.4520800000    -2.5874870000     4.2472060000
   28      H       2.7743020000    -3.4833290000     4.8031870000
   29      H       1.7733010000    -1.9649720000     4.8605360000
   30      H       3.3213510000    -1.9629320000     3.9666070000
   31      C       0.0000000000     0.0000000000     0.0000000000
   32      S       0.1375350000     0.7811560000     1.5805300000
   33      C       0.4218950000     2.3939940000     0.9049110000
   34      C       0.1731340000     0.9828570000    -0.9854000000
   35      C       0.4022940000     2.2830580000    -0.4935280000
   36      H       0.1322370000     0.7507860000    -2.0599340000
   37      H       0.5551960000     3.1506210000    -1.1525930000
   38      H       0.5747410000     3.2613100000     1.5560250000
   39      H      -0.7016930000    -7.3615890000     0.5781910000
   40      H       0.8548380000    -7.3611920000    -0.3195780000
   41      H      -0.9355720000    -1.4788310000     0.5395400000
 ----------------------------------------------------------------

   11   -1571.7077407495      5.94e-07  Convergence criterion met
 Total energy in the final basis set =    -1571.7077407495
        RIMP2         total energy =     -1576.3746904027 a.u.

                    Orbital Energies (a.u.)
 --------------------------------------------------------------

 Alpha MOs
 -- Occupied --
-91.9757 -20.5511 -20.5456 -20.5423 -20.5411 -15.6287 -15.6219 -11.3969
-11.3863 -11.3842 -11.3797 -11.3113 -11.3092 -11.3073 -11.3056 -11.2983
-11.2905 -11.2897 -11.2702 -11.2694 -11.2690 -11.2656 -11.2640 -11.2598
-11.2538 -11.2468 -11.2380  -8.9760  -6.6565  -6.6557  -6.6551  -1.4257
 -1.4128  -1.4007  -1.3919  -1.2650  -1.2561  -1.2306  -1.1848  -1.1472
 -1.1151  -1.0863  -1.0483  -0.9937  -0.9888  -0.9765  -0.9558  -0.9485
 -0.8970  -0.8896  -0.8787  -0.8620  -0.7916  -0.7790  -0.7743  -0.7614
 -0.7309  -0.7210  -0.7012  -0.6902  -0.6856  -0.6720  -0.6684  -0.6583
 -0.6497  -0.6433  -0.6386  -0.6329  -0.6319  -0.6301  -0.6237  -0.6054
 -0.5876  -0.5724  -0.5645  -0.5618  -0.5582  -0.5526  -0.5520  -0.5488
 -0.5481  -0.5447  -0.5174  -0.5146  -0.5114  -0.4851  -0.4787  -0.4623
 -0.4556  -0.4447  -0.4377  -0.4283  -0.4105  -0.4080  -0.3544  -0.3298
 -0.3236  -0.2803

          Ground-State Mulliken Net Atomic Charges

     Atom                 Charge (a.u.)
  ----------------------------------------
      1 C                    -0.084627
      2 C                    -0.028285
      3 C                    -0.109087
      4 C                    -0.123857
      5 H                     0.199550
      6 C                     0.021525
      7 C                     0.121468
      8 C                    -0.106171
      9 C                    -0.211572
     10 C                    -0.137240
     11 C                     0.251520
     12 H                     0.194962
     13 C                     0.343090
     14 C                     0.351448
     15 N                    -0.090048
     16 C                     0.357489
     17 C                     0.396198
     18 N                    -0.090528
     19 O                    -0.493930
     20 O                    -0.507350
     21 O                    -0.500659
     22 O                    -0.460427
     23 C                    -0.204654
     24 H                     0.139575
     25 H                     0.109297
     26 H                     0.109263
     27 C                    -0.198214
     28 H                     0.134240
     29 H                     0.111974
     30 H                     0.112368
     31 C                    -0.093348
     32 S                     0.061808
     33 C                    -0.226816
     34 C                    -0.167505
     35 C                    -0.240515
     36 H                     0.184994
     37 H                     0.183566
     38 H                     0.206580
     39 H                     0.138354
     40 H                     0.138596
     41 H                     0.206969
  ----------------------------------------
  Sum of atomic charges =     0.000000

                    Cartesian Multipole Moments
 -----------------------------------------------------------------
    Charge (ESU x 10^10)
                 0.0000
    Dipole Moment (Debye)
         X       0.5060      Y       0.9442      Z       1.2654
       Tot       1.6579
    Quadrupole Moments (Debye-Ang)
        XX    -170.2603     XY      -1.6858     YY    -178.2448
        XZ     -12.9445     YZ      -7.9943     ZZ    -179.4119

 Total job time:  327.20s(wall), 9555.14s(cpu)
        *  Thank you very much for using Q-Chem.  Have a nice day.  *
