 Q-Chem 5.4, Q-Chem, Inc., Pleasanton, CA (2021)
 Q-Chem 5.4.0 for Intel X86 EM64T Linux

User input:
--------------------------------------------------------------
$molecule
0 1
C	-0.046070	-6.741404	-0.252767
C	-0.272935	-6.155638	-1.538656
C	0.141739	-5.791452	0.814966
C	-0.321083	-4.803786	-1.813042
H	-0.425592	-6.821518	-2.403318
C	0.091779	-4.378638	0.527566
C	-0.138909	-3.838032	-0.782769
C	0.273808	-3.413062	1.556632
C	-0.188483	-2.426473	-1.067868
C	0.226610	-2.059348	1.285436
C	-0.000000	-1.478216	-0.000000
H	0.379657	-1.394783	2.151019
C	0.390420	-6.187987	2.235891
C	0.522125	-3.798164	2.965540
N	0.562731	-5.170003	3.205600
C	-0.570244	-4.424987	-3.225760
C	-0.438407	-2.036627	-2.489646
N	-0.610438	-3.049156	-3.459662
O	0.455563	-7.353131	2.621768
O	0.683373	-2.986854	3.874608
O	-0.729367	-5.248946	-4.124059
O	-0.508697	-0.878829	-2.896516
C	0.806996	-5.563799	4.596910
H	0.813717	-6.664085	4.641640
H	0.013655	-5.147101	5.246567
H	1.775159	-5.148785	4.936739
C	-0.851572	-2.587487	-4.829729
H	-0.964204	-3.483329	-5.462387
H	-0.003956	-1.964972	-5.173914
H	-1.764390	-1.962932	-4.863360
C	0.000000	0.000000	0.000000
S	0.335026	0.718942	1.580530
C	1.027130	2.203226	0.904911
C	0.421617	0.904557	-0.985400
C	0.979485	2.101144	-0.493528
H	0.322049	0.690978	-2.059934
H	1.351718	2.899571	-1.152593
H	1.399246	3.001430	1.556025
H	0.857128	-7.361589	-0.303328
H	-0.912587	-7.361192	0.007933
H	1.063684	-1.478831	-0.187017
$end

$rem
JOBTYPE		SP
EXCHANGE	HF
CORRELATION	pRIMP2
BASIS		cc-pvtz
METHOD		rimp2
AUX_BASIS	rimp2-cc-pvtz
SOLVENT_METHOD	PCM
PURECART	11111
SYMMETRY	false
MEM_TOTAL	110000
SCF_CONVERGENCE = 6
THRESH=10
GUI = 2
$end

$solvent
dielectric 4.90
$end
--------------------------------------------------------------

             Standard Nuclear Orientation (Angstroms)
    I     Atom           X                Y                Z
 ----------------------------------------------------------------
    1      C      -0.0460700000    -6.7414040000    -0.2527670000
    2      C      -0.2729350000    -6.1556380000    -1.5386560000
    3      C       0.1417390000    -5.7914520000     0.8149660000
    4      C      -0.3210830000    -4.8037860000    -1.8130420000
    5      H      -0.4255920000    -6.8215180000    -2.4033180000
    6      C       0.0917790000    -4.3786380000     0.5275660000
    7      C      -0.1389090000    -3.8380320000    -0.7827690000
    8      C       0.2738080000    -3.4130620000     1.5566320000
    9      C      -0.1884830000    -2.4264730000    -1.0678680000
   10      C       0.2266100000    -2.0593480000     1.2854360000
   11      C       0.0000000000    -1.4782160000     0.0000000000
   12      H       0.3796570000    -1.3947830000     2.1510190000
   13      C       0.3904200000    -6.1879870000     2.2358910000
   14      C       0.5221250000    -3.7981640000     2.9655400000
   15      N       0.5627310000    -5.1700030000     3.2056000000
   16      C      -0.5702440000    -4.4249870000    -3.2257600000
   17      C      -0.4384070000    -2.0366270000    -2.4896460000
   18      N      -0.6104380000    -3.0491560000    -3.4596620000
   19      O       0.4555630000    -7.3531310000     2.6217680000
   20      O       0.6833730000    -2.9868540000     3.8746080000
   21      O      -0.7293670000    -5.2489460000    -4.1240590000
   22      O      -0.5086970000    -0.8788290000    -2.8965160000
   23      C       0.8069960000    -5.5637990000     4.5969100000
   24      H       0.8137170000    -6.6640850000     4.6416400000
   25      H       0.0136550000    -5.1471010000     5.2465670000
   26      H       1.7751590000    -5.1487850000     4.9367390000
   27      C      -0.8515720000    -2.5874870000    -4.8297290000
   28      H      -0.9642040000    -3.4833290000    -5.4623870000
   29      H      -0.0039560000    -1.9649720000    -5.1739140000
   30      H      -1.7643900000    -1.9629320000    -4.8633600000
   31      C       0.0000000000     0.0000000000     0.0000000000
   32      S       0.3350260000     0.7189420000     1.5805300000
   33      C       1.0271300000     2.2032260000     0.9049110000
   34      C       0.4216170000     0.9045570000    -0.9854000000
   35      C       0.9794850000     2.1011440000    -0.4935280000
   36      H       0.3220490000     0.6909780000    -2.0599340000
   37      H       1.3517180000     2.8995710000    -1.1525930000
   38      H       1.3992460000     3.0014300000     1.5560250000
   39      H       0.8571280000    -7.3615890000    -0.3033280000
   40      H      -0.9125870000    -7.3611920000     0.0079330000
   41      H       1.0636840000    -1.4788310000    -0.1870170000
 ----------------------------------------------------------------

   11   -1571.7233354402      5.84e-07  Convergence criterion met
 Total energy in the final basis set =    -1571.7233354402
        RIMP2         total energy =     -1576.3849602124 a.u.

                    Orbital Energies (a.u.)
 --------------------------------------------------------------

 Alpha MOs
 -- Occupied --
-91.9895 -20.5540 -20.5457 -20.5420 -20.5410 -15.6289 -15.6215 -11.3972
-11.3864 -11.3838 -11.3794 -11.3098 -11.3071 -11.3056 -11.3049 -11.2976
-11.2964 -11.2918 -11.2778 -11.2698 -11.2690 -11.2659 -11.2642 -11.2595
-11.2534 -11.2477 -11.2401  -8.9898  -6.6707  -6.6701  -6.6695  -1.4233
 -1.4125  -1.3998  -1.3916  -1.2644  -1.2558  -1.2322  -1.1892  -1.1505
 -1.1149  -1.0869  -1.0485  -0.9962  -0.9886  -0.9844  -0.9557  -0.9489
 -0.8978  -0.8903  -0.8779  -0.8609  -0.7954  -0.7814  -0.7724  -0.7590
 -0.7394  -0.7190  -0.7014  -0.6907  -0.6842  -0.6736  -0.6684  -0.6580
 -0.6491  -0.6475  -0.6379  -0.6319  -0.6314  -0.6294  -0.6239  -0.6051
 -0.5930  -0.5723  -0.5651  -0.5613  -0.5586  -0.5525  -0.5510  -0.5492
 -0.5481  -0.5429  -0.5171  -0.5149  -0.5088  -0.4863  -0.4749  -0.4595
 -0.4575  -0.4508  -0.4430  -0.4359  -0.4155  -0.4081  -0.3579  -0.3493
 -0.3326  -0.2776

          Ground-State Mulliken Net Atomic Charges

     Atom                 Charge (a.u.)
  ----------------------------------------
      1 C                    -0.084134
      2 C                    -0.031590
      3 C                    -0.105118
      4 C                    -0.122555
      5 H                     0.199081
      6 C                     0.024690
      7 C                     0.119856
      8 C                    -0.039910
      9 C                    -0.208438
     10 C                    -0.174410
     11 C                     0.166096
     12 H                     0.186761
     13 C                     0.341210
     14 C                     0.344454
     15 N                    -0.089881
     16 C                     0.357998
     17 C                     0.380914
     18 N                    -0.089214
     19 O                    -0.494089
     20 O                    -0.507256
     21 O                    -0.500570
     22 O                    -0.484313
     23 C                    -0.204944
     24 H                     0.139525
     25 H                     0.109574
     26 H                     0.109235
     27 C                    -0.198576
     28 H                     0.134288
     29 H                     0.111340
     30 H                     0.112437
     31 C                     0.025207
     32 S                    -0.004980
     33 C                    -0.221138
     34 C                    -0.195981
     35 C                    -0.227448
     36 H                     0.219706
     37 H                     0.191087
     38 H                     0.214749
     39 H                     0.138050
     40 H                     0.138295
     41 H                     0.219991
  ----------------------------------------
  Sum of atomic charges =     0.000000

                    Cartesian Multipole Moments
 -----------------------------------------------------------------
    Charge (ESU x 10^10)
                 0.0000
    Dipole Moment (Debye)
         X       1.4658      Y       1.5539      Z      -2.3072
       Tot       3.1442
    Quadrupole Moments (Debye-Ang)
        XX    -161.5941     XY       4.1850     YY    -178.6619
        XZ      -5.4819     YZ       9.6338     ZZ    -187.7941

 Total job time:  310.45s(wall), 9723.84s(cpu)
        *  Thank you very much for using Q-Chem.  Have a nice day.  *
