 Q-Chem 5.4, Q-Chem, Inc., Pleasanton, CA (2021)
 Q-Chem 5.4.0 for Intel X86 EM64T Linux

User input:
--------------------------------------------------------------
$molecule
0 1
C	-0.127184	-6.741404	0.223244
C	-0.779949	-6.155638	1.354118
C	0.415271	-5.791452	-0.715408
C	-0.919437	-4.803786	1.595259
H	-1.218801	-6.821518	2.114613
C	0.268806	-4.378638	-0.463133
C	-0.396744	-3.838032	0.688925
C	0.790835	-3.413062	-1.368449
C	-0.542026	-2.426473	0.939189
C	0.652669	-2.059348	-1.130363
C	0.000000	-1.478216	0.000000
H	1.091814	-1.394783	-1.891815
C	1.138124	-6.187987	-1.963749
C	1.506241	-3.798164	-2.607351
N	1.629443	-5.170003	-2.817348
C	-1.636646	-4.424987	2.837621
C	-1.264474	-2.036627	2.188982
N	-1.756205	-3.049156	3.042637
O	1.336258	-7.353131	-2.301222
O	1.967056	-2.986854	-3.407386
O	-2.092167	-5.248946	3.628041
O	-1.472160	-0.878829	2.545844
C	2.336642	-5.563799	-4.040164
H	2.360245	-6.664085	-4.078749
H	3.361968	-5.147101	-4.027880
H	1.813424	-5.148785	-4.922811
C	-2.452149	-2.587487	4.247167
H	-2.772531	-3.483329	4.804209
H	-3.322697	-1.964972	3.965991
H	-1.774507	-1.962932	4.859678
C	0.000000	0.000000	0.000000
S	0.068929	0.790170	1.580530
C	0.211639	2.421655	0.904911
C	0.086813	0.994207	-0.985400
C	0.201782	2.309433	-0.493528
H	0.066299	0.759454	-2.059934
H	0.278488	3.187020	-1.152593
H	0.288312	3.298992	1.556025
H	-0.851574	-7.361589	-0.318588
H	0.704181	-7.361192	0.580522
H	-0.935042	-1.478831	-0.540459
$end

$rem
JOBTYPE		SP
EXCHANGE	HF
CORRELATION	pRIMP2
BASIS		cc-pvtz
METHOD		rimp2
AUX_BASIS	rimp2-cc-pvtz
SOLVENT_METHOD	PCM
PURECART	11111
SYMMETRY	false
MEM_TOTAL	110000
SCF_CONVERGENCE = 6
THRESH=10
GUI = 2
$end

$solvent
dielectric 4.90
$end
--------------------------------------------------------------

             Standard Nuclear Orientation (Angstroms)
    I     Atom           X                Y                Z
 ----------------------------------------------------------------
    1      C      -0.1271840000    -6.7414040000     0.2232440000
    2      C      -0.7799490000    -6.1556380000     1.3541180000
    3      C       0.4152710000    -5.7914520000    -0.7154080000
    4      C      -0.9194370000    -4.8037860000     1.5952590000
    5      H      -1.2188010000    -6.8215180000     2.1146130000
    6      C       0.2688060000    -4.3786380000    -0.4631330000
    7      C      -0.3967440000    -3.8380320000     0.6889250000
    8      C       0.7908350000    -3.4130620000    -1.3684490000
    9      C      -0.5420260000    -2.4264730000     0.9391890000
   10      C       0.6526690000    -2.0593480000    -1.1303630000
   11      C       0.0000000000    -1.4782160000     0.0000000000
   12      H       1.0918140000    -1.3947830000    -1.8918150000
   13      C       1.1381240000    -6.1879870000    -1.9637490000
   14      C       1.5062410000    -3.7981640000    -2.6073510000
   15      N       1.6294430000    -5.1700030000    -2.8173480000
   16      C      -1.6366460000    -4.4249870000     2.8376210000
   17      C      -1.2644740000    -2.0366270000     2.1889820000
   18      N      -1.7562050000    -3.0491560000     3.0426370000
   19      O       1.3362580000    -7.3531310000    -2.3012220000
   20      O       1.9670560000    -2.9868540000    -3.4073860000
   21      O      -2.0921670000    -5.2489460000     3.6280410000
   22      O      -1.4721600000    -0.8788290000     2.5458440000
   23      C       2.3366420000    -5.5637990000    -4.0401640000
   24      H       2.3602450000    -6.6640850000    -4.0787490000
   25      H       3.3619680000    -5.1471010000    -4.0278800000
   26      H       1.8134240000    -5.1487850000    -4.9228110000
   27      C      -2.4521490000    -2.5874870000     4.2471670000
   28      H      -2.7725310000    -3.4833290000     4.8042090000
   29      H      -3.3226970000    -1.9649720000     3.9659910000
   30      H      -1.7745070000    -1.9629320000     4.8596780000
   31      C       0.0000000000     0.0000000000     0.0000000000
   32      S       0.0689290000     0.7901700000     1.5805300000
   33      C       0.2116390000     2.4216550000     0.9049110000
   34      C       0.0868130000     0.9942070000    -0.9854000000
   35      C       0.2017820000     2.3094330000    -0.4935280000
   36      H       0.0662990000     0.7594540000    -2.0599340000
   37      H       0.2784880000     3.1870200000    -1.1525930000
   38      H       0.2883120000     3.2989920000     1.5560250000
   39      H      -0.8515740000    -7.3615890000    -0.3185880000
   40      H       0.7041810000    -7.3611920000     0.5805220000
   41      H      -0.9350420000    -1.4788310000    -0.5404590000
 ----------------------------------------------------------------

   11   -1571.7249617566      5.88e-07  Convergence criterion met
 Total energy in the final basis set =    -1571.7249617566
        RIMP2         total energy =     -1576.3878493973 a.u.

                    Orbital Energies (a.u.)
 --------------------------------------------------------------

 Alpha MOs
 -- Occupied --
-91.9768 -20.5523 -20.5455 -20.5424 -20.5413 -15.6285 -15.6220 -11.3962
-11.3863 -11.3843 -11.3799 -11.3116 -11.3098 -11.3077 -11.3057 -11.2984
-11.2964 -11.2917 -11.2704 -11.2695 -11.2673 -11.2659 -11.2637 -11.2599
-11.2539 -11.2489 -11.2417  -8.9767  -6.6573  -6.6565  -6.6560  -1.4241
 -1.4129  -1.4001  -1.3921  -1.2644  -1.2563  -1.2311  -1.1856  -1.1483
 -1.1154  -1.0869  -1.0485  -0.9940  -0.9888  -0.9774  -0.9559  -0.9492
 -0.8972  -0.8899  -0.8786  -0.8618  -0.7928  -0.7792  -0.7732  -0.7587
 -0.7350  -0.7192  -0.7023  -0.6907  -0.6836  -0.6758  -0.6677  -0.6583
 -0.6491  -0.6471  -0.6370  -0.6331  -0.6319  -0.6312  -0.6218  -0.6055
 -0.5871  -0.5734  -0.5640  -0.5616  -0.5589  -0.5529  -0.5518  -0.5491
 -0.5484  -0.5448  -0.5191  -0.5133  -0.5117  -0.4843  -0.4780  -0.4619
 -0.4558  -0.4451  -0.4380  -0.4306  -0.4114  -0.4082  -0.3548  -0.3380
 -0.3272  -0.2800

          Ground-State Mulliken Net Atomic Charges

     Atom                 Charge (a.u.)
  ----------------------------------------
      1 C                    -0.084392
      2 C                    -0.029041
      3 C                    -0.108839
      4 C                    -0.125751
      5 H                     0.199855
      6 C                     0.025318
      7 C                     0.129755
      8 C                    -0.089607
      9 C                    -0.178391
     10 C                    -0.167767
     11 C                     0.236832
     12 H                     0.192594
     13 C                     0.342164
     14 C                     0.350517
     15 N                    -0.090050
     16 C                     0.357882
     17 C                     0.374491
     18 N                    -0.091066
     19 O                    -0.493817
     20 O                    -0.507610
     21 O                    -0.500763
     22 O                    -0.469910
     23 C                    -0.204702
     24 H                     0.139619
     25 H                     0.109544
     26 H                     0.109095
     27 C                    -0.197579
     28 H                     0.134020
     29 H                     0.111814
     30 H                     0.112510
     31 C                    -0.056638
     32 S                     0.069010
     33 C                    -0.239676
     34 C                    -0.196825
     35 C                    -0.226191
     36 H                     0.182201
     37 H                     0.185186
     38 H                     0.205971
     39 H                     0.138307
     40 H                     0.138805
     41 H                     0.213125
  ----------------------------------------
  Sum of atomic charges =     0.000000

                    Cartesian Multipole Moments
 -----------------------------------------------------------------
    Charge (ESU x 10^10)
                 0.0000
    Dipole Moment (Debye)
         X      -1.5138      Y       0.9826      Z       0.1006
       Tot       1.8075
    Quadrupole Moments (Debye-Ang)
        XX    -170.5211     XY       6.4971     YY    -177.5912
        XZ      13.5211     YZ      -6.7051     ZZ    -180.0181

 Total job time:  292.04s(wall), 8931.26s(cpu)
        *  Thank you very much for using Q-Chem.  Have a nice day.  *
