 Q-Chem 5.4, Q-Chem, Inc., Pleasanton, CA (2021)
 Q-Chem 5.4.0 for Intel X86 EM64T Linux

User input:
--------------------------------------------------------------
$molecule
0 1
C	0.043160	-6.741404	-0.253280
C	0.269777	-6.155638	-1.539213
C	-0.145543	-5.791452	0.814295
C	0.318377	-4.803786	-1.813519
H	0.422058	-6.821518	-2.403941
C	-0.094194	-4.378638	0.527140
C	0.137191	-3.838032	-0.783072
C	-0.275104	-3.413062	1.556403
C	0.188116	-2.426473	-1.067932
C	-0.226701	-2.059348	1.285420
C	-0.000000	-1.478216	-0.000000
H	-0.378931	-1.394783	2.151147
C	-0.397845	-6.187987	2.234582
C	-0.523637	-3.798164	2.965273
N	-0.567586	-5.170003	3.204744
C	0.567421	-4.424987	-3.226257
C	0.439541	-2.036627	-2.489446
N	0.609650	-3.049156	-3.459801
O	-0.468608	-7.353131	2.619468
O	-0.683034	-2.986854	3.874668
O	0.725131	-5.248946	-4.124806
O	0.512648	-0.878829	-2.895819
C	-0.813908	-5.563799	4.595691
H	-0.822891	-6.664085	4.640022
H	-1.781600	-5.147101	4.934830
H	-0.020360	-5.148785	5.246157
C	0.851649	-2.587487	-4.829716
H	0.962191	-3.483329	-5.462742
H	1.765865	-1.964972	-4.863242
H	0.005383	-1.962932	-5.173521
C	0.000000	0.000000	0.000000
S	0.335026	0.718942	1.580530
C	1.027130	2.203226	0.904911
C	0.421617	0.904557	-0.985400
C	0.979485	2.101144	-0.493528
H	0.322049	0.690978	-2.059934
H	1.351718	2.899571	-1.152593
H	1.399246	3.001430	1.556025
H	0.909181	-7.361589	0.008120
H	-0.860264	-7.361192	-0.304668
H	1.063500	-1.478831	0.188062
$end

$rem
JOBTYPE		SP
EXCHANGE	HF
CORRELATION	pRIMP2
BASIS		cc-pvtz
METHOD		rimp2
AUX_BASIS	rimp2-cc-pvtz
SOLVENT_METHOD	PCM
PURECART	11111
SYMMETRY	false
MEM_TOTAL	110000
SCF_CONVERGENCE = 6
THRESH=10
GUI = 2
$end

$solvent
dielectric 4.90
$end
--------------------------------------------------------------

             Standard Nuclear Orientation (Angstroms)
    I     Atom           X                Y                Z
 ----------------------------------------------------------------
    1      C       0.0431600000    -6.7414040000    -0.2532800000
    2      C       0.2697770000    -6.1556380000    -1.5392130000
    3      C      -0.1455430000    -5.7914520000     0.8142950000
    4      C       0.3183770000    -4.8037860000    -1.8135190000
    5      H       0.4220580000    -6.8215180000    -2.4039410000
    6      C      -0.0941940000    -4.3786380000     0.5271400000
    7      C       0.1371910000    -3.8380320000    -0.7830720000
    8      C      -0.2751040000    -3.4130620000     1.5564030000
    9      C       0.1881160000    -2.4264730000    -1.0679320000
   10      C      -0.2267010000    -2.0593480000     1.2854200000
   11      C       0.0000000000    -1.4782160000     0.0000000000
   12      H      -0.3789310000    -1.3947830000     2.1511470000
   13      C      -0.3978450000    -6.1879870000     2.2345820000
   14      C      -0.5236370000    -3.7981640000     2.9652730000
   15      N      -0.5675860000    -5.1700030000     3.2047440000
   16      C       0.5674210000    -4.4249870000    -3.2262570000
   17      C       0.4395410000    -2.0366270000    -2.4894460000
   18      N       0.6096500000    -3.0491560000    -3.4598010000
   19      O      -0.4686080000    -7.3531310000     2.6194680000
   20      O      -0.6830340000    -2.9868540000     3.8746680000
   21      O       0.7251310000    -5.2489460000    -4.1248060000
   22      O       0.5126480000    -0.8788290000    -2.8958190000
   23      C      -0.8139080000    -5.5637990000     4.5956910000
   24      H      -0.8228910000    -6.6640850000     4.6400220000
   25      H      -1.7816000000    -5.1471010000     4.9348300000
   26      H      -0.0203600000    -5.1487850000     5.2461570000
   27      C       0.8516490000    -2.5874870000    -4.8297160000
   28      H       0.9621910000    -3.4833290000    -5.4627420000
   29      H       1.7658650000    -1.9649720000    -4.8632420000
   30      H       0.0053830000    -1.9629320000    -5.1735210000
   31      C       0.0000000000     0.0000000000     0.0000000000
   32      S       0.3350260000     0.7189420000     1.5805300000
   33      C       1.0271300000     2.2032260000     0.9049110000
   34      C       0.4216170000     0.9045570000    -0.9854000000
   35      C       0.9794850000     2.1011440000    -0.4935280000
   36      H       0.3220490000     0.6909780000    -2.0599340000
   37      H       1.3517180000     2.8995710000    -1.1525930000
   38      H       1.3992460000     3.0014300000     1.5560250000
   39      H       0.9091810000    -7.3615890000     0.0081200000
   40      H      -0.8602640000    -7.3611920000    -0.3046680000
   41      H       1.0635000000    -1.4788310000     0.1880620000
 ----------------------------------------------------------------

   11   -1571.7193271916      5.79e-07  Convergence criterion met
 Total energy in the final basis set =    -1571.7193271916
        RIMP2         total energy =     -1576.3808400391 a.u.

                    Orbital Energies (a.u.)
 --------------------------------------------------------------

 Alpha MOs
 -- Occupied --
-91.9875 -20.5532 -20.5460 -20.5424 -20.5413 -15.6296 -15.6218 -11.3986
-11.3868 -11.3842 -11.3798 -11.3098 -11.3086 -11.3062 -11.3053 -11.2977
-11.2927 -11.2910 -11.2777 -11.2705 -11.2692 -11.2669 -11.2646 -11.2596
-11.2536 -11.2458 -11.2351  -8.9878  -6.6687  -6.6682  -6.6675  -1.4248
 -1.4128  -1.4006  -1.3920  -1.2652  -1.2561  -1.2320  -1.1885  -1.1498
 -1.1152  -1.0869  -1.0487  -0.9960  -0.9889  -0.9821  -0.9560  -0.9487
 -0.8980  -0.8904  -0.8784  -0.8616  -0.7940  -0.7810  -0.7733  -0.7594
 -0.7401  -0.7233  -0.7024  -0.6893  -0.6818  -0.6750  -0.6684  -0.6583
 -0.6494  -0.6477  -0.6382  -0.6324  -0.6317  -0.6300  -0.6242  -0.6053
 -0.5926  -0.5707  -0.5638  -0.5616  -0.5574  -0.5525  -0.5519  -0.5489
 -0.5482  -0.5426  -0.5176  -0.5144  -0.5094  -0.4851  -0.4737  -0.4601
 -0.4574  -0.4483  -0.4425  -0.4364  -0.4165  -0.4083  -0.3578  -0.3484
 -0.3318  -0.2773

          Ground-State Mulliken Net Atomic Charges

     Atom                 Charge (a.u.)
  ----------------------------------------
      1 C                    -0.083726
      2 C                    -0.031442
      3 C                    -0.106600
      4 C                    -0.121690
      5 H                     0.199001
      6 C                     0.023596
      7 C                     0.121193
      8 C                    -0.055217
      9 C                    -0.203824
     10 C                    -0.158174
     11 C                     0.184582
     12 H                     0.182797
     13 C                     0.342587
     14 C                     0.346050
     15 N                    -0.090159
     16 C                     0.358167
     17 C                     0.385666
     18 N                    -0.087527
     19 O                    -0.493405
     20 O                    -0.506073
     21 O                    -0.500095
     22 O                    -0.477408
     23 C                    -0.204784
     24 H                     0.139543
     25 H                     0.109541
     26 H                     0.109448
     27 C                    -0.198976
     28 H                     0.134625
     29 H                     0.111729
     30 H                     0.112294
     31 C                     0.016014
     32 S                    -0.007996
     33 C                    -0.239253
     34 C                    -0.231389
     35 C                    -0.203355
     36 H                     0.222499
     37 H                     0.191261
     38 H                     0.213957
     39 H                     0.138147
     40 H                     0.138563
     41 H                     0.219834
  ----------------------------------------
  Sum of atomic charges =     0.000000

                    Cartesian Multipole Moments
 -----------------------------------------------------------------
    Charge (ESU x 10^10)
                 0.0000
    Dipole Moment (Debye)
         X       1.8690      Y       1.3936      Z      -2.2763
       Tot       3.2583
    Quadrupole Moments (Debye-Ang)
        XX    -161.5231     XY       1.1659     YY    -177.9996
        XZ       5.4608     YZ       9.0335     ZZ    -187.5132

 Total job time:  325.34s(wall), 9251.30s(cpu)
        *  Thank you very much for using Q-Chem.  Have a nice day.  *
