 Q-Chem 5.4, Q-Chem, Inc., Pleasanton, CA (2021)
 Q-Chem 5.4.0 for Intel X86 EM64T Linux

User input:
--------------------------------------------------------------
$molecule
0 1
C	-0.164018	-6.741404	0.197767
C	-1.003240	-6.155638	1.198109
C	0.533192	-5.791452	-0.632428
C	-1.182482	-4.803786	1.411364
H	-1.567483	-6.821518	1.870845
C	0.345145	-4.378638	-0.409419
C	-0.510347	-3.838032	0.609565
C	1.016449	-3.413062	-1.210332
C	-0.696879	-2.426473	0.830799
C	0.839039	-2.059348	-0.999856
C	0.000000	-1.478216	0.000000
H	1.403737	-1.394783	-1.673483
C	1.461835	-6.187987	-1.736282
C	1.936119	-3.798164	-2.306183
N	2.093916	-5.170003	-2.491597
C	-2.104529	-4.424987	2.510310
C	-1.625377	-2.036627	1.936153
N	-2.257873	-3.049156	2.691451
O	1.715561	-7.353131	-2.034222
O	2.528858	-2.986854	-3.014044
O	-2.690385	-5.248946	3.209622
O	-1.891876	-0.878829	2.251529
C	3.002711	-5.563799	-3.573032
H	3.032655	-6.664085	-3.606932
H	4.010326	-5.147101	-3.382888
H	2.640711	-5.148785	-4.533125
C	-3.152408	-2.587487	3.756832
H	-3.564653	-3.483329	4.249778
H	-3.960905	-1.964972	3.328759
H	-2.591422	-1.962932	4.477709
C	0.000000	0.000000	0.000000
S	0.396411	0.687007	1.580530
C	1.215245	2.105322	0.904911
C	0.498850	0.864369	-0.985400
C	1.158885	2.007781	-0.493528
H	0.381046	0.660280	-2.059934
H	1.599289	2.770727	-1.152593
H	1.655514	2.868056	1.556025
H	-0.783314	-7.361589	-0.461623
H	0.592677	-7.361192	0.693983
H	-0.826987	-1.478831	-0.694617
$end

$rem
JOBTYPE		SP
EXCHANGE	HF
CORRELATION	pRIMP2
BASIS		cc-pvtz
METHOD		rimp2
AUX_BASIS	rimp2-cc-pvtz
SOLVENT_METHOD	PCM
PURECART	11111
SYMMETRY	false
MEM_TOTAL	110000
SCF_CONVERGENCE = 6
THRESH=10
GUI = 2
$end

$solvent
dielectric 4.90
$end
--------------------------------------------------------------

             Standard Nuclear Orientation (Angstroms)
    I     Atom           X                Y                Z
 ----------------------------------------------------------------
    1      C      -0.1640180000    -6.7414040000     0.1977670000
    2      C      -1.0032400000    -6.1556380000     1.1981090000
    3      C       0.5331920000    -5.7914520000    -0.6324280000
    4      C      -1.1824820000    -4.8037860000     1.4113640000
    5      H      -1.5674830000    -6.8215180000     1.8708450000
    6      C       0.3451450000    -4.3786380000    -0.4094190000
    7      C      -0.5103470000    -3.8380320000     0.6095650000
    8      C       1.0164490000    -3.4130620000    -1.2103320000
    9      C      -0.6968790000    -2.4264730000     0.8307990000
   10      C       0.8390390000    -2.0593480000    -0.9998560000
   11      C       0.0000000000    -1.4782160000     0.0000000000
   12      H       1.4037370000    -1.3947830000    -1.6734830000
   13      C       1.4618350000    -6.1879870000    -1.7362820000
   14      C       1.9361190000    -3.7981640000    -2.3061830000
   15      N       2.0939160000    -5.1700030000    -2.4915970000
   16      C      -2.1045290000    -4.4249870000     2.5103100000
   17      C      -1.6253770000    -2.0366270000     1.9361530000
   18      N      -2.2578730000    -3.0491560000     2.6914510000
   19      O       1.7155610000    -7.3531310000    -2.0342220000
   20      O       2.5288580000    -2.9868540000    -3.0140440000
   21      O      -2.6903850000    -5.2489460000     3.2096220000
   22      O      -1.8918760000    -0.8788290000     2.2515290000
   23      C       3.0027110000    -5.5637990000    -3.5730320000
   24      H       3.0326550000    -6.6640850000    -3.6069320000
   25      H       4.0103260000    -5.1471010000    -3.3828880000
   26      H       2.6407110000    -5.1487850000    -4.5331250000
   27      C      -3.1524080000    -2.5874870000     3.7568320000
   28      H      -3.5646530000    -3.4833290000     4.2497780000
   29      H      -3.9609050000    -1.9649720000     3.3287590000
   30      H      -2.5914220000    -1.9629320000     4.4777090000
   31      C       0.0000000000     0.0000000000     0.0000000000
   32      S       0.3964110000     0.6870070000     1.5805300000
   33      C       1.2152450000     2.1053220000     0.9049110000
   34      C       0.4988500000     0.8643690000    -0.9854000000
   35      C       1.1588850000     2.0077810000    -0.4935280000
   36      H       0.3810460000     0.6602800000    -2.0599340000
   37      H       1.5992890000     2.7707270000    -1.1525930000
   38      H       1.6555140000     2.8680560000     1.5560250000
   39      H      -0.7833140000    -7.3615890000    -0.4616230000
   40      H       0.5926770000    -7.3611920000     0.6939830000
   41      H      -0.8269870000    -1.4788310000    -0.6946170000
 ----------------------------------------------------------------

   11   -1571.7267375608      5.74e-07  Convergence criterion met
 Total energy in the final basis set =    -1571.7267375608
        RIMP2         total energy =     -1576.3890085400 a.u.

                    Orbital Energies (a.u.)
 --------------------------------------------------------------

 Alpha MOs
 -- Occupied --
-91.9828 -20.5535 -20.5447 -20.5410 -20.5404 -15.6275 -15.6212 -11.3948
-11.3854 -11.3830 -11.3790 -11.3093 -11.3085 -11.3060 -11.3045 -11.2969
-11.2923 -11.2892 -11.2805 -11.2683 -11.2680 -11.2639 -11.2630 -11.2595
-11.2581 -11.2525 -11.2490  -8.9827  -6.6634  -6.6627  -6.6622  -1.4214
 -1.4120  -1.3984  -1.3911  -1.2629  -1.2553  -1.2304  -1.1872  -1.1514
 -1.1142  -1.0860  -1.0471  -0.9956  -0.9881  -0.9833  -0.9552  -0.9499
 -0.8966  -0.8884  -0.8770  -0.8599  -0.7928  -0.7775  -0.7721  -0.7632
 -0.7365  -0.7169  -0.7033  -0.6919  -0.6819  -0.6738  -0.6671  -0.6574
 -0.6474  -0.6451  -0.6368  -0.6327  -0.6308  -0.6284  -0.6210  -0.6054
 -0.5858  -0.5748  -0.5676  -0.5622  -0.5585  -0.5517  -0.5509  -0.5477
 -0.5473  -0.5440  -0.5237  -0.5111  -0.5085  -0.4818  -0.4735  -0.4595
 -0.4562  -0.4486  -0.4421  -0.4343  -0.4132  -0.4074  -0.3542  -0.3489
 -0.3307  -0.2810

          Ground-State Mulliken Net Atomic Charges

     Atom                 Charge (a.u.)
  ----------------------------------------
      1 C                    -0.084696
      2 C                    -0.030467
      3 C                    -0.110975
      4 C                    -0.124784
      5 H                     0.199091
      6 C                     0.024486
      7 C                     0.121966
      8 C                    -0.093046
      9 C                    -0.172933
     10 C                    -0.157842
     11 C                     0.204699
     12 H                     0.195186
     13 C                     0.341220
     14 C                     0.348954
     15 N                    -0.089669
     16 C                     0.356926
     17 C                     0.355851
     18 N                    -0.090568
     19 O                    -0.495724
     20 O                    -0.509331
     21 O                    -0.501147
     22 O                    -0.473543
     23 C                    -0.205059
     24 H                     0.139566
     25 H                     0.109232
     26 H                     0.108721
     27 C                    -0.197574
     28 H                     0.133520
     29 H                     0.111754
     30 H                     0.112180
     31 C                    -0.007404
     32 S                     0.052081
     33 C                    -0.218960
     34 C                    -0.235962
     35 C                    -0.191425
     36 H                     0.188823
     37 H                     0.191131
     38 H                     0.208965
     39 H                     0.137261
     40 H                     0.137804
     41 H                     0.211693
  ----------------------------------------
  Sum of atomic charges =     0.000000

                    Cartesian Multipole Moments
 -----------------------------------------------------------------
    Charge (ESU x 10^10)
                 0.0000
    Dipole Moment (Debye)
         X      -0.5056      Y       1.9837      Z      -0.5748
       Tot       2.1263
    Quadrupole Moments (Debye-Ang)
        XX    -173.5493     XY      11.7653     YY    -181.3704
        XZ      16.5222     YZ      -5.7748     ZZ    -175.5668

 Total job time:  291.99s(wall), 8917.81s(cpu)
        *  Thank you very much for using Q-Chem.  Have a nice day.  *
