 Q-Chem 5.4, Q-Chem, Inc., Pleasanton, CA (2021)
 Q-Chem 5.4.0 for Intel X86 EM64T Linux

User input:
--------------------------------------------------------------
$molecule
0 1
C	0.221766	-6.741404	-0.129743
C	1.352515	-6.155638	-0.782726
C	-0.717339	-5.791452	0.411926
C	1.593885	-4.803786	-0.921816
H	2.112819	-6.821518	-1.221908
C	-0.464360	-4.378638	0.266682
C	0.688053	-3.838032	-0.398255
C	-1.369108	-3.413062	0.789694
C	0.939002	-2.426473	-0.542349
C	-1.130409	-2.059348	0.652589
C	0.000000	-1.478216	0.000000
H	-1.891446	-1.394783	1.092453
C	-1.967519	-6.187987	1.131595
C	-2.608118	-3.798164	1.504912
N	-2.819813	-5.170003	1.625174
C	2.836188	-4.424987	-1.639129
C	2.189558	-2.036627	-1.263477
N	3.042237	-3.049156	-1.756898
O	-2.307845	-7.353131	1.324787
O	-3.407213	-2.986854	1.967354
O	3.625890	-5.248946	-2.095892
O	2.547850	-0.878829	-1.468685
C	-4.043674	-5.563799	2.330564
H	-4.083407	-6.664085	2.352178
H	-4.925490	-5.147101	1.807263
H	-4.031877	-5.148785	3.356568
C	4.247206	-2.587487	-2.452080
H	4.803187	-3.483329	-2.774302
H	4.860536	-1.964972	-1.773301
H	3.966607	-1.962932	-3.321351
C	0.000000	0.000000	0.000000
S	0.068929	0.790170	1.580530
C	0.211639	2.421655	0.904911
C	0.086813	0.994207	-0.985400
C	0.201782	2.309433	-0.493528
H	0.066299	0.759454	-2.059934
H	0.278488	3.187020	-1.152593
H	0.288312	3.298992	1.556025
H	0.578191	-7.361589	0.701693
H	-0.319578	-7.361192	-0.854838
H	0.539540	-1.478831	0.935572
$end

$rem
JOBTYPE		SP
EXCHANGE	HF
CORRELATION	pRIMP2
BASIS		cc-pvtz
METHOD		rimp2
AUX_BASIS	rimp2-cc-pvtz
SOLVENT_METHOD	PCM
PURECART	11111
SYMMETRY	false
MEM_TOTAL	110000
SCF_CONVERGENCE = 6
THRESH=10
GUI = 2
$end

$solvent
dielectric 4.90
$end
--------------------------------------------------------------

             Standard Nuclear Orientation (Angstroms)
    I     Atom           X                Y                Z
 ----------------------------------------------------------------
    1      C       0.2217660000    -6.7414040000    -0.1297430000
    2      C       1.3525150000    -6.1556380000    -0.7827260000
    3      C      -0.7173390000    -5.7914520000     0.4119260000
    4      C       1.5938850000    -4.8037860000    -0.9218160000
    5      H       2.1128190000    -6.8215180000    -1.2219080000
    6      C      -0.4643600000    -4.3786380000     0.2666820000
    7      C       0.6880530000    -3.8380320000    -0.3982550000
    8      C      -1.3691080000    -3.4130620000     0.7896940000
    9      C       0.9390020000    -2.4264730000    -0.5423490000
   10      C      -1.1304090000    -2.0593480000     0.6525890000
   11      C       0.0000000000    -1.4782160000     0.0000000000
   12      H      -1.8914460000    -1.3947830000     1.0924530000
   13      C      -1.9675190000    -6.1879870000     1.1315950000
   14      C      -2.6081180000    -3.7981640000     1.5049120000
   15      N      -2.8198130000    -5.1700030000     1.6251740000
   16      C       2.8361880000    -4.4249870000    -1.6391290000
   17      C       2.1895580000    -2.0366270000    -1.2634770000
   18      N       3.0422370000    -3.0491560000    -1.7568980000
   19      O      -2.3078450000    -7.3531310000     1.3247870000
   20      O      -3.4072130000    -2.9868540000     1.9673540000
   21      O       3.6258900000    -5.2489460000    -2.0958920000
   22      O       2.5478500000    -0.8788290000    -1.4686850000
   23      C      -4.0436740000    -5.5637990000     2.3305640000
   24      H      -4.0834070000    -6.6640850000     2.3521780000
   25      H      -4.9254900000    -5.1471010000     1.8072630000
   26      H      -4.0318770000    -5.1487850000     3.3565680000
   27      C       4.2472060000    -2.5874870000    -2.4520800000
   28      H       4.8031870000    -3.4833290000    -2.7743020000
   29      H       4.8605360000    -1.9649720000    -1.7733010000
   30      H       3.9666070000    -1.9629320000    -3.3213510000
   31      C       0.0000000000     0.0000000000     0.0000000000
   32      S       0.0689290000     0.7901700000     1.5805300000
   33      C       0.2116390000     2.4216550000     0.9049110000
   34      C       0.0868130000     0.9942070000    -0.9854000000
   35      C       0.2017820000     2.3094330000    -0.4935280000
   36      H       0.0662990000     0.7594540000    -2.0599340000
   37      H       0.2784880000     3.1870200000    -1.1525930000
   38      H       0.2883120000     3.2989920000     1.5560250000
   39      H       0.5781910000    -7.3615890000     0.7016930000
   40      H      -0.3195780000    -7.3611920000    -0.8548380000
   41      H       0.5395400000    -1.4788310000     0.9355720000
 ----------------------------------------------------------------

   11   -1571.7451536087      5.64e-07  Convergence criterion met
 Total energy in the final basis set =    -1571.7451536087
        RIMP2         total energy =     -1576.3995578605 a.u.

                    Orbital Energies (a.u.)
 --------------------------------------------------------------

 Alpha MOs
 -- Occupied --
-91.9931 -20.5512 -20.5444 -20.5419 -20.5406 -15.6267 -15.6213 -11.3930
-11.3851 -11.3837 -11.3792 -11.3087 -11.3087 -11.3050 -11.3048 -11.2966
-11.2946 -11.2898 -11.2815 -11.2694 -11.2681 -11.2650 -11.2629 -11.2594
-11.2528 -11.2512 -11.2501  -8.9928  -6.6736  -6.6732  -6.6725  -1.4191
 -1.4123  -1.3970  -1.3914  -1.2619  -1.2555  -1.2303  -1.1871  -1.1523
 -1.1141  -1.0871  -1.0468  -0.9962  -0.9877  -0.9836  -0.9551  -0.9507
 -0.8963  -0.8876  -0.8768  -0.8601  -0.7938  -0.7758  -0.7714  -0.7678
 -0.7409  -0.7152  -0.7035  -0.6913  -0.6768  -0.6714  -0.6674  -0.6572
 -0.6471  -0.6430  -0.6383  -0.6317  -0.6309  -0.6268  -0.6226  -0.6052
 -0.5855  -0.5746  -0.5653  -0.5608  -0.5567  -0.5513  -0.5499  -0.5478
 -0.5469  -0.5436  -0.5213  -0.5170  -0.5091  -0.4823  -0.4752  -0.4687
 -0.4578  -0.4512  -0.4428  -0.4348  -0.4132  -0.4075  -0.3558  -0.3520
 -0.3283  -0.2869

          Ground-State Mulliken Net Atomic Charges

     Atom                 Charge (a.u.)
  ----------------------------------------
      1 C                    -0.085108
      2 C                    -0.029446
      3 C                    -0.110879
      4 C                    -0.124632
      5 H                     0.198851
      6 C                     0.015386
      7 C                     0.123644
      8 C                    -0.078884
      9 C                    -0.152311
     10 C                    -0.163713
     11 C                     0.246466
     12 H                     0.196267
     13 C                     0.343806
     14 C                     0.349820
     15 N                    -0.089973
     16 C                     0.357547
     17 C                     0.348238
     18 N                    -0.089397
     19 O                    -0.494078
     20 O                    -0.506874
     21 O                    -0.501739
     22 O                    -0.469024
     23 C                    -0.204693
     24 H                     0.139413
     25 H                     0.109232
     26 H                     0.109206
     27 C                    -0.197233
     28 H                     0.133330
     29 H                     0.111653
     30 H                     0.111099
     31 C                    -0.086906
     32 S                     0.010824
     33 C                    -0.217686
     34 C                    -0.150184
     35 C                    -0.207257
     36 H                     0.184786
     37 H                     0.190805
     38 H                     0.212629
     39 H                     0.137597
     40 H                     0.137944
     41 H                     0.191477
  ----------------------------------------
  Sum of atomic charges =     0.000000

                    Cartesian Multipole Moments
 -----------------------------------------------------------------
    Charge (ESU x 10^10)
                 0.0000
    Dipole Moment (Debye)
         X       1.3700      Y       2.2371      Z      -0.8409
       Tot       2.7548
    Quadrupole Moments (Debye-Ang)
        XX    -187.5112     XY      -7.1361     YY    -177.2410
        XZ      14.5211     YZ       3.8889     ZZ    -164.6509

 Total job time:  291.19s(wall), 8924.59s(cpu)
        *  Thank you very much for using Q-Chem.  Have a nice day.  *
