 Q-Chem 5.4, Q-Chem, Inc., Pleasanton, CA (2021)
 Q-Chem 5.4.0 for Intel X86 EM64T Linux

User input:
--------------------------------------------------------------
$molecule
0 1
C	-0.164018	-6.741404	0.197767
C	-1.003240	-6.155638	1.198109
C	0.533192	-5.791452	-0.632428
C	-1.182482	-4.803786	1.411364
H	-1.567483	-6.821518	1.870845
C	0.345145	-4.378638	-0.409419
C	-0.510347	-3.838032	0.609565
C	1.016449	-3.413062	-1.210332
C	-0.696879	-2.426473	0.830799
C	0.839039	-2.059348	-0.999856
C	-0.000000	-1.478216	-0.000000
H	1.403737	-1.394783	-1.673483
C	1.461835	-6.187987	-1.736282
C	1.936119	-3.798164	-2.306183
N	2.093916	-5.170003	-2.491597
C	-2.104529	-4.424987	2.510310
C	-1.625377	-2.036627	1.936153
N	-2.257873	-3.049156	2.691451
O	1.715561	-7.353131	-2.034222
O	2.528858	-2.986854	-3.014044
O	-2.690385	-5.248946	3.209622
O	-1.891876	-0.878829	2.251529
C	3.002711	-5.563799	-3.573032
H	3.032655	-6.664085	-3.606932
H	4.010326	-5.147101	-3.382888
H	2.640711	-5.148785	-4.533125
C	-3.152408	-2.587487	3.756832
H	-3.564653	-3.483329	4.249778
H	-3.960905	-1.964972	3.328759
H	-2.591422	-1.962932	4.477709
C	0.000000	0.000000	0.000000
S	0.686805	0.396760	1.580530
C	2.105095	1.215640	0.904911
C	0.864201	0.499140	-0.985400
C	2.007514	1.159347	-0.493528
H	0.660136	0.381296	-2.059934
H	2.770388	1.599875	-1.152593
H	2.867745	1.656053	1.556025
H	-0.783314	-7.361589	-0.461623
H	0.592677	-7.361192	0.693983
H	-0.826987	-1.478831	-0.694617
$end

$rem
JOBTYPE		SP
EXCHANGE	HF
CORRELATION	pRIMP2
BASIS		cc-pvtz
METHOD		rimp2
AUX_BASIS	rimp2-cc-pvtz
SOLVENT_METHOD	PCM
PURECART	11111
SYMMETRY	false
MEM_TOTAL	110000
SCF_CONVERGENCE = 6
THRESH=10
GUI = 2
$end

$solvent
dielectric 4.90
$end
--------------------------------------------------------------

             Standard Nuclear Orientation (Angstroms)
    I     Atom           X                Y                Z
 ----------------------------------------------------------------
    1      C      -0.1640180000    -6.7414040000     0.1977670000
    2      C      -1.0032400000    -6.1556380000     1.1981090000
    3      C       0.5331920000    -5.7914520000    -0.6324280000
    4      C      -1.1824820000    -4.8037860000     1.4113640000
    5      H      -1.5674830000    -6.8215180000     1.8708450000
    6      C       0.3451450000    -4.3786380000    -0.4094190000
    7      C      -0.5103470000    -3.8380320000     0.6095650000
    8      C       1.0164490000    -3.4130620000    -1.2103320000
    9      C      -0.6968790000    -2.4264730000     0.8307990000
   10      C       0.8390390000    -2.0593480000    -0.9998560000
   11      C       0.0000000000    -1.4782160000     0.0000000000
   12      H       1.4037370000    -1.3947830000    -1.6734830000
   13      C       1.4618350000    -6.1879870000    -1.7362820000
   14      C       1.9361190000    -3.7981640000    -2.3061830000
   15      N       2.0939160000    -5.1700030000    -2.4915970000
   16      C      -2.1045290000    -4.4249870000     2.5103100000
   17      C      -1.6253770000    -2.0366270000     1.9361530000
   18      N      -2.2578730000    -3.0491560000     2.6914510000
   19      O       1.7155610000    -7.3531310000    -2.0342220000
   20      O       2.5288580000    -2.9868540000    -3.0140440000
   21      O      -2.6903850000    -5.2489460000     3.2096220000
   22      O      -1.8918760000    -0.8788290000     2.2515290000
   23      C       3.0027110000    -5.5637990000    -3.5730320000
   24      H       3.0326550000    -6.6640850000    -3.6069320000
   25      H       4.0103260000    -5.1471010000    -3.3828880000
   26      H       2.6407110000    -5.1487850000    -4.5331250000
   27      C      -3.1524080000    -2.5874870000     3.7568320000
   28      H      -3.5646530000    -3.4833290000     4.2497780000
   29      H      -3.9609050000    -1.9649720000     3.3287590000
   30      H      -2.5914220000    -1.9629320000     4.4777090000
   31      C       0.0000000000     0.0000000000     0.0000000000
   32      S       0.6868050000     0.3967600000     1.5805300000
   33      C       2.1050950000     1.2156400000     0.9049110000
   34      C       0.8642010000     0.4991400000    -0.9854000000
   35      C       2.0075140000     1.1593470000    -0.4935280000
   36      H       0.6601360000     0.3812960000    -2.0599340000
   37      H       2.7703880000     1.5998750000    -1.1525930000
   38      H       2.8677450000     1.6560530000     1.5560250000
   39      H      -0.7833140000    -7.3615890000    -0.4616230000
   40      H       0.5926770000    -7.3611920000     0.6939830000
   41      H      -0.8269870000    -1.4788310000    -0.6946170000
 ----------------------------------------------------------------

   11   -1571.6710661825      6.36e-07  Convergence criterion met
 Total energy in the final basis set =    -1571.6710661825
        RIMP2         total energy =     -1576.3453532313 a.u.

                    Orbital Energies (a.u.)
 --------------------------------------------------------------

 Alpha MOs
 -- Occupied --
-91.9863 -20.5537 -20.5437 -20.5386 -20.5379 -15.6267 -15.6193 -11.3939
-11.3843 -11.3799 -11.3769 -11.3052 -11.3045 -11.3039 -11.3029 -11.3019
-11.2944 -11.2838 -11.2764 -11.2676 -11.2662 -11.2626 -11.2624 -11.2594
-11.2585 -11.2556 -11.2499  -8.9866  -6.6672  -6.6663  -6.6661  -1.4205
 -1.4098  -1.3974  -1.3889  -1.2618  -1.2533  -1.2322  -1.1931  -1.1519
 -1.1115  -1.0836  -1.0453  -1.0000  -0.9939  -0.9863  -0.9541  -0.9481
 -0.8952  -0.8860  -0.8748  -0.8571  -0.7922  -0.7775  -0.7759  -0.7664
 -0.7376  -0.7158  -0.7031  -0.6919  -0.6832  -0.6722  -0.6660  -0.6559
 -0.6456  -0.6430  -0.6381  -0.6319  -0.6287  -0.6261  -0.6199  -0.6051
 -0.5908  -0.5764  -0.5704  -0.5612  -0.5572  -0.5506  -0.5499  -0.5460
 -0.5454  -0.5431  -0.5288  -0.5062  -0.5013  -0.4795  -0.4695  -0.4570
 -0.4514  -0.4488  -0.4403  -0.4321  -0.4126  -0.4058  -0.3574  -0.3477
 -0.3363  -0.2762

          Ground-State Mulliken Net Atomic Charges

     Atom                 Charge (a.u.)
  ----------------------------------------
      1 C                    -0.084350
      2 C                    -0.033971
      3 C                    -0.117176
      4 C                    -0.118624
      5 H                     0.197841
      6 C                     0.019056
      7 C                     0.105027
      8 C                    -0.069553
      9 C                    -0.197686
     10 C                    -0.209955
     11 C                     0.251385
     12 H                     0.186835
     13 C                     0.338282
     14 C                     0.345443
     15 N                    -0.088299
     16 C                     0.355455
     17 C                     0.361790
     18 N                    -0.090227
     19 O                    -0.500388
     20 O                    -0.514665
     21 O                    -0.501922
     22 O                    -0.475753
     23 C                    -0.205689
     24 H                     0.139399
     25 H                     0.108314
     26 H                     0.108066
     27 C                    -0.198412
     28 H                     0.133337
     29 H                     0.111660
     30 H                     0.111910
     31 C                    -0.140398
     32 S                     0.051817
     33 C                    -0.148624
     34 C                    -0.083145
     35 C                    -0.230756
     36 H                     0.193390
     37 H                     0.193656
     38 H                     0.215718
     39 H                     0.135150
     40 H                     0.135475
     41 H                     0.210587
  ----------------------------------------
  Sum of atomic charges =     0.000000

                    Cartesian Multipole Moments
 -----------------------------------------------------------------
    Charge (ESU x 10^10)
                 0.0000
    Dipole Moment (Debye)
         X       1.2667      Y       2.9222      Z      -0.4877
       Tot       3.2220
    Quadrupole Moments (Debye-Ang)
        XX    -167.0347     XY      13.5793     YY    -192.1421
        XZ      17.8585     YZ      -6.6914     ZZ    -175.5234

 Total job time:  307.00s(wall), 9342.52s(cpu)
        *  Thank you very much for using Q-Chem.  Have a nice day.  *
