 Q-Chem 5.4, Q-Chem, Inc., Pleasanton, CA (2021)
 Q-Chem 5.4.0 for Intel X86 EM64T Linux

User input:
--------------------------------------------------------------
$molecule
0 1
C	0.240927	-6.741404	-0.089263
C	1.467886	-6.155638	-0.535973
C	-0.777972	-5.791452	0.281103
C	1.729742	-4.803786	-0.631036
H	2.292903	-6.821518	-0.836458
C	-0.503614	-4.378638	0.181995
C	0.746756	-3.838032	-0.272725
C	-1.485437	-3.413062	0.539954
C	1.018915	-2.426473	-0.371053
C	-1.226557	-2.059348	0.446381
C	-0.000000	-1.478216	-0.000000
H	-2.052413	-1.394783	0.747410
C	-2.134128	-6.187987	0.772747
C	-2.829820	-3.798164	1.029154
N	-3.059182	-5.170003	1.110828
C	3.077731	-4.424987	-1.121728
C	2.375694	-2.036627	-0.864069
N	3.301101	-3.049156	-1.201928
O	-2.502830	-7.353131	0.903908
O	-3.697078	-2.986854	1.345809
O	3.934752	-5.248946	-1.434422
O	2.764177	-0.878829	-1.003943
C	-4.386939	-5.563799	1.592981
H	-4.429822	-6.664085	1.607367
H	-5.164489	-5.147101	0.924504
H	-4.553486	-5.148785	2.605446
C	4.608481	-2.587487	-1.677308
H	5.211969	-3.483329	-1.898089
H	5.094624	-1.964972	-0.902337
H	4.483092	-1.962932	-2.582098
C	0.000000	0.000000	0.000000
S	0.271091	0.745405	1.580530
C	0.831198	2.284363	0.904911
C	0.341175	0.937861	-0.985400
C	0.792631	2.178516	-0.493528
H	0.260601	0.716417	-2.059934
H	1.093860	3.006347	-1.152593
H	1.132330	3.111961	1.556025
H	0.447559	-7.361589	0.791434
H	-0.166282	-7.361192	-0.897345
H	0.368883	-1.478831	1.015049
$end

$rem
JOBTYPE		SP
EXCHANGE	HF
CORRELATION	pRIMP2
BASIS		cc-pvtz
METHOD		rimp2
AUX_BASIS	rimp2-cc-pvtz
SOLVENT_METHOD	PCM
PURECART	11111
SYMMETRY	false
MEM_TOTAL	110000
SCF_CONVERGENCE = 6
THRESH=10
GUI = 2
$end

$solvent
dielectric 4.90
$end
--------------------------------------------------------------

             Standard Nuclear Orientation (Angstroms)
    I     Atom           X                Y                Z
 ----------------------------------------------------------------
    1      C       0.2409270000    -6.7414040000    -0.0892630000
    2      C       1.4678860000    -6.1556380000    -0.5359730000
    3      C      -0.7779720000    -5.7914520000     0.2811030000
    4      C       1.7297420000    -4.8037860000    -0.6310360000
    5      H       2.2929030000    -6.8215180000    -0.8364580000
    6      C      -0.5036140000    -4.3786380000     0.1819950000
    7      C       0.7467560000    -3.8380320000    -0.2727250000
    8      C      -1.4854370000    -3.4130620000     0.5399540000
    9      C       1.0189150000    -2.4264730000    -0.3710530000
   10      C      -1.2265570000    -2.0593480000     0.4463810000
   11      C       0.0000000000    -1.4782160000     0.0000000000
   12      H      -2.0524130000    -1.3947830000     0.7474100000
   13      C      -2.1341280000    -6.1879870000     0.7727470000
   14      C      -2.8298200000    -3.7981640000     1.0291540000
   15      N      -3.0591820000    -5.1700030000     1.1108280000
   16      C       3.0777310000    -4.4249870000    -1.1217280000
   17      C       2.3756940000    -2.0366270000    -0.8640690000
   18      N       3.3011010000    -3.0491560000    -1.2019280000
   19      O      -2.5028300000    -7.3531310000     0.9039080000
   20      O      -3.6970780000    -2.9868540000     1.3458090000
   21      O       3.9347520000    -5.2489460000    -1.4344220000
   22      O       2.7641770000    -0.8788290000    -1.0039430000
   23      C      -4.3869390000    -5.5637990000     1.5929810000
   24      H      -4.4298220000    -6.6640850000     1.6073670000
   25      H      -5.1644890000    -5.1471010000     0.9245040000
   26      H      -4.5534860000    -5.1487850000     2.6054460000
   27      C       4.6084810000    -2.5874870000    -1.6773080000
   28      H       5.2119690000    -3.4833290000    -1.8980890000
   29      H       5.0946240000    -1.9649720000    -0.9023370000
   30      H       4.4830920000    -1.9629320000    -2.5820980000
   31      C       0.0000000000     0.0000000000     0.0000000000
   32      S       0.2710910000     0.7454050000     1.5805300000
   33      C       0.8311980000     2.2843630000     0.9049110000
   34      C       0.3411750000     0.9378610000    -0.9854000000
   35      C       0.7926310000     2.1785160000    -0.4935280000
   36      H       0.2606010000     0.7164170000    -2.0599340000
   37      H       1.0938600000     3.0063470000    -1.1525930000
   38      H       1.1323300000     3.1119610000     1.5560250000
   39      H       0.4475590000    -7.3615890000     0.7914340000
   40      H      -0.1662820000    -7.3611920000    -0.8973450000
   41      H       0.3688830000    -1.4788310000     1.0150490000
 ----------------------------------------------------------------

   11   -1571.7366142177      5.62e-07  Convergence criterion met
 Total energy in the final basis set =    -1571.7366142177
        RIMP2         total energy =     -1576.3930034028 a.u.

                    Orbital Energies (a.u.)
 --------------------------------------------------------------

 Alpha MOs
 -- Occupied --
-91.9921 -20.5504 -20.5441 -20.5411 -20.5398 -15.6264 -15.6207 -11.3923
-11.3848 -11.3830 -11.3783 -11.3079 -11.3069 -11.3043 -11.3041 -11.2960
-11.2885 -11.2869 -11.2853 -11.2682 -11.2677 -11.2632 -11.2627 -11.2590
-11.2545 -11.2523 -11.2505  -8.9919  -6.6728  -6.6723  -6.6716  -1.4186
 -1.4116  -1.3966  -1.3907  -1.2615  -1.2548  -1.2293  -1.1868  -1.1521
 -1.1132  -1.0861  -1.0458  -0.9959  -0.9873  -0.9845  -0.9546  -0.9506
 -0.8953  -0.8861  -0.8763  -0.8595  -0.7924  -0.7749  -0.7724  -0.7684
 -0.7396  -0.7155  -0.7036  -0.6908  -0.6760  -0.6703  -0.6669  -0.6567
 -0.6465  -0.6419  -0.6375  -0.6311  -0.6304  -0.6262  -0.6224  -0.6045
 -0.5843  -0.5742  -0.5665  -0.5608  -0.5562  -0.5509  -0.5495  -0.5473
 -0.5463  -0.5434  -0.5223  -0.5145  -0.5073  -0.4801  -0.4740  -0.4688
 -0.4564  -0.4505  -0.4422  -0.4341  -0.4129  -0.4070  -0.3552  -0.3512
 -0.3281  -0.2873

          Ground-State Mulliken Net Atomic Charges

     Atom                 Charge (a.u.)
  ----------------------------------------
      1 C                    -0.084658
      2 C                    -0.030196
      3 C                    -0.113695
      4 C                    -0.121365
      5 H                     0.198410
      6 C                     0.007718
      7 C                     0.119430
      8 C                    -0.065425
      9 C                    -0.139069
     10 C                    -0.173634
     11 C                     0.237024
     12 H                     0.193057
     13 C                     0.343629
     14 C                     0.349546
     15 N                    -0.089714
     16 C                     0.356931
     17 C                     0.356158
     18 N                    -0.089693
     19 O                    -0.495121
     20 O                    -0.507760
     21 O                    -0.501976
     22 O                    -0.469623
     23 C                    -0.204853
     24 H                     0.139278
     25 H                     0.109067
     26 H                     0.108994
     27 C                    -0.197488
     28 H                     0.133220
     29 H                     0.111605
     30 H                     0.110792
     31 C                    -0.081093
     32 S                     0.007364
     33 C                    -0.209587
     34 C                    -0.162939
     35 C                    -0.196652
     36 H                     0.184628
     37 H                     0.189946
     38 H                     0.213332
     39 H                     0.137211
     40 H                     0.137456
     41 H                     0.189747
  ----------------------------------------
  Sum of atomic charges =     0.000000

                    Cartesian Multipole Moments
 -----------------------------------------------------------------
    Charge (ESU x 10^10)
                 0.0000
    Dipole Moment (Debye)
         X       1.9944      Y       2.5778      Z      -0.7223
       Tot       3.3383
    Quadrupole Moments (Debye-Ang)
        XX    -190.9782     XY      -5.0260     YY    -179.6820
        XZ      11.0725     YZ       2.5680     ZZ    -160.1089

 Total job time:  504.99s(wall), 19720.38s(cpu)
        *  Thank you very much for using Q-Chem.  Have a nice day.  *
