 Q-Chem 5.4, Q-Chem, Inc., Pleasanton, CA (2021)
 Q-Chem 5.4.0 for Intel X86 EM64T Linux

User input:
--------------------------------------------------------------
$molecule
0 1
C	-0.241938	-6.741404	-0.086486
C	-1.468983	-6.155638	-0.532960
C	0.776651	-5.791452	0.284733
C	-1.730681	-4.803786	-0.628455
H	-2.294130	-6.821518	-0.833086
C	0.502775	-4.378638	0.184300
C	-0.747353	-3.838032	-0.271086
C	1.484986	-3.413062	0.541191
C	-1.019042	-2.426473	-0.370703
C	1.226525	-2.059348	0.446468
C	-0.000000	-1.478216	-0.000000
H	2.052666	-1.394783	0.746717
C	2.131549	-6.187987	0.779832
C	2.829295	-3.798164	1.030596
N	3.057496	-5.170003	1.115461
C	-3.078712	-4.424987	-1.119034
C	-2.375300	-2.036627	-0.865151
N	-3.301374	-3.049156	-1.201176
O	2.498300	-7.353131	0.916355
O	3.697195	-2.986854	1.345486
O	-3.936224	-5.248946	-1.430379
O	-2.762805	-0.878829	-1.007714
C	4.384539	-5.563799	1.599576
H	4.426636	-6.664085	1.616121
H	4.550487	-5.147101	2.611458
H	5.162921	-5.148785	0.931037
C	-4.608454	-2.587487	-1.677382
H	-5.212668	-3.483329	-1.896168
H	-4.482719	-1.964972	-2.583531
H	-5.093988	-1.962932	-0.903674
C	0.000000	0.000000	0.000000
S	0.686805	0.396760	1.580530
C	2.105095	1.215640	0.904911
C	0.864201	0.499140	-0.985400
C	2.007514	1.159347	-0.493528
H	0.660136	0.381296	-2.059934
H	2.770388	1.599875	-1.152593
H	2.867745	1.656053	1.556025
H	0.165874	-7.361589	-0.893959
H	-0.449423	-7.361192	0.794290
H	0.369880	-1.478831	-1.014686
$end

$rem
JOBTYPE		SP
EXCHANGE	HF
CORRELATION	pRIMP2
BASIS		cc-pvtz
METHOD		rimp2
AUX_BASIS	rimp2-cc-pvtz
SOLVENT_METHOD	PCM
PURECART	11111
SYMMETRY	false
MEM_TOTAL	110000
SCF_CONVERGENCE = 6
THRESH=10
GUI = 2
$end

$solvent
dielectric 4.90
$end
--------------------------------------------------------------

             Standard Nuclear Orientation (Angstroms)
    I     Atom           X                Y                Z
 ----------------------------------------------------------------
    1      C      -0.2419380000    -6.7414040000    -0.0864860000
    2      C      -1.4689830000    -6.1556380000    -0.5329600000
    3      C       0.7766510000    -5.7914520000     0.2847330000
    4      C      -1.7306810000    -4.8037860000    -0.6284550000
    5      H      -2.2941300000    -6.8215180000    -0.8330860000
    6      C       0.5027750000    -4.3786380000     0.1843000000
    7      C      -0.7473530000    -3.8380320000    -0.2710860000
    8      C       1.4849860000    -3.4130620000     0.5411910000
    9      C      -1.0190420000    -2.4264730000    -0.3707030000
   10      C       1.2265250000    -2.0593480000     0.4464680000
   11      C       0.0000000000    -1.4782160000     0.0000000000
   12      H       2.0526660000    -1.3947830000     0.7467170000
   13      C       2.1315490000    -6.1879870000     0.7798320000
   14      C       2.8292950000    -3.7981640000     1.0305960000
   15      N       3.0574960000    -5.1700030000     1.1154610000
   16      C      -3.0787120000    -4.4249870000    -1.1190340000
   17      C      -2.3753000000    -2.0366270000    -0.8651510000
   18      N      -3.3013740000    -3.0491560000    -1.2011760000
   19      O       2.4983000000    -7.3531310000     0.9163550000
   20      O       3.6971950000    -2.9868540000     1.3454860000
   21      O      -3.9362240000    -5.2489460000    -1.4303790000
   22      O      -2.7628050000    -0.8788290000    -1.0077140000
   23      C       4.3845390000    -5.5637990000     1.5995760000
   24      H       4.4266360000    -6.6640850000     1.6161210000
   25      H       4.5504870000    -5.1471010000     2.6114580000
   26      H       5.1629210000    -5.1487850000     0.9310370000
   27      C      -4.6084540000    -2.5874870000    -1.6773820000
   28      H      -5.2126680000    -3.4833290000    -1.8961680000
   29      H      -4.4827190000    -1.9649720000    -2.5835310000
   30      H      -5.0939880000    -1.9629320000    -0.9036740000
   31      C       0.0000000000     0.0000000000     0.0000000000
   32      S       0.6868050000     0.3967600000     1.5805300000
   33      C       2.1050950000     1.2156400000     0.9049110000
   34      C       0.8642010000     0.4991400000    -0.9854000000
   35      C       2.0075140000     1.1593470000    -0.4935280000
   36      H       0.6601360000     0.3812960000    -2.0599340000
   37      H       2.7703880000     1.5998750000    -1.1525930000
   38      H       2.8677450000     1.6560530000     1.5560250000
   39      H       0.1658740000    -7.3615890000    -0.8939590000
   40      H      -0.4494230000    -7.3611920000     0.7942900000
   41      H       0.3698800000    -1.4788310000    -1.0146860000
 ----------------------------------------------------------------

   11   -1571.6739872923      5.97e-07  Convergence criterion met
 Total energy in the final basis set =    -1571.6739872923
        RIMP2         total energy =     -1576.3471166740 a.u.

                    Orbital Energies (a.u.)
 --------------------------------------------------------------

 Alpha MOs
 -- Occupied --
-91.9920 -20.5512 -20.5426 -20.5389 -20.5389 -15.6253 -15.6192 -11.3913
-11.3830 -11.3807 -11.3771 -11.3055 -11.3032 -11.3016 -11.3001 -11.2991
-11.2915 -11.2822 -11.2767 -11.2754 -11.2646 -11.2637 -11.2619 -11.2607
-11.2594 -11.2585 -11.2493  -8.9927  -6.6733  -6.6727  -6.6724  -1.4177
 -1.4102  -1.3955  -1.3894  -1.2602  -1.2535  -1.2345  -1.1956  -1.1510
 -1.1106  -1.0826  -1.0433  -1.0030  -0.9975  -0.9856  -0.9537  -0.9473
 -0.8942  -0.8840  -0.8731  -0.8553  -0.7976  -0.7785  -0.7683  -0.7670
 -0.7425  -0.7178  -0.7035  -0.6903  -0.6843  -0.6695  -0.6646  -0.6555
 -0.6447  -0.6440  -0.6349  -0.6326  -0.6282  -0.6248  -0.6195  -0.6034
 -0.5865  -0.5815  -0.5696  -0.5599  -0.5546  -0.5508  -0.5499  -0.5479
 -0.5460  -0.5418  -0.5223  -0.5056  -0.4907  -0.4855  -0.4741  -0.4657
 -0.4566  -0.4493  -0.4407  -0.4318  -0.4119  -0.4057  -0.3663  -0.3409
 -0.3362  -0.2822

          Ground-State Mulliken Net Atomic Charges

     Atom                 Charge (a.u.)
  ----------------------------------------
      1 C                    -0.086605
      2 C                    -0.038652
      3 C                    -0.112788
      4 C                    -0.118364
      5 H                     0.196516
      6 C                     0.011416
      7 C                     0.111433
      8 C                    -0.093043
      9 C                    -0.186548
     10 C                    -0.174630
     11 C                     0.217844
     12 H                     0.196674
     13 C                     0.341178
     14 C                     0.338151
     15 N                    -0.088971
     16 C                     0.355604
     17 C                     0.358162
     18 N                    -0.090820
     19 O                    -0.498228
     20 O                    -0.511982
     21 O                    -0.502965
     22 O                    -0.468279
     23 C                    -0.205819
     24 H                     0.139313
     25 H                     0.108523
     26 H                     0.108119
     27 C                    -0.198398
     28 H                     0.132864
     29 H                     0.110396
     30 H                     0.111785
     31 C                    -0.094709
     32 S                     0.026670
     33 C                    -0.145954
     34 C                    -0.092869
     35 C                    -0.225973
     36 H                     0.193274
     37 H                     0.193855
     38 H                     0.216924
     39 H                     0.134488
     40 H                     0.134811
     41 H                     0.197597
  ----------------------------------------
  Sum of atomic charges =     0.000000

                    Cartesian Multipole Moments
 -----------------------------------------------------------------
    Charge (ESU x 10^10)
                 0.0000
    Dipole Moment (Debye)
         X       2.1134      Y       3.1477      Z      -2.0290
       Tot       4.3002
    Quadrupole Moments (Debye-Ang)
        XX    -183.5638     XY      13.9686     YY    -193.0044
        XZ     -10.1717     YZ       4.5379     ZZ    -159.1945

 Total job time:  329.90s(wall), 9748.43s(cpu)
        *  Thank you very much for using Q-Chem.  Have a nice day.  *
