 Q-Chem 5.4, Q-Chem, Inc., Pleasanton, CA (2021)
 Q-Chem 5.4.0 for Intel X86 EM64T Linux

User input:
--------------------------------------------------------------
$molecule
0 1
C	0.252767	-6.741404	-0.046070
C	1.538656	-6.155638	-0.272935
C	-0.814966	-5.791452	0.141739
C	1.813042	-4.803786	-0.321083
H	2.403318	-6.821518	-0.425592
C	-0.527566	-4.378638	0.091779
C	0.782769	-3.838032	-0.138909
C	-1.556632	-3.413062	0.273808
C	1.067868	-2.426473	-0.188483
C	-1.285436	-2.059348	0.226610
C	0.000000	-1.478216	0.000000
H	-2.151019	-1.394783	0.379657
C	-2.235891	-6.187987	0.390420
C	-2.965540	-3.798164	0.522125
N	-3.205600	-5.170003	0.562731
C	3.225760	-4.424987	-0.570244
C	2.489646	-2.036627	-0.438407
N	3.459662	-3.049156	-0.610438
O	-2.621768	-7.353131	0.455563
O	-3.874608	-2.986854	0.683373
O	4.124059	-5.248946	-0.729367
O	2.896516	-0.878829	-0.508697
C	-4.596910	-5.563799	0.806996
H	-4.641640	-6.664085	0.813717
H	-5.246567	-5.147101	0.013655
H	-4.936739	-5.148785	1.775159
C	4.829729	-2.587487	-0.851572
H	5.462387	-3.483329	-0.964204
H	5.173914	-1.964972	-0.003956
H	4.863360	-1.962932	-1.764390
C	0.000000	0.000000	0.000000
S	0.509686	0.607733	1.580530
C	1.562368	1.862312	0.904911
C	0.641367	0.764613	-0.985400
C	1.489926	1.776040	-0.493528
H	0.489914	0.584081	-2.059934
H	2.056124	2.450920	-1.152593
H	2.128395	2.537007	1.556025
H	0.303328	-7.361589	0.857128
H	-0.007933	-7.361192	-0.912587
H	0.187017	-1.478831	1.063684
$end

$rem
JOBTYPE		SP
EXCHANGE	HF
CORRELATION	pRIMP2
BASIS		cc-pvtz
METHOD		rimp2
AUX_BASIS	rimp2-cc-pvtz
SOLVENT_METHOD	PCM
PURECART	11111
SYMMETRY	false
MEM_TOTAL	110000
SCF_CONVERGENCE = 6
THRESH=10
GUI = 2
$end

$solvent
dielectric 4.90
$end
--------------------------------------------------------------

             Standard Nuclear Orientation (Angstroms)
    I     Atom           X                Y                Z
 ----------------------------------------------------------------
    1      C       0.2527670000    -6.7414040000    -0.0460700000
    2      C       1.5386560000    -6.1556380000    -0.2729350000
    3      C      -0.8149660000    -5.7914520000     0.1417390000
    4      C       1.8130420000    -4.8037860000    -0.3210830000
    5      H       2.4033180000    -6.8215180000    -0.4255920000
    6      C      -0.5275660000    -4.3786380000     0.0917790000
    7      C       0.7827690000    -3.8380320000    -0.1389090000
    8      C      -1.5566320000    -3.4130620000     0.2738080000
    9      C       1.0678680000    -2.4264730000    -0.1884830000
   10      C      -1.2854360000    -2.0593480000     0.2266100000
   11      C       0.0000000000    -1.4782160000     0.0000000000
   12      H      -2.1510190000    -1.3947830000     0.3796570000
   13      C      -2.2358910000    -6.1879870000     0.3904200000
   14      C      -2.9655400000    -3.7981640000     0.5221250000
   15      N      -3.2056000000    -5.1700030000     0.5627310000
   16      C       3.2257600000    -4.4249870000    -0.5702440000
   17      C       2.4896460000    -2.0366270000    -0.4384070000
   18      N       3.4596620000    -3.0491560000    -0.6104380000
   19      O      -2.6217680000    -7.3531310000     0.4555630000
   20      O      -3.8746080000    -2.9868540000     0.6833730000
   21      O       4.1240590000    -5.2489460000    -0.7293670000
   22      O       2.8965160000    -0.8788290000    -0.5086970000
   23      C      -4.5969100000    -5.5637990000     0.8069960000
   24      H      -4.6416400000    -6.6640850000     0.8137170000
   25      H      -5.2465670000    -5.1471010000     0.0136550000
   26      H      -4.9367390000    -5.1487850000     1.7751590000
   27      C       4.8297290000    -2.5874870000    -0.8515720000
   28      H       5.4623870000    -3.4833290000    -0.9642040000
   29      H       5.1739140000    -1.9649720000    -0.0039560000
   30      H       4.8633600000    -1.9629320000    -1.7643900000
   31      C       0.0000000000     0.0000000000     0.0000000000
   32      S       0.5096860000     0.6077330000     1.5805300000
   33      C       1.5623680000     1.8623120000     0.9049110000
   34      C       0.6413670000     0.7646130000    -0.9854000000
   35      C       1.4899260000     1.7760400000    -0.4935280000
   36      H       0.4899140000     0.5840810000    -2.0599340000
   37      H       2.0561240000     2.4509200000    -1.1525930000
   38      H       2.1283950000     2.5370070000     1.5560250000
   39      H       0.3033280000    -7.3615890000     0.8571280000
   40      H      -0.0079330000    -7.3611920000    -0.9125870000
   41      H       0.1870170000    -1.4788310000     1.0636840000
 ----------------------------------------------------------------

   11   -1571.7094941248      5.87e-07  Convergence criterion met
 Total energy in the final basis set =    -1571.7094941248
        RIMP2         total energy =     -1576.3728705555 a.u.

                    Orbital Energies (a.u.)
 --------------------------------------------------------------

 Alpha MOs
 -- Occupied --
-91.9880 -20.5488 -20.5436 -20.5392 -20.5379 -15.6258 -15.6191 -11.3910
-11.3842 -11.3811 -11.3763 -11.3062 -11.3030 -11.3026 -11.3024 -11.2950
-11.2917 -11.2817 -11.2745 -11.2668 -11.2652 -11.2627 -11.2626 -11.2593
-11.2581 -11.2510 -11.2484  -8.9885  -6.6693  -6.6687  -6.6681  -1.4180
 -1.4099  -1.3961  -1.3890  -1.2608  -1.2533  -1.2280  -1.1871  -1.1509
 -1.1111  -1.0838  -1.0440  -0.9948  -0.9867  -0.9863  -0.9536  -0.9496
 -0.8937  -0.8827  -0.8750  -0.8579  -0.7894  -0.7751  -0.7732  -0.7674
 -0.7378  -0.7159  -0.7029  -0.6896  -0.6744  -0.6683  -0.6658  -0.6557
 -0.6454  -0.6404  -0.6358  -0.6299  -0.6292  -0.6252  -0.6218  -0.6027
 -0.5825  -0.5735  -0.5679  -0.5606  -0.5547  -0.5499  -0.5485  -0.5466
 -0.5461  -0.5425  -0.5203  -0.5103  -0.5026  -0.4778  -0.4710  -0.4675
 -0.4529  -0.4466  -0.4404  -0.4325  -0.4126  -0.4057  -0.3524  -0.3488
 -0.3297  -0.2853

          Ground-State Mulliken Net Atomic Charges

     Atom                 Charge (a.u.)
  ----------------------------------------
      1 C                    -0.084381
      2 C                    -0.032067
      3 C                    -0.118799
      4 C                    -0.119479
      5 H                     0.197706
      6 C                     0.010460
      7 C                     0.114559
      8 C                    -0.070858
      9 C                    -0.153045
     10 C                    -0.163534
     11 C                     0.203042
     12 H                     0.191775
     13 C                     0.341932
     14 C                     0.347774
     15 N                    -0.089184
     16 C                     0.356274
     17 C                     0.361428
     18 N                    -0.087360
     19 O                    -0.497717
     20 O                    -0.509817
     21 O                    -0.502813
     22 O                    -0.468352
     23 C                    -0.205376
     24 H                     0.139067
     25 H                     0.108587
     26 H                     0.108578
     27 C                    -0.197910
     28 H                     0.133447
     29 H                     0.110917
     30 H                     0.110214
     31 C                    -0.074987
     32 S                    -0.001321
     33 C                    -0.183148
     34 C                    -0.157125
     35 C                    -0.166906
     36 H                     0.187432
     37 H                     0.186569
     38 H                     0.213002
     39 H                     0.136215
     40 H                     0.136341
     41 H                     0.188861
  ----------------------------------------
  Sum of atomic charges =     0.000000

                    Cartesian Multipole Moments
 -----------------------------------------------------------------
    Charge (ESU x 10^10)
                 0.0000
    Dipole Moment (Debye)
         X       3.2622      Y       3.0894      Z      -0.6703
       Tot       4.5426
    Quadrupole Moments (Debye-Ang)
        XX    -190.4496     XY      -3.4255     YY    -186.4034
        XZ       6.3996     YZ       1.0761     ZZ    -157.0408

 Total job time:  321.74s(wall), 8857.33s(cpu)
        *  Thank you very much for using Q-Chem.  Have a nice day.  *
