 Q-Chem 5.4, Q-Chem, Inc., Pleasanton, CA (2021)
 Q-Chem 5.4.0 for Intel X86 EM64T Linux

User input:
--------------------------------------------------------------
$molecule
0 1
C	0.043160	-6.741404	-0.253280
C	0.269777	-6.155638	-1.539213
C	-0.145543	-5.791452	0.814295
C	0.318377	-4.803786	-1.813519
H	0.422058	-6.821518	-2.403941
C	-0.094194	-4.378638	0.527140
C	0.137191	-3.838032	-0.783072
C	-0.275104	-3.413062	1.556403
C	0.188116	-2.426473	-1.067932
C	-0.226701	-2.059348	1.285420
C	0.000000	-1.478216	0.000000
H	-0.378931	-1.394783	2.151147
C	-0.397845	-6.187987	2.234582
C	-0.523637	-3.798164	2.965273
N	-0.567586	-5.170003	3.204744
C	0.567421	-4.424987	-3.226257
C	0.439541	-2.036627	-2.489446
N	0.609650	-3.049156	-3.459801
O	-0.468608	-7.353131	2.619468
O	-0.683034	-2.986854	3.874668
O	0.725131	-5.248946	-4.124806
O	0.512648	-0.878829	-2.895819
C	-0.813908	-5.563799	4.595691
H	-0.822891	-6.664085	4.640022
H	-1.781600	-5.147101	4.934830
H	-0.020360	-5.148785	5.246157
C	0.851649	-2.587487	-4.829716
H	0.962191	-3.483329	-5.462742
H	1.765865	-1.964972	-4.863242
H	0.005383	-1.962932	-5.173521
C	0.000000	0.000000	0.000000
S	0.271091	0.745405	1.580530
C	0.831198	2.284363	0.904911
C	0.341175	0.937861	-0.985400
C	0.792631	2.178516	-0.493528
H	0.260601	0.716417	-2.059934
H	1.093860	3.006347	-1.152593
H	1.132330	3.111961	1.556025
H	0.909181	-7.361589	0.008120
H	-0.860264	-7.361192	-0.304668
H	1.063500	-1.478831	0.188062
$end

$rem
JOBTYPE		SP
EXCHANGE	HF
CORRELATION	pRIMP2
BASIS		cc-pvtz
METHOD		rimp2
AUX_BASIS	rimp2-cc-pvtz
SOLVENT_METHOD	PCM
PURECART	11111
SYMMETRY	false
MEM_TOTAL	110000
SCF_CONVERGENCE = 6
THRESH=10
GUI = 2
$end

$solvent
dielectric 4.90
$end
--------------------------------------------------------------

             Standard Nuclear Orientation (Angstroms)
    I     Atom           X                Y                Z
 ----------------------------------------------------------------
    1      C       0.0431600000    -6.7414040000    -0.2532800000
    2      C       0.2697770000    -6.1556380000    -1.5392130000
    3      C      -0.1455430000    -5.7914520000     0.8142950000
    4      C       0.3183770000    -4.8037860000    -1.8135190000
    5      H       0.4220580000    -6.8215180000    -2.4039410000
    6      C      -0.0941940000    -4.3786380000     0.5271400000
    7      C       0.1371910000    -3.8380320000    -0.7830720000
    8      C      -0.2751040000    -3.4130620000     1.5564030000
    9      C       0.1881160000    -2.4264730000    -1.0679320000
   10      C      -0.2267010000    -2.0593480000     1.2854200000
   11      C       0.0000000000    -1.4782160000     0.0000000000
   12      H      -0.3789310000    -1.3947830000     2.1511470000
   13      C      -0.3978450000    -6.1879870000     2.2345820000
   14      C      -0.5236370000    -3.7981640000     2.9652730000
   15      N      -0.5675860000    -5.1700030000     3.2047440000
   16      C       0.5674210000    -4.4249870000    -3.2262570000
   17      C       0.4395410000    -2.0366270000    -2.4894460000
   18      N       0.6096500000    -3.0491560000    -3.4598010000
   19      O      -0.4686080000    -7.3531310000     2.6194680000
   20      O      -0.6830340000    -2.9868540000     3.8746680000
   21      O       0.7251310000    -5.2489460000    -4.1248060000
   22      O       0.5126480000    -0.8788290000    -2.8958190000
   23      C      -0.8139080000    -5.5637990000     4.5956910000
   24      H      -0.8228910000    -6.6640850000     4.6400220000
   25      H      -1.7816000000    -5.1471010000     4.9348300000
   26      H      -0.0203600000    -5.1487850000     5.2461570000
   27      C       0.8516490000    -2.5874870000    -4.8297160000
   28      H       0.9621910000    -3.4833290000    -5.4627420000
   29      H       1.7658650000    -1.9649720000    -4.8632420000
   30      H       0.0053830000    -1.9629320000    -5.1735210000
   31      C       0.0000000000     0.0000000000     0.0000000000
   32      S       0.2710910000     0.7454050000     1.5805300000
   33      C       0.8311980000     2.2843630000     0.9049110000
   34      C       0.3411750000     0.9378610000    -0.9854000000
   35      C       0.7926310000     2.1785160000    -0.4935280000
   36      H       0.2606010000     0.7164170000    -2.0599340000
   37      H       1.0938600000     3.0063470000    -1.1525930000
   38      H       1.1323300000     3.1119610000     1.5560250000
   39      H       0.9091810000    -7.3615890000     0.0081200000
   40      H      -0.8602640000    -7.3611920000    -0.3046680000
   41      H       1.0635000000    -1.4788310000     0.1880620000
 ----------------------------------------------------------------

   11   -1571.7251649030      5.85e-07  Convergence criterion met
 Total energy in the final basis set =    -1571.7251649030
        RIMP2         total energy =     -1576.3853498706 a.u.

                    Orbital Energies (a.u.)
 --------------------------------------------------------------

 Alpha MOs
 -- Occupied --
-91.9881 -20.5533 -20.5460 -20.5426 -20.5415 -15.6295 -15.6219 -11.3983
-11.3868 -11.3844 -11.3800 -11.3101 -11.3092 -11.3064 -11.3055 -11.2979
-11.2947 -11.2918 -11.2763 -11.2709 -11.2693 -11.2674 -11.2645 -11.2597
-11.2538 -11.2458 -11.2349  -8.9883  -6.6692  -6.6687  -6.6680  -1.4245
 -1.4130  -1.4005  -1.3922  -1.2651  -1.2563  -1.2321  -1.1883  -1.1499
 -1.1154  -1.0873  -1.0489  -0.9959  -0.9889  -0.9816  -0.9560  -0.9490
 -0.8982  -0.8908  -0.8785  -0.8618  -0.7944  -0.7810  -0.7733  -0.7592
 -0.7403  -0.7223  -0.7025  -0.6895  -0.6818  -0.6752  -0.6685  -0.6584
 -0.6495  -0.6477  -0.6384  -0.6325  -0.6318  -0.6299  -0.6243  -0.6055
 -0.5926  -0.5710  -0.5638  -0.5610  -0.5575  -0.5525  -0.5518  -0.5490
 -0.5483  -0.5427  -0.5176  -0.5147  -0.5103  -0.4858  -0.4740  -0.4601
 -0.4577  -0.4489  -0.4429  -0.4366  -0.4164  -0.4084  -0.3577  -0.3489
 -0.3317  -0.2778

          Ground-State Mulliken Net Atomic Charges

     Atom                 Charge (a.u.)
  ----------------------------------------
      1 C                    -0.083650
      2 C                    -0.031186
      3 C                    -0.105927
      4 C                    -0.122660
      5 H                     0.199096
      6 C                     0.024276
      7 C                     0.120038
      8 C                    -0.052537
      9 C                    -0.200910
     10 C                    -0.162709
     11 C                     0.187702
     12 H                     0.182233
     13 C                     0.342631
     14 C                     0.347027
     15 N                    -0.090202
     16 C                     0.358259
     17 C                     0.385080
     18 N                    -0.087492
     19 O                    -0.493101
     20 O                    -0.505854
     21 O                    -0.500165
     22 O                    -0.478475
     23 C                    -0.204714
     24 H                     0.139576
     25 H                     0.109594
     26 H                     0.109503
     27 C                    -0.198890
     28 H                     0.134568
     29 H                     0.111774
     30 H                     0.112248
     31 C                     0.011393
     32 S                    -0.007526
     33 C                    -0.242672
     34 C                    -0.225088
     35 C                    -0.205220
     36 H                     0.221132
     37 H                     0.190860
     38 H                     0.213999
     39 H                     0.138261
     40 H                     0.138683
     41 H                     0.221046
  ----------------------------------------
  Sum of atomic charges =     0.000000

                    Cartesian Multipole Moments
 -----------------------------------------------------------------
    Charge (ESU x 10^10)
                 0.0000
    Dipole Moment (Debye)
         X       1.6923      Y       1.3411      Z      -2.2206
       Tot       3.0974
    Quadrupole Moments (Debye-Ang)
        XX    -162.1920     XY       0.5049     YY    -177.0546
        XZ       5.4356     YZ       8.9194     ZZ    -187.5432

 Total job time:  431.35s(wall), 15100.39s(cpu)
        *  Thank you very much for using Q-Chem.  Have a nice day.  *
