 Q-Chem 5.4, Q-Chem, Inc., Pleasanton, CA (2021)
 Q-Chem 5.4.0 for Intel X86 EM64T Linux

User input:
--------------------------------------------------------------
$molecule
0 1
C	0.195868	-6.741404	-0.166281
C	1.196048	-6.155638	-1.005696
C	-0.634911	-5.791452	0.530233
C	1.409599	-4.803786	-1.184587
H	1.868538	-6.821518	-1.570232
C	-0.410996	-4.378638	0.343266
C	0.608444	-3.838032	-0.511683
C	-1.211179	-3.413062	1.015440
C	0.830559	-2.426473	-0.697165
C	-0.999915	-2.059348	0.838968
C	0.000000	-1.478216	0.000000
H	-1.673009	-1.394783	1.404302
C	-1.741129	-6.187987	1.456059
C	-2.307170	-3.798164	1.934944
N	-2.494766	-5.170003	2.090139
C	2.508468	-4.424987	-2.106725
C	1.936893	-2.036627	-1.624494
N	2.690936	-3.049156	-2.258486
O	-2.042736	-7.353131	1.705414
O	-3.013823	-2.986854	2.529122
O	3.206857	-5.248946	-2.693680
O	2.254108	-0.878829	-1.888802
C	-3.577543	-5.563799	2.997334
H	-3.612920	-6.664085	3.025519
H	-4.536833	-5.147101	2.635109
H	-3.387762	-5.148785	4.005702
C	3.756883	-2.587487	-3.152347
H	4.248464	-3.483329	-3.566218
H	4.478763	-1.964972	-2.590383
H	3.329599	-1.962932	-3.959687
C	0.000000	0.000000	0.000000
S	0.137535	0.781156	1.580530
C	0.421895	2.393994	0.904911
C	0.173134	0.982857	-0.985400
C	0.402294	2.283058	-0.493528
H	0.132237	0.750786	-2.059934
H	0.555196	3.150621	-1.152593
H	0.574741	3.261310	1.556025
H	0.691254	-7.361589	0.590631
H	-0.463164	-7.361192	-0.786357
H	0.693804	-1.478831	0.827669
$end

$rem
JOBTYPE		SP
EXCHANGE	HF
CORRELATION	pRIMP2
BASIS		cc-pvtz
METHOD		rimp2
AUX_BASIS	rimp2-cc-pvtz
SOLVENT_METHOD	PCM
PURECART	11111
SYMMETRY	false
MEM_TOTAL	110000
SCF_CONVERGENCE = 6
THRESH=10
GUI = 2
$end

$solvent
dielectric 4.90
$end
--------------------------------------------------------------

             Standard Nuclear Orientation (Angstroms)
    I     Atom           X                Y                Z
 ----------------------------------------------------------------
    1      C       0.1958680000    -6.7414040000    -0.1662810000
    2      C       1.1960480000    -6.1556380000    -1.0056960000
    3      C      -0.6349110000    -5.7914520000     0.5302330000
    4      C       1.4095990000    -4.8037860000    -1.1845870000
    5      H       1.8685380000    -6.8215180000    -1.5702320000
    6      C      -0.4109960000    -4.3786380000     0.3432660000
    7      C       0.6084440000    -3.8380320000    -0.5116830000
    8      C      -1.2111790000    -3.4130620000     1.0154400000
    9      C       0.8305590000    -2.4264730000    -0.6971650000
   10      C      -0.9999150000    -2.0593480000     0.8389680000
   11      C       0.0000000000    -1.4782160000     0.0000000000
   12      H      -1.6730090000    -1.3947830000     1.4043020000
   13      C      -1.7411290000    -6.1879870000     1.4560590000
   14      C      -2.3071700000    -3.7981640000     1.9349440000
   15      N      -2.4947660000    -5.1700030000     2.0901390000
   16      C       2.5084680000    -4.4249870000    -2.1067250000
   17      C       1.9368930000    -2.0366270000    -1.6244940000
   18      N       2.6909360000    -3.0491560000    -2.2584860000
   19      O      -2.0427360000    -7.3531310000     1.7054140000
   20      O      -3.0138230000    -2.9868540000     2.5291220000
   21      O       3.2068570000    -5.2489460000    -2.6936800000
   22      O       2.2541080000    -0.8788290000    -1.8888020000
   23      C      -3.5775430000    -5.5637990000     2.9973340000
   24      H      -3.6129200000    -6.6640850000     3.0255190000
   25      H      -4.5368330000    -5.1471010000     2.6351090000
   26      H      -3.3877620000    -5.1487850000     4.0057020000
   27      C       3.7568830000    -2.5874870000    -3.1523470000
   28      H       4.2484640000    -3.4833290000    -3.5662180000
   29      H       4.4787630000    -1.9649720000    -2.5903830000
   30      H       3.3295990000    -1.9629320000    -3.9596870000
   31      C       0.0000000000     0.0000000000     0.0000000000
   32      S       0.1375350000     0.7811560000     1.5805300000
   33      C       0.4218950000     2.3939940000     0.9049110000
   34      C       0.1731340000     0.9828570000    -0.9854000000
   35      C       0.4022940000     2.2830580000    -0.4935280000
   36      H       0.1322370000     0.7507860000    -2.0599340000
   37      H       0.5551960000     3.1506210000    -1.1525930000
   38      H       0.5747410000     3.2613100000     1.5560250000
   39      H       0.6912540000    -7.3615890000     0.5906310000
   40      H      -0.4631640000    -7.3611920000    -0.7863570000
   41      H       0.6938040000    -1.4788310000     0.8276690000
 ----------------------------------------------------------------

   11   -1571.7424227999      5.71e-07  Convergence criterion met
 Total energy in the final basis set =    -1571.7424227999
        RIMP2         total energy =     -1576.3977895002 a.u.

                    Orbital Energies (a.u.)
 --------------------------------------------------------------

 Alpha MOs
 -- Occupied --
-91.9917 -20.5510 -20.5446 -20.5418 -20.5407 -15.6269 -15.6213 -11.3932
-11.3853 -11.3837 -11.3793 -11.3088 -11.3085 -11.3053 -11.3048 -11.2967
-11.2937 -11.2897 -11.2812 -11.2694 -11.2682 -11.2654 -11.2631 -11.2594
-11.2529 -11.2503 -11.2492  -8.9915  -6.6724  -6.6719  -6.6713  -1.4194
 -1.4123  -1.3972  -1.3915  -1.2621  -1.2555  -1.2305  -1.1872  -1.1519
 -1.1142  -1.0870  -1.0470  -0.9960  -0.9879  -0.9830  -0.9552  -0.9504
 -0.8964  -0.8878  -0.8770  -0.8603  -0.7937  -0.7763  -0.7711  -0.7663
 -0.7412  -0.7151  -0.7029  -0.6910  -0.6769  -0.6722  -0.6673  -0.6573
 -0.6473  -0.6441  -0.6383  -0.6316  -0.6310  -0.6270  -0.6226  -0.6052
 -0.5863  -0.5738  -0.5651  -0.5605  -0.5569  -0.5515  -0.5499  -0.5478
 -0.5474  -0.5436  -0.5214  -0.5162  -0.5091  -0.4831  -0.4752  -0.4677
 -0.4577  -0.4513  -0.4429  -0.4349  -0.4133  -0.4076  -0.3540  -0.3529
 -0.3289  -0.2843

          Ground-State Mulliken Net Atomic Charges

     Atom                 Charge (a.u.)
  ----------------------------------------
      1 C                    -0.085406
      2 C                    -0.029235
      3 C                    -0.111327
      4 C                    -0.126626
      5 H                     0.198857
      6 C                     0.016799
      7 C                     0.124769
      8 C                    -0.071100
      9 C                    -0.150941
     10 C                    -0.181333
     11 C                     0.250022
     12 H                     0.193101
     13 C                     0.344251
     14 C                     0.349624
     15 N                    -0.089803
     16 C                     0.357611
     17 C                     0.354652
     18 N                    -0.088535
     19 O                    -0.494197
     20 O                    -0.506672
     21 O                    -0.501760
     22 O                    -0.469800
     23 C                    -0.204650
     24 H                     0.139426
     25 H                     0.109231
     26 H                     0.109201
     27 C                    -0.197371
     28 H                     0.133471
     29 H                     0.111614
     30 H                     0.111022
     31 C                    -0.091301
     32 S                     0.009288
     33 C                    -0.219642
     34 C                    -0.146509
     35 C                    -0.206744
     36 H                     0.183334
     37 H                     0.190519
     38 H                     0.212584
     39 H                     0.137643
     40 H                     0.137991
     41 H                     0.197943
  ----------------------------------------
  Sum of atomic charges =     0.000000

                    Cartesian Multipole Moments
 -----------------------------------------------------------------
    Charge (ESU x 10^10)
                 0.0000
    Dipole Moment (Debye)
         X       1.6259      Y       2.1762      Z      -1.1250
       Tot       2.9403
    Quadrupole Moments (Debye-Ang)
        XX    -181.7283     XY      -5.5092     YY    -177.6280
        XZ      16.4621     YZ       5.1725     ZZ    -170.1232

 Total job time:  320.20s(wall), 9820.81s(cpu)
        *  Thank you very much for using Q-Chem.  Have a nice day.  *
