 Q-Chem 5.4, Q-Chem, Inc., Pleasanton, CA (2021)
 Q-Chem 5.4.0 for Intel X86 EM64T Linux

User input:
--------------------------------------------------------------
$molecule
0 1
C	-0.240927	-6.741404	0.089263
C	-1.467886	-6.155638	0.535973
C	0.777972	-5.791452	-0.281103
C	-1.729742	-4.803786	0.631036
H	-2.292903	-6.821518	0.836458
C	0.503614	-4.378638	-0.181995
C	-0.746756	-3.838032	0.272725
C	1.485437	-3.413062	-0.539954
C	-1.018915	-2.426473	0.371053
C	1.226557	-2.059348	-0.446381
C	-0.000000	-1.478216	-0.000000
H	2.052413	-1.394783	-0.747410
C	2.134128	-6.187987	-0.772747
C	2.829820	-3.798164	-1.029154
N	3.059182	-5.170003	-1.110828
C	-3.077731	-4.424987	1.121728
C	-2.375694	-2.036627	0.864069
N	-3.301101	-3.049156	1.201928
O	2.502830	-7.353131	-0.903908
O	3.697078	-2.986854	-1.345809
O	-3.934752	-5.248946	1.434422
O	-2.764177	-0.878829	1.003943
C	4.386939	-5.563799	-1.592981
H	4.429822	-6.664085	-1.607367
H	5.164489	-5.147101	-0.924504
H	4.553486	-5.148785	-2.605446
C	-4.608481	-2.587487	1.677308
H	-5.211969	-3.483329	1.898089
H	-5.094624	-1.964972	0.902337
H	-4.483092	-1.962932	2.582098
C	0.000000	0.000000	0.000000
S	-0.000201	0.793171	1.580530
C	-0.000228	2.430885	0.904911
C	-0.000168	0.997990	-0.985400
C	-0.000267	2.318231	-0.493528
H	-0.000145	0.762343	-2.059934
H	-0.000339	3.199164	-1.152593
H	-0.000311	3.311566	1.556025
H	-0.447559	-7.361589	-0.791434
H	0.166282	-7.361192	0.897345
H	-0.368883	-1.478831	-1.015049
$end

$rem
JOBTYPE		SP
EXCHANGE	HF
CORRELATION	pRIMP2
BASIS		cc-pvtz
METHOD		rimp2
AUX_BASIS	rimp2-cc-pvtz
SOLVENT_METHOD	PCM
PURECART	11111
SYMMETRY	false
MEM_TOTAL	110000
SCF_CONVERGENCE = 6
THRESH=10
GUI = 2
$end

$solvent
dielectric 4.90
$end
--------------------------------------------------------------

             Standard Nuclear Orientation (Angstroms)
    I     Atom           X                Y                Z
 ----------------------------------------------------------------
    1      C      -0.2409270000    -6.7414040000     0.0892630000
    2      C      -1.4678860000    -6.1556380000     0.5359730000
    3      C       0.7779720000    -5.7914520000    -0.2811030000
    4      C      -1.7297420000    -4.8037860000     0.6310360000
    5      H      -2.2929030000    -6.8215180000     0.8364580000
    6      C       0.5036140000    -4.3786380000    -0.1819950000
    7      C      -0.7467560000    -3.8380320000     0.2727250000
    8      C       1.4854370000    -3.4130620000    -0.5399540000
    9      C      -1.0189150000    -2.4264730000     0.3710530000
   10      C       1.2265570000    -2.0593480000    -0.4463810000
   11      C       0.0000000000    -1.4782160000     0.0000000000
   12      H       2.0524130000    -1.3947830000    -0.7474100000
   13      C       2.1341280000    -6.1879870000    -0.7727470000
   14      C       2.8298200000    -3.7981640000    -1.0291540000
   15      N       3.0591820000    -5.1700030000    -1.1108280000
   16      C      -3.0777310000    -4.4249870000     1.1217280000
   17      C      -2.3756940000    -2.0366270000     0.8640690000
   18      N      -3.3011010000    -3.0491560000     1.2019280000
   19      O       2.5028300000    -7.3531310000    -0.9039080000
   20      O       3.6970780000    -2.9868540000    -1.3458090000
   21      O      -3.9347520000    -5.2489460000     1.4344220000
   22      O      -2.7641770000    -0.8788290000     1.0039430000
   23      C       4.3869390000    -5.5637990000    -1.5929810000
   24      H       4.4298220000    -6.6640850000    -1.6073670000
   25      H       5.1644890000    -5.1471010000    -0.9245040000
   26      H       4.5534860000    -5.1487850000    -2.6054460000
   27      C      -4.6084810000    -2.5874870000     1.6773080000
   28      H      -5.2119690000    -3.4833290000     1.8980890000
   29      H      -5.0946240000    -1.9649720000     0.9023370000
   30      H      -4.4830920000    -1.9629320000     2.5820980000
   31      C       0.0000000000     0.0000000000     0.0000000000
   32      S      -0.0002010000     0.7931710000     1.5805300000
   33      C      -0.0002280000     2.4308850000     0.9049110000
   34      C      -0.0001680000     0.9979900000    -0.9854000000
   35      C      -0.0002670000     2.3182310000    -0.4935280000
   36      H      -0.0001450000     0.7623430000    -2.0599340000
   37      H      -0.0003390000     3.1991640000    -1.1525930000
   38      H      -0.0003110000     3.3115660000     1.5560250000
   39      H      -0.4475590000    -7.3615890000    -0.7914340000
   40      H       0.1662820000    -7.3611920000     0.8973450000
   41      H      -0.3688830000    -1.4788310000    -1.0150490000
 ----------------------------------------------------------------

   11   -1571.7482867482      5.50e-07  Convergence criterion met
 Total energy in the final basis set =    -1571.7482867482
        RIMP2         total energy =     -1576.4028839133 a.u.

                    Orbital Energies (a.u.)
 --------------------------------------------------------------

 Alpha MOs
 -- Occupied --
-91.9850 -20.5514 -20.5444 -20.5419 -20.5407 -15.6267 -15.6214 -11.3930
-11.3851 -11.3838 -11.3793 -11.3092 -11.3092 -11.3058 -11.3050 -11.2977
-11.2968 -11.2902 -11.2800 -11.2694 -11.2683 -11.2646 -11.2626 -11.2595
-11.2570 -11.2529 -11.2495  -8.9847  -6.6656  -6.6650  -6.6645  -1.4192
 -1.4124  -1.3970  -1.3915  -1.2619  -1.2556  -1.2298  -1.1859  -1.1521
 -1.1143  -1.0867  -1.0469  -0.9949  -0.9878  -0.9830  -0.9551  -0.9512
 -0.8963  -0.8877  -0.8769  -0.8602  -0.7942  -0.7769  -0.7710  -0.7617
 -0.7418  -0.7173  -0.7041  -0.6918  -0.6802  -0.6724  -0.6666  -0.6572
 -0.6472  -0.6446  -0.6361  -0.6329  -0.6310  -0.6278  -0.6217  -0.6045
 -0.5847  -0.5751  -0.5667  -0.5615  -0.5575  -0.5513  -0.5506  -0.5480
 -0.5467  -0.5437  -0.5181  -0.5161  -0.5097  -0.4826  -0.4743  -0.4612
 -0.4566  -0.4509  -0.4429  -0.4347  -0.4132  -0.4075  -0.3536  -0.3505
 -0.3282  -0.2887

          Ground-State Mulliken Net Atomic Charges

     Atom                 Charge (a.u.)
  ----------------------------------------
      1 C                    -0.084607
      2 C                    -0.030155
      3 C                    -0.111015
      4 C                    -0.123688
      5 H                     0.199027
      6 C                     0.018432
      7 C                     0.122011
      8 C                    -0.085735
      9 C                    -0.169465
     10 C                    -0.131624
     11 C                     0.196443
     12 H                     0.193086
     13 C                     0.343365
     14 C                     0.348575
     15 N                    -0.090098
     16 C                     0.357349
     17 C                     0.352029
     18 N                    -0.091338
     19 O                    -0.494220
     20 O                    -0.507610
     21 O                    -0.501705
     22 O                    -0.468775
     23 C                    -0.204703
     24 H                     0.139454
     25 H                     0.109440
     26 H                     0.108890
     27 C                    -0.197058
     28 H                     0.133068
     29 H                     0.111342
     30 H                     0.112000
     31 C                    -0.029230
     32 S                     0.023260
     33 C                    -0.209739
     34 C                    -0.192677
     35 C                    -0.209032
     36 H                     0.187146
     37 H                     0.190855
     38 H                     0.209692
     39 H                     0.137567
     40 H                     0.138037
     41 H                     0.201405
  ----------------------------------------
  Sum of atomic charges =     0.000000

                    Cartesian Multipole Moments
 -----------------------------------------------------------------
    Charge (ESU x 10^10)
                 0.0000
    Dipole Moment (Debye)
         X      -1.2244      Y       2.0564      Z      -1.4312
       Tot       2.7886
    Quadrupole Moments (Debye-Ang)
        XX    -192.0699     XY       8.6874     YY    -177.4847
        XZ      10.5998     YZ      -1.1625     ZZ    -160.2536

 Total job time:  302.78s(wall), 8794.06s(cpu)
        *  Thank you very much for using Q-Chem.  Have a nice day.  *
