 Q-Chem 5.4, Q-Chem, Inc., Pleasanton, CA (2021)
 Q-Chem 5.4.0 for Intel X86 EM64T Linux

User input:
--------------------------------------------------------------
$molecule
0 1
C	-0.046070	-6.741404	-0.252767
C	-0.272935	-6.155638	-1.538656
C	0.141739	-5.791452	0.814966
C	-0.321083	-4.803786	-1.813042
H	-0.425592	-6.821518	-2.403318
C	0.091779	-4.378638	0.527566
C	-0.138909	-3.838032	-0.782769
C	0.273808	-3.413062	1.556632
C	-0.188483	-2.426473	-1.067868
C	0.226610	-2.059348	1.285436
C	0.000000	-1.478216	0.000000
H	0.379657	-1.394783	2.151019
C	0.390420	-6.187987	2.235891
C	0.522125	-3.798164	2.965540
N	0.562731	-5.170003	3.205600
C	-0.570244	-4.424987	-3.225760
C	-0.438407	-2.036627	-2.489646
N	-0.610438	-3.049156	-3.459662
O	0.455563	-7.353131	2.621768
O	0.683373	-2.986854	3.874608
O	-0.729367	-5.248946	-4.124059
O	-0.508697	-0.878829	-2.896516
C	0.806996	-5.563799	4.596910
H	0.813717	-6.664085	4.641640
H	0.013655	-5.147101	5.246567
H	1.775159	-5.148785	4.936739
C	-0.851572	-2.587487	-4.829729
H	-0.964204	-3.483329	-5.462387
H	-0.003956	-1.964972	-5.173914
H	-1.764390	-1.962932	-4.863360
C	0.000000	0.000000	0.000000
S	0.137535	0.781156	1.580530
C	0.421895	2.393994	0.904911
C	0.173134	0.982857	-0.985400
C	0.402294	2.283058	-0.493528
H	0.132237	0.750786	-2.059934
H	0.555196	3.150621	-1.152593
H	0.574741	3.261310	1.556025
H	0.857128	-7.361589	-0.303328
H	-0.912587	-7.361192	0.007933
H	1.063684	-1.478831	-0.187017
$end

$rem
JOBTYPE		SP
EXCHANGE	HF
CORRELATION	pRIMP2
BASIS		cc-pvtz
METHOD		rimp2
AUX_BASIS	rimp2-cc-pvtz
SOLVENT_METHOD	PCM
PURECART	11111
SYMMETRY	false
MEM_TOTAL	110000
SCF_CONVERGENCE = 6
THRESH=10
GUI = 2
$end

$solvent
dielectric 4.90
$end
--------------------------------------------------------------

             Standard Nuclear Orientation (Angstroms)
    I     Atom           X                Y                Z
 ----------------------------------------------------------------
    1      C      -0.0460700000    -6.7414040000    -0.2527670000
    2      C      -0.2729350000    -6.1556380000    -1.5386560000
    3      C       0.1417390000    -5.7914520000     0.8149660000
    4      C      -0.3210830000    -4.8037860000    -1.8130420000
    5      H      -0.4255920000    -6.8215180000    -2.4033180000
    6      C       0.0917790000    -4.3786380000     0.5275660000
    7      C      -0.1389090000    -3.8380320000    -0.7827690000
    8      C       0.2738080000    -3.4130620000     1.5566320000
    9      C      -0.1884830000    -2.4264730000    -1.0678680000
   10      C       0.2266100000    -2.0593480000     1.2854360000
   11      C       0.0000000000    -1.4782160000     0.0000000000
   12      H       0.3796570000    -1.3947830000     2.1510190000
   13      C       0.3904200000    -6.1879870000     2.2358910000
   14      C       0.5221250000    -3.7981640000     2.9655400000
   15      N       0.5627310000    -5.1700030000     3.2056000000
   16      C      -0.5702440000    -4.4249870000    -3.2257600000
   17      C      -0.4384070000    -2.0366270000    -2.4896460000
   18      N      -0.6104380000    -3.0491560000    -3.4596620000
   19      O       0.4555630000    -7.3531310000     2.6217680000
   20      O       0.6833730000    -2.9868540000     3.8746080000
   21      O      -0.7293670000    -5.2489460000    -4.1240590000
   22      O      -0.5086970000    -0.8788290000    -2.8965160000
   23      C       0.8069960000    -5.5637990000     4.5969100000
   24      H       0.8137170000    -6.6640850000     4.6416400000
   25      H       0.0136550000    -5.1471010000     5.2465670000
   26      H       1.7751590000    -5.1487850000     4.9367390000
   27      C      -0.8515720000    -2.5874870000    -4.8297290000
   28      H      -0.9642040000    -3.4833290000    -5.4623870000
   29      H      -0.0039560000    -1.9649720000    -5.1739140000
   30      H      -1.7643900000    -1.9629320000    -4.8633600000
   31      C       0.0000000000     0.0000000000     0.0000000000
   32      S       0.1375350000     0.7811560000     1.5805300000
   33      C       0.4218950000     2.3939940000     0.9049110000
   34      C       0.1731340000     0.9828570000    -0.9854000000
   35      C       0.4022940000     2.2830580000    -0.4935280000
   36      H       0.1322370000     0.7507860000    -2.0599340000
   37      H       0.5551960000     3.1506210000    -1.1525930000
   38      H       0.5747410000     3.2613100000     1.5560250000
   39      H       0.8571280000    -7.3615890000    -0.3033280000
   40      H      -0.9125870000    -7.3611920000     0.0079330000
   41      H       1.0636840000    -1.4788310000    -0.1870170000
 ----------------------------------------------------------------

   11   -1571.7341331823      5.92e-07  Convergence criterion met
 Total energy in the final basis set =    -1571.7341331823
        RIMP2         total energy =     -1576.3928881361 a.u.

                    Orbital Energies (a.u.)
 --------------------------------------------------------------

 Alpha MOs
 -- Occupied --
-91.9899 -20.5539 -20.5459 -20.5426 -20.5416 -15.6291 -15.6220 -11.3976
-11.3866 -11.3844 -11.3801 -11.3105 -11.3095 -11.3066 -11.3056 -11.2989
-11.2980 -11.2929 -11.2743 -11.2708 -11.2694 -11.2674 -11.2643 -11.2597
-11.2538 -11.2468 -11.2372  -8.9899  -6.6707  -6.6702  -6.6696  -1.4235
 -1.4130  -1.4000  -1.3922  -1.2647  -1.2564  -1.2323  -1.1881  -1.1504
 -1.1157  -1.0877  -1.0490  -0.9958  -0.9889  -0.9823  -0.9560  -0.9495
 -0.8984  -0.8911  -0.8784  -0.8617  -0.7957  -0.7813  -0.7729  -0.7585
 -0.7399  -0.7194  -0.7021  -0.6902  -0.6840  -0.6739  -0.6687  -0.6584
 -0.6494  -0.6474  -0.6386  -0.6324  -0.6319  -0.6298  -0.6242  -0.6054
 -0.5929  -0.5719  -0.5640  -0.5607  -0.5582  -0.5526  -0.5514  -0.5495
 -0.5485  -0.5431  -0.5165  -0.5152  -0.5123  -0.4869  -0.4750  -0.4599
 -0.4582  -0.4507  -0.4434  -0.4365  -0.4158  -0.4085  -0.3576  -0.3499
 -0.3320  -0.2783

          Ground-State Mulliken Net Atomic Charges

     Atom                 Charge (a.u.)
  ----------------------------------------
      1 C                    -0.084391
      2 C                    -0.030939
      3 C                    -0.103808
      4 C                    -0.123977
      5 H                     0.199328
      6 C                     0.024927
      7 C                     0.115122
      8 C                    -0.048280
      9 C                    -0.202572
     10 C                    -0.160159
     11 C                     0.167261
     12 H                     0.181650
     13 C                     0.341938
     14 C                     0.347590
     15 N                    -0.090083
     16 C                     0.358695
     17 C                     0.383235
     18 N                    -0.088466
     19 O                    -0.493229
     20 O                    -0.506369
     21 O                    -0.500496
     22 O                    -0.482828
     23 C                    -0.204752
     24 H                     0.139603
     25 H                     0.109753
     26 H                     0.109394
     27 C                    -0.198471
     28 H                     0.134348
     29 H                     0.111447
     30 H                     0.112496
     31 C                     0.000938
     32 S                    -0.009995
     33 C                    -0.226310
     34 C                    -0.166595
     35 C                    -0.237435
     36 H                     0.219090
     37 H                     0.189637
     38 H                     0.214676
     39 H                     0.138356
     40 H                     0.138597
     41 H                     0.221075
  ----------------------------------------
  Sum of atomic charges =     0.000000

                    Cartesian Multipole Moments
 -----------------------------------------------------------------
    Charge (ESU x 10^10)
                -0.0000
    Dipole Moment (Debye)
         X       0.9835      Y       1.3672      Z      -2.3361
       Tot       2.8800
    Quadrupole Moments (Debye-Ang)
        XX    -163.1823     XY       1.8568     YY    -176.2343
        XZ      -5.5352     YZ       9.3643     ZZ    -187.6744

 Total job time:  342.09s(wall), 10011.09s(cpu)
        *  Thank you very much for using Q-Chem.  Have a nice day.  *
