 Q-Chem 5.4, Q-Chem, Inc., Pleasanton, CA (2021)
 Q-Chem 5.4.0 for Intel X86 EM64T Linux

User input:
--------------------------------------------------------------
$molecule
0 1
C	-0.164018	-6.741404	0.197767
C	-1.003240	-6.155638	1.198109
C	0.533192	-5.791452	-0.632428
C	-1.182482	-4.803786	1.411364
H	-1.567483	-6.821518	1.870845
C	0.345145	-4.378638	-0.409419
C	-0.510347	-3.838032	0.609565
C	1.016449	-3.413062	-1.210332
C	-0.696879	-2.426473	0.830799
C	0.839039	-2.059348	-0.999856
C	0.000000	-1.478216	0.000000
H	1.403737	-1.394783	-1.673483
C	1.461835	-6.187987	-1.736282
C	1.936119	-3.798164	-2.306183
N	2.093916	-5.170003	-2.491597
C	-2.104529	-4.424987	2.510310
C	-1.625377	-2.036627	1.936153
N	-2.257873	-3.049156	2.691451
O	1.715561	-7.353131	-2.034222
O	2.528858	-2.986854	-3.014044
O	-2.690385	-5.248946	3.209622
O	-1.891876	-0.878829	2.251529
C	3.002711	-5.563799	-3.573032
H	3.032655	-6.664085	-3.606932
H	4.010326	-5.147101	-3.382888
H	2.640711	-5.148785	-4.533125
C	-3.152408	-2.587487	3.756832
H	-3.564653	-3.483329	4.249778
H	-3.960905	-1.964972	3.328759
H	-2.591422	-1.962932	4.477709
C	0.000000	0.000000	0.000000
S	0.205093	0.766196	1.580530
C	0.628939	2.348114	0.904911
C	0.258137	0.964028	-0.985400
C	0.599745	2.239309	-0.493528
H	0.197169	0.736404	-2.059934
H	0.827678	3.090243	-1.152593
H	0.856796	3.198808	1.556025
H	-0.783314	-7.361589	-0.461623
H	0.592677	-7.361192	0.693983
H	-0.826987	-1.478831	-0.694617
$end

$rem
JOBTYPE		SP
EXCHANGE	HF
CORRELATION	pRIMP2
BASIS		cc-pvtz
METHOD		rimp2
AUX_BASIS	rimp2-cc-pvtz
SOLVENT_METHOD	PCM
PURECART	11111
SYMMETRY	false
MEM_TOTAL	110000
SCF_CONVERGENCE = 6
THRESH=10
GUI = 2
$end

$solvent
dielectric 4.90
$end
--------------------------------------------------------------

             Standard Nuclear Orientation (Angstroms)
    I     Atom           X                Y                Z
 ----------------------------------------------------------------
    1      C      -0.1640180000    -6.7414040000     0.1977670000
    2      C      -1.0032400000    -6.1556380000     1.1981090000
    3      C       0.5331920000    -5.7914520000    -0.6324280000
    4      C      -1.1824820000    -4.8037860000     1.4113640000
    5      H      -1.5674830000    -6.8215180000     1.8708450000
    6      C       0.3451450000    -4.3786380000    -0.4094190000
    7      C      -0.5103470000    -3.8380320000     0.6095650000
    8      C       1.0164490000    -3.4130620000    -1.2103320000
    9      C      -0.6968790000    -2.4264730000     0.8307990000
   10      C       0.8390390000    -2.0593480000    -0.9998560000
   11      C       0.0000000000    -1.4782160000     0.0000000000
   12      H       1.4037370000    -1.3947830000    -1.6734830000
   13      C       1.4618350000    -6.1879870000    -1.7362820000
   14      C       1.9361190000    -3.7981640000    -2.3061830000
   15      N       2.0939160000    -5.1700030000    -2.4915970000
   16      C      -2.1045290000    -4.4249870000     2.5103100000
   17      C      -1.6253770000    -2.0366270000     1.9361530000
   18      N      -2.2578730000    -3.0491560000     2.6914510000
   19      O       1.7155610000    -7.3531310000    -2.0342220000
   20      O       2.5288580000    -2.9868540000    -3.0140440000
   21      O      -2.6903850000    -5.2489460000     3.2096220000
   22      O      -1.8918760000    -0.8788290000     2.2515290000
   23      C       3.0027110000    -5.5637990000    -3.5730320000
   24      H       3.0326550000    -6.6640850000    -3.6069320000
   25      H       4.0103260000    -5.1471010000    -3.3828880000
   26      H       2.6407110000    -5.1487850000    -4.5331250000
   27      C      -3.1524080000    -2.5874870000     3.7568320000
   28      H      -3.5646530000    -3.4833290000     4.2497780000
   29      H      -3.9609050000    -1.9649720000     3.3287590000
   30      H      -2.5914220000    -1.9629320000     4.4777090000
   31      C       0.0000000000     0.0000000000     0.0000000000
   32      S       0.2050930000     0.7661960000     1.5805300000
   33      C       0.6289390000     2.3481140000     0.9049110000
   34      C       0.2581370000     0.9640280000    -0.9854000000
   35      C       0.5997450000     2.2393090000    -0.4935280000
   36      H       0.1971690000     0.7364040000    -2.0599340000
   37      H       0.8276780000     3.0902430000    -1.1525930000
   38      H       0.8567960000     3.1988080000     1.5560250000
   39      H      -0.7833140000    -7.3615890000    -0.4616230000
   40      H       0.5926770000    -7.3611920000     0.6939830000
   41      H      -0.8269870000    -1.4788310000    -0.6946170000
 ----------------------------------------------------------------

   11   -1571.7355710656      5.77e-07  Convergence criterion met
 Total energy in the final basis set =    -1571.7355710656
        RIMP2         total energy =     -1576.3953592665 a.u.

                    Orbital Energies (a.u.)
 --------------------------------------------------------------

 Alpha MOs
 -- Occupied --
-91.9811 -20.5524 -20.5449 -20.5419 -20.5410 -15.6276 -15.6217 -11.3947
-11.3857 -11.3838 -11.3796 -11.3105 -11.3096 -11.3068 -11.3052 -11.2976
-11.2966 -11.2910 -11.2747 -11.2695 -11.2689 -11.2651 -11.2631 -11.2597
-11.2535 -11.2533 -11.2462  -8.9809  -6.6616  -6.6609  -6.6604  -1.4214
 -1.4126  -1.3985  -1.3917  -1.2631  -1.2559  -1.2307  -1.1862  -1.1505
 -1.1149  -1.0868  -1.0477  -0.9946  -0.9883  -0.9805  -0.9555  -0.9501
 -0.8969  -0.8890  -0.8777  -0.8608  -0.7933  -0.7779  -0.7722  -0.7610
 -0.7369  -0.7175  -0.7030  -0.6917  -0.6817  -0.6744  -0.6673  -0.6577
 -0.6479  -0.6462  -0.6369  -0.6329  -0.6314  -0.6292  -0.6213  -0.6054
 -0.5859  -0.5746  -0.5648  -0.5623  -0.5588  -0.5520  -0.5512  -0.5482
 -0.5479  -0.5443  -0.5208  -0.5128  -0.5105  -0.4831  -0.4751  -0.4599
 -0.4563  -0.4475  -0.4421  -0.4347  -0.4130  -0.4079  -0.3543  -0.3454
 -0.3290  -0.2820

          Ground-State Mulliken Net Atomic Charges

     Atom                 Charge (a.u.)
  ----------------------------------------
      1 C                    -0.084484
      2 C                    -0.029572
      3 C                    -0.110080
      4 C                    -0.126076
      5 H                     0.199519
      6 C                     0.026320
      7 C                     0.122394
      8 C                    -0.093416
      9 C                    -0.168642
     10 C                    -0.153655
     11 C                     0.217486
     12 H                     0.195136
     13 C                     0.342136
     14 C                     0.348577
     15 N                    -0.089916
     16 C                     0.357377
     17 C                     0.356868
     18 N                    -0.091109
     19 O                    -0.494506
     20 O                    -0.508005
     21 O                    -0.501171
     22 O                    -0.471549
     23 C                    -0.204796
     24 H                     0.139599
     25 H                     0.109414
     26 H                     0.108890
     27 C                    -0.197202
     28 H                     0.133512
     29 H                     0.111707
     30 H                     0.112161
     31 C                    -0.023303
     32 S                     0.055187
     33 C                    -0.229801
     34 C                    -0.223882
     35 C                    -0.205472
     36 H                     0.187027
     37 H                     0.188502
     38 H                     0.207726
     39 H                     0.137843
     40 H                     0.138414
     41 H                     0.210840
  ----------------------------------------
  Sum of atomic charges =     0.000000

                    Cartesian Multipole Moments
 -----------------------------------------------------------------
    Charge (ESU x 10^10)
                 0.0000
    Dipole Moment (Debye)
         X      -1.1048      Y       1.5953      Z      -0.4910
       Tot       2.0016
    Quadrupole Moments (Debye-Ang)
        XX    -175.4618     XY       9.3928     YY    -178.4618
        XZ      16.0671     YZ      -5.4993     ZZ    -175.4028

 Total job time:  308.43s(wall), 8867.50s(cpu)
        *  Thank you very much for using Q-Chem.  Have a nice day.  *
