 Q-Chem 5.4, Q-Chem, Inc., Pleasanton, CA (2021)
 Q-Chem 5.4.0 for Intel X86 EM64T Linux

User input:
--------------------------------------------------------------
$molecule
0 1
C	-0.221766	-6.741404	0.129743
C	-1.352515	-6.155638	0.782726
C	0.717339	-5.791452	-0.411926
C	-1.593885	-4.803786	0.921816
H	-2.112819	-6.821518	1.221908
C	0.464360	-4.378638	-0.266682
C	-0.688053	-3.838032	0.398255
C	1.369108	-3.413062	-0.789694
C	-0.939002	-2.426473	0.542349
C	1.130409	-2.059348	-0.652589
C	-0.000000	-1.478216	-0.000000
H	1.891446	-1.394783	-1.092453
C	1.967519	-6.187987	-1.131595
C	2.608118	-3.798164	-1.504912
N	2.819813	-5.170003	-1.625174
C	-2.836188	-4.424987	1.639129
C	-2.189558	-2.036627	1.263477
N	-3.042237	-3.049156	1.756898
O	2.307845	-7.353131	-1.324787
O	3.407213	-2.986854	-1.967354
O	-3.625890	-5.248946	2.095892
O	-2.547850	-0.878829	1.468685
C	4.043674	-5.563799	-2.330564
H	4.083407	-6.664085	-2.352178
H	4.925490	-5.147101	-1.807263
H	4.031877	-5.148785	-3.356568
C	-4.247206	-2.587487	2.452080
H	-4.803187	-3.483329	2.774302
H	-4.860536	-1.964972	1.773301
H	-3.966607	-1.962932	3.321351
C	0.000000	0.000000	0.000000
S	0.335026	0.718942	1.580530
C	1.027130	2.203226	0.904911
C	0.421617	0.904557	-0.985400
C	0.979485	2.101144	-0.493528
H	0.322049	0.690978	-2.059934
H	1.351718	2.899571	-1.152593
H	1.399246	3.001430	1.556025
H	-0.578191	-7.361589	-0.701693
H	0.319578	-7.361192	0.854838
H	-0.539540	-1.478831	-0.935572
$end

$rem
JOBTYPE		SP
EXCHANGE	HF
CORRELATION	pRIMP2
BASIS		cc-pvtz
METHOD		rimp2
AUX_BASIS	rimp2-cc-pvtz
SOLVENT_METHOD	PCM
PURECART	11111
SYMMETRY	false
MEM_TOTAL	110000
SCF_CONVERGENCE = 6
THRESH=10
GUI = 2
$end

$solvent
dielectric 4.90
$end
--------------------------------------------------------------

             Standard Nuclear Orientation (Angstroms)
    I     Atom           X                Y                Z
 ----------------------------------------------------------------
    1      C      -0.2217660000    -6.7414040000     0.1297430000
    2      C      -1.3525150000    -6.1556380000     0.7827260000
    3      C       0.7173390000    -5.7914520000    -0.4119260000
    4      C      -1.5938850000    -4.8037860000     0.9218160000
    5      H      -2.1128190000    -6.8215180000     1.2219080000
    6      C       0.4643600000    -4.3786380000    -0.2666820000
    7      C      -0.6880530000    -3.8380320000     0.3982550000
    8      C       1.3691080000    -3.4130620000    -0.7896940000
    9      C      -0.9390020000    -2.4264730000     0.5423490000
   10      C       1.1304090000    -2.0593480000    -0.6525890000
   11      C       0.0000000000    -1.4782160000     0.0000000000
   12      H       1.8914460000    -1.3947830000    -1.0924530000
   13      C       1.9675190000    -6.1879870000    -1.1315950000
   14      C       2.6081180000    -3.7981640000    -1.5049120000
   15      N       2.8198130000    -5.1700030000    -1.6251740000
   16      C      -2.8361880000    -4.4249870000     1.6391290000
   17      C      -2.1895580000    -2.0366270000     1.2634770000
   18      N      -3.0422370000    -3.0491560000     1.7568980000
   19      O       2.3078450000    -7.3531310000    -1.3247870000
   20      O       3.4072130000    -2.9868540000    -1.9673540000
   21      O      -3.6258900000    -5.2489460000     2.0958920000
   22      O      -2.5478500000    -0.8788290000     1.4686850000
   23      C       4.0436740000    -5.5637990000    -2.3305640000
   24      H       4.0834070000    -6.6640850000    -2.3521780000
   25      H       4.9254900000    -5.1471010000    -1.8072630000
   26      H       4.0318770000    -5.1487850000    -3.3565680000
   27      C      -4.2472060000    -2.5874870000     2.4520800000
   28      H      -4.8031870000    -3.4833290000     2.7743020000
   29      H      -4.8605360000    -1.9649720000     1.7733010000
   30      H      -3.9666070000    -1.9629320000     3.3213510000
   31      C       0.0000000000     0.0000000000     0.0000000000
   32      S       0.3350260000     0.7189420000     1.5805300000
   33      C       1.0271300000     2.2032260000     0.9049110000
   34      C       0.4216170000     0.9045570000    -0.9854000000
   35      C       0.9794850000     2.1011440000    -0.4935280000
   36      H       0.3220490000     0.6909780000    -2.0599340000
   37      H       1.3517180000     2.8995710000    -1.1525930000
   38      H       1.3992460000     3.0014300000     1.5560250000
   39      H      -0.5781910000    -7.3615890000    -0.7016930000
   40      H       0.3195780000    -7.3611920000     0.8548380000
   41      H      -0.5395400000    -1.4788310000    -0.9355720000
 ----------------------------------------------------------------

   11   -1571.7388245351      5.54e-07  Convergence criterion met
 Total energy in the final basis set =    -1571.7388245351
        RIMP2         total energy =     -1576.3964820543 a.u.

                    Orbital Energies (a.u.)
 --------------------------------------------------------------

 Alpha MOs
 -- Occupied --
-91.9855 -20.5527 -20.5444 -20.5414 -20.5405 -15.6269 -15.6213 -11.3937
-11.3851 -11.3833 -11.3792 -11.3089 -11.3087 -11.3051 -11.3046 -11.2966
-11.2952 -11.2897 -11.2830 -11.2686 -11.2680 -11.2642 -11.2627 -11.2595
-11.2592 -11.2526 -11.2508  -8.9854  -6.6662  -6.6656  -6.6651  -1.4198
 -1.4121  -1.3974  -1.3913  -1.2621  -1.2554  -1.2301  -1.1873  -1.1524
 -1.1141  -1.0862  -1.0467  -0.9959  -0.9878  -0.9846  -0.9551  -0.9505
 -0.8965  -0.8879  -0.8766  -0.8596  -0.7940  -0.7767  -0.7712  -0.7634
 -0.7403  -0.7169  -0.7041  -0.6918  -0.6812  -0.6727  -0.6667  -0.6572
 -0.6470  -0.6445  -0.6365  -0.6330  -0.6308  -0.6276  -0.6213  -0.6049
 -0.5845  -0.5755  -0.5687  -0.5616  -0.5577  -0.5513  -0.5506  -0.5478
 -0.5464  -0.5437  -0.5228  -0.5128  -0.5083  -0.4814  -0.4746  -0.4613
 -0.4569  -0.4511  -0.4427  -0.4345  -0.4133  -0.4074  -0.3536  -0.3521
 -0.3298  -0.2861

          Ground-State Mulliken Net Atomic Charges

     Atom                 Charge (a.u.)
  ----------------------------------------
      1 C                    -0.084406
      2 C                    -0.031063
      3 C                    -0.111521
      4 C                    -0.122139
      5 H                     0.198962
      6 C                     0.024106
      7 C                     0.117936
      8 C                    -0.093966
      9 C                    -0.167367
     10 C                    -0.126747
     11 C                     0.171038
     12 H                     0.199292
     13 C                     0.342381
     14 C                     0.346236
     15 N                    -0.089729
     16 C                     0.356721
     17 C                     0.342136
     18 N                    -0.091300
     19 O                    -0.494941
     20 O                    -0.508023
     21 O                    -0.501287
     22 O                    -0.471206
     23 C                    -0.204932
     24 H                     0.139519
     25 H                     0.109298
     26 H                     0.108794
     27 C                    -0.197262
     28 H                     0.133193
     29 H                     0.111568
     30 H                     0.112037
     31 C                     0.026684
     32 S                     0.025976
     33 C                    -0.208912
     34 C                    -0.244663
     35 C                    -0.191148
     36 H                     0.192739
     37 H                     0.192045
     38 H                     0.210117
     39 H                     0.137263
     40 H                     0.137820
     41 H                     0.204753
  ----------------------------------------
  Sum of atomic charges =     0.000000

                    Cartesian Multipole Moments
 -----------------------------------------------------------------
    Charge (ESU x 10^10)
                 0.0000
    Dipole Moment (Debye)
         X      -0.4360      Y       2.1271      Z      -1.2337
       Tot       2.4974
    Quadrupole Moments (Debye-Ang)
        XX    -185.6282     XY      12.8021     YY    -179.8752
        XZ      14.6942     YZ      -2.7718     ZZ    -164.6296

 Total job time:  293.34s(wall), 8830.96s(cpu)
        *  Thank you very much for using Q-Chem.  Have a nice day.  *
