 Q-Chem 5.4, Q-Chem, Inc., Pleasanton, CA (2021)
 Q-Chem 5.4.0 for Intel X86 EM64T Linux

User input:
--------------------------------------------------------------
$molecule
0 1
C	0.043160	-6.741404	-0.253280
C	0.269777	-6.155638	-1.539213
C	-0.145543	-5.791452	0.814295
C	0.318377	-4.803786	-1.813519
H	0.422058	-6.821518	-2.403941
C	-0.094194	-4.378638	0.527140
C	0.137191	-3.838032	-0.783072
C	-0.275104	-3.413062	1.556403
C	0.188116	-2.426473	-1.067932
C	-0.226701	-2.059348	1.285420
C	-0.000000	-1.478216	0.000000
H	-0.378931	-1.394783	2.151147
C	-0.397845	-6.187987	2.234582
C	-0.523637	-3.798164	2.965273
N	-0.567586	-5.170003	3.204744
C	0.567421	-4.424987	-3.226257
C	0.439541	-2.036627	-2.489446
N	0.609650	-3.049156	-3.459801
O	-0.468608	-7.353131	2.619468
O	-0.683034	-2.986854	3.874668
O	0.725131	-5.248946	-4.124806
O	0.512648	-0.878829	-2.895819
C	-0.813908	-5.563799	4.595691
H	-0.822891	-6.664085	4.640022
H	-1.781600	-5.147101	4.934830
H	-0.020360	-5.148785	5.246157
C	0.851649	-2.587487	-4.829716
H	0.962191	-3.483329	-5.462742
H	1.765865	-1.964972	-4.863242
H	0.005383	-1.962932	-5.173521
C	0.000000	0.000000	0.000000
S	-0.000201	0.793171	1.580530
C	-0.000228	2.430885	0.904911
C	-0.000168	0.997990	-0.985400
C	-0.000267	2.318231	-0.493528
H	-0.000145	0.762343	-2.059934
H	-0.000339	3.199164	-1.152593
H	-0.000311	3.311566	1.556025
H	0.909181	-7.361589	0.008120
H	-0.860264	-7.361192	-0.304668
H	1.063500	-1.478831	0.188062
$end

$rem
JOBTYPE		SP
EXCHANGE	HF
CORRELATION	pRIMP2
BASIS		cc-pvtz
METHOD		rimp2
AUX_BASIS	rimp2-cc-pvtz
SOLVENT_METHOD	PCM
PURECART	11111
SYMMETRY	false
MEM_TOTAL	110000
SCF_CONVERGENCE = 6
THRESH=10
GUI = 2
$end

$solvent
dielectric 4.90
$end
--------------------------------------------------------------

             Standard Nuclear Orientation (Angstroms)
    I     Atom           X                Y                Z
 ----------------------------------------------------------------
    1      C       0.0431600000    -6.7414040000    -0.2532800000
    2      C       0.2697770000    -6.1556380000    -1.5392130000
    3      C      -0.1455430000    -5.7914520000     0.8142950000
    4      C       0.3183770000    -4.8037860000    -1.8135190000
    5      H       0.4220580000    -6.8215180000    -2.4039410000
    6      C      -0.0941940000    -4.3786380000     0.5271400000
    7      C       0.1371910000    -3.8380320000    -0.7830720000
    8      C      -0.2751040000    -3.4130620000     1.5564030000
    9      C       0.1881160000    -2.4264730000    -1.0679320000
   10      C      -0.2267010000    -2.0593480000     1.2854200000
   11      C       0.0000000000    -1.4782160000     0.0000000000
   12      H      -0.3789310000    -1.3947830000     2.1511470000
   13      C      -0.3978450000    -6.1879870000     2.2345820000
   14      C      -0.5236370000    -3.7981640000     2.9652730000
   15      N      -0.5675860000    -5.1700030000     3.2047440000
   16      C       0.5674210000    -4.4249870000    -3.2262570000
   17      C       0.4395410000    -2.0366270000    -2.4894460000
   18      N       0.6096500000    -3.0491560000    -3.4598010000
   19      O      -0.4686080000    -7.3531310000     2.6194680000
   20      O      -0.6830340000    -2.9868540000     3.8746680000
   21      O       0.7251310000    -5.2489460000    -4.1248060000
   22      O       0.5126480000    -0.8788290000    -2.8958190000
   23      C      -0.8139080000    -5.5637990000     4.5956910000
   24      H      -0.8228910000    -6.6640850000     4.6400220000
   25      H      -1.7816000000    -5.1471010000     4.9348300000
   26      H      -0.0203600000    -5.1487850000     5.2461570000
   27      C       0.8516490000    -2.5874870000    -4.8297160000
   28      H       0.9621910000    -3.4833290000    -5.4627420000
   29      H       1.7658650000    -1.9649720000    -4.8632420000
   30      H       0.0053830000    -1.9629320000    -5.1735210000
   31      C       0.0000000000     0.0000000000     0.0000000000
   32      S      -0.0002010000     0.7931710000     1.5805300000
   33      C      -0.0002280000     2.4308850000     0.9049110000
   34      C      -0.0001680000     0.9979900000    -0.9854000000
   35      C      -0.0002670000     2.3182310000    -0.4935280000
   36      H      -0.0001450000     0.7623430000    -2.0599340000
   37      H      -0.0003390000     3.1991640000    -1.1525930000
   38      H      -0.0003110000     3.3115660000     1.5560250000
   39      H       0.9091810000    -7.3615890000     0.0081200000
   40      H      -0.8602640000    -7.3611920000    -0.3046680000
   41      H       1.0635000000    -1.4788310000     0.1880620000
 ----------------------------------------------------------------

   11   -1571.7349010495      5.94e-07  Convergence criterion met
 Total energy in the final basis set =    -1571.7349010495
        RIMP2         total energy =     -1576.3929947908 a.u.

                    Orbital Energies (a.u.)
 --------------------------------------------------------------

 Alpha MOs
 -- Occupied --
-91.9896 -20.5538 -20.5460 -20.5428 -20.5418 -15.6293 -15.6222 -11.3978
-11.3867 -11.3846 -11.3804 -11.3105 -11.3102 -11.3070 -11.3058 -11.2982
-11.2980 -11.2928 -11.2745 -11.2711 -11.2694 -11.2679 -11.2644 -11.2598
-11.2539 -11.2463 -11.2362  -8.9896  -6.6705  -6.6701  -6.6693  -1.4237
 -1.4132  -1.4001  -1.3923  -1.2648  -1.2565  -1.2323  -1.1878  -1.1504
 -1.1158  -1.0880  -1.0492  -0.9958  -0.9890  -0.9814  -0.9561  -0.9497
 -0.8986  -0.8913  -0.8786  -0.8620  -0.7954  -0.7810  -0.7731  -0.7594
 -0.7406  -0.7198  -0.7026  -0.6900  -0.6813  -0.6755  -0.6687  -0.6585
 -0.6494  -0.6473  -0.6391  -0.6326  -0.6319  -0.6296  -0.6242  -0.6058
 -0.5927  -0.5716  -0.5640  -0.5600  -0.5581  -0.5527  -0.5516  -0.5492
 -0.5485  -0.5430  -0.5171  -0.5151  -0.5131  -0.4867  -0.4749  -0.4602
 -0.4583  -0.4504  -0.4435  -0.4368  -0.4159  -0.4086  -0.3576  -0.3498
 -0.3318  -0.2787

          Ground-State Mulliken Net Atomic Charges

     Atom                 Charge (a.u.)
  ----------------------------------------
      1 C                    -0.083686
      2 C                    -0.031129
      3 C                    -0.103989
      4 C                    -0.123213
      5 H                     0.199345
      6 C                     0.023261
      7 C                     0.115808
      8 C                    -0.040585
      9 C                    -0.188198
     10 C                    -0.179753
     11 C                     0.201950
     12 H                     0.180861
     13 C                     0.341874
     14 C                     0.350744
     15 N                    -0.090250
     16 C                     0.358579
     17 C                     0.387074
     18 N                    -0.087520
     19 O                    -0.492954
     20 O                    -0.506024
     21 O                    -0.500463
     22 O                    -0.481468
     23 C                    -0.204652
     24 H                     0.139619
     25 H                     0.109670
     26 H                     0.109544
     27 C                    -0.198449
     28 H                     0.134402
     29 H                     0.111902
     30 H                     0.112100
     31 C                    -0.059982
     32 S                    -0.014303
     33 C                    -0.228825
     34 C                    -0.144088
     35 C                    -0.238840
     36 H                     0.222031
     37 H                     0.188823
     38 H                     0.215000
     39 H                     0.138280
     40 H                     0.138747
     41 H                     0.218756
  ----------------------------------------
  Sum of atomic charges =     0.000000

                    Cartesian Multipole Moments
 -----------------------------------------------------------------
    Charge (ESU x 10^10)
                -0.0000
    Dipole Moment (Debye)
         X       1.0768      Y       1.3596      Z      -2.0763
       Tot       2.7054
    Quadrupole Moments (Debye-Ang)
        XX    -163.4629     XY      -2.8324     YY    -175.6468
        XZ       5.3884     YZ       8.8202     ZZ    -187.6544

 Total job time:  316.79s(wall), 9078.44s(cpu)
        *  Thank you very much for using Q-Chem.  Have a nice day.  *
