 Q-Chem 5.4, Q-Chem, Inc., Pleasanton, CA (2021)
 Q-Chem 5.4.0 for Intel X86 EM64T Linux

User input:
--------------------------------------------------------------
$molecule
0 1
C	-0.221766	-6.741404	0.129743
C	-1.352515	-6.155638	0.782726
C	0.717339	-5.791452	-0.411926
C	-1.593885	-4.803786	0.921816
H	-2.112819	-6.821518	1.221908
C	0.464360	-4.378638	-0.266682
C	-0.688053	-3.838032	0.398255
C	1.369108	-3.413062	-0.789694
C	-0.939002	-2.426473	0.542349
C	1.130409	-2.059348	-0.652589
C	0.000000	-1.478216	0.000000
H	1.891446	-1.394783	-1.092453
C	1.967519	-6.187987	-1.131595
C	2.608118	-3.798164	-1.504912
N	2.819813	-5.170003	-1.625174
C	-2.836188	-4.424987	1.639129
C	-2.189558	-2.036627	1.263477
N	-3.042237	-3.049156	1.756898
O	2.307845	-7.353131	-1.324787
O	3.407213	-2.986854	-1.967354
O	-3.625890	-5.248946	2.095892
O	-2.547850	-0.878829	1.468685
C	4.043674	-5.563799	-2.330564
H	4.083407	-6.664085	-2.352178
H	4.925490	-5.147101	-1.807263
H	4.031877	-5.148785	-3.356568
C	-4.247206	-2.587487	2.452080
H	-4.803187	-3.483329	2.774302
H	-4.860536	-1.964972	1.773301
H	-3.966607	-1.962932	3.321351
C	0.000000	0.000000	0.000000
S	0.509686	0.607733	1.580530
C	1.562368	1.862312	0.904911
C	0.641367	0.764613	-0.985400
C	1.489926	1.776040	-0.493528
H	0.489914	0.584081	-2.059934
H	2.056124	2.450920	-1.152593
H	2.128395	2.537007	1.556025
H	-0.578191	-7.361589	-0.701693
H	0.319578	-7.361192	0.854838
H	-0.539540	-1.478831	-0.935572
$end

$rem
JOBTYPE		SP
EXCHANGE	HF
CORRELATION	pRIMP2
BASIS		cc-pvtz
METHOD		rimp2
AUX_BASIS	rimp2-cc-pvtz
SOLVENT_METHOD	PCM
PURECART	11111
SYMMETRY	false
MEM_TOTAL	110000
SCF_CONVERGENCE = 6
THRESH=10
GUI = 2
$end

$solvent
dielectric 4.90
$end
--------------------------------------------------------------

             Standard Nuclear Orientation (Angstroms)
    I     Atom           X                Y                Z
 ----------------------------------------------------------------
    1      C      -0.2217660000    -6.7414040000     0.1297430000
    2      C      -1.3525150000    -6.1556380000     0.7827260000
    3      C       0.7173390000    -5.7914520000    -0.4119260000
    4      C      -1.5938850000    -4.8037860000     0.9218160000
    5      H      -2.1128190000    -6.8215180000     1.2219080000
    6      C       0.4643600000    -4.3786380000    -0.2666820000
    7      C      -0.6880530000    -3.8380320000     0.3982550000
    8      C       1.3691080000    -3.4130620000    -0.7896940000
    9      C      -0.9390020000    -2.4264730000     0.5423490000
   10      C       1.1304090000    -2.0593480000    -0.6525890000
   11      C       0.0000000000    -1.4782160000     0.0000000000
   12      H       1.8914460000    -1.3947830000    -1.0924530000
   13      C       1.9675190000    -6.1879870000    -1.1315950000
   14      C       2.6081180000    -3.7981640000    -1.5049120000
   15      N       2.8198130000    -5.1700030000    -1.6251740000
   16      C      -2.8361880000    -4.4249870000     1.6391290000
   17      C      -2.1895580000    -2.0366270000     1.2634770000
   18      N      -3.0422370000    -3.0491560000     1.7568980000
   19      O       2.3078450000    -7.3531310000    -1.3247870000
   20      O       3.4072130000    -2.9868540000    -1.9673540000
   21      O      -3.6258900000    -5.2489460000     2.0958920000
   22      O      -2.5478500000    -0.8788290000     1.4686850000
   23      C       4.0436740000    -5.5637990000    -2.3305640000
   24      H       4.0834070000    -6.6640850000    -2.3521780000
   25      H       4.9254900000    -5.1471010000    -1.8072630000
   26      H       4.0318770000    -5.1487850000    -3.3565680000
   27      C      -4.2472060000    -2.5874870000     2.4520800000
   28      H      -4.8031870000    -3.4833290000     2.7743020000
   29      H      -4.8605360000    -1.9649720000     1.7733010000
   30      H      -3.9666070000    -1.9629320000     3.3213510000
   31      C       0.0000000000     0.0000000000     0.0000000000
   32      S       0.5096860000     0.6077330000     1.5805300000
   33      C       1.5623680000     1.8623120000     0.9049110000
   34      C       0.6413670000     0.7646130000    -0.9854000000
   35      C       1.4899260000     1.7760400000    -0.4935280000
   36      H       0.4899140000     0.5840810000    -2.0599340000
   37      H       2.0561240000     2.4509200000    -1.1525930000
   38      H       2.1283950000     2.5370070000     1.5560250000
   39      H      -0.5781910000    -7.3615890000    -0.7016930000
   40      H       0.3195780000    -7.3611920000     0.8548380000
   41      H      -0.5395400000    -1.4788310000    -0.9355720000
 ----------------------------------------------------------------

   11   -1571.7220878537      5.60e-07  Convergence criterion met
 Total energy in the final basis set =    -1571.7220878537
        RIMP2         total energy =     -1576.3843247484 a.u.

                    Orbital Energies (a.u.)
 --------------------------------------------------------------

 Alpha MOs
 -- Occupied --
-91.9867 -20.5528 -20.5441 -20.5405 -20.5399 -15.6267 -15.6207 -11.3934
-11.3847 -11.3824 -11.3785 -11.3073 -11.3072 -11.3038 -11.3036 -11.2957
-11.2906 -11.2881 -11.2873 -11.2673 -11.2670 -11.2643 -11.2628 -11.2625
-11.2592 -11.2532 -11.2518  -8.9868  -6.6676  -6.6669  -6.6665  -1.4196
 -1.4115  -1.3971  -1.3906  -1.2618  -1.2548  -1.2301  -1.1892  -1.1527
 -1.1132  -1.0852  -1.0458  -0.9973  -0.9883  -0.9869  -0.9548  -0.9497
 -0.8960  -0.8870  -0.8757  -0.8585  -0.7934  -0.7765  -0.7711  -0.7654
 -0.7401  -0.7166  -0.7039  -0.6915  -0.6817  -0.6721  -0.6664  -0.6567
 -0.6464  -0.6436  -0.6366  -0.6328  -0.6301  -0.6269  -0.6209  -0.6048
 -0.5841  -0.5756  -0.5719  -0.5612  -0.5572  -0.5510  -0.5502  -0.5473
 -0.5459  -0.5433  -0.5250  -0.5105  -0.5054  -0.4802  -0.4743  -0.4611
 -0.4563  -0.4508  -0.4420  -0.4337  -0.4131  -0.4068  -0.3555  -0.3514
 -0.3316  -0.2846

          Ground-State Mulliken Net Atomic Charges

     Atom                 Charge (a.u.)
  ----------------------------------------
      1 C                    -0.085032
      2 C                    -0.032386
      3 C                    -0.112240
      4 C                    -0.120892
      5 H                     0.198491
      6 C                     0.021627
      7 C                     0.118766
      8 C                    -0.097553
      9 C                    -0.189146
     10 C                    -0.133982
     11 C                     0.190529
     12 H                     0.197655
     13 C                     0.341597
     14 C                     0.346925
     15 N                    -0.089364
     16 C                     0.355996
     17 C                     0.349375
     18 N                    -0.090633
     19 O                    -0.496235
     20 O                    -0.509617
     21 O                    -0.501514
     22 O                    -0.472323
     23 C                    -0.205237
     24 H                     0.139472
     25 H                     0.109073
     26 H                     0.108590
     27 C                    -0.197833
     28 H                     0.133161
     29 H                     0.111534
     30 H                     0.112008
     31 C                    -0.003920
     32 S                     0.027015
     33 C                    -0.186672
     34 C                    -0.222104
     35 C                    -0.194323
     36 H                     0.197317
     37 H                     0.193805
     38 H                     0.212253
     39 H                     0.136613
     40 H                     0.137105
     41 H                     0.202100
  ----------------------------------------
  Sum of atomic charges =     0.000000

                    Cartesian Multipole Moments
 -----------------------------------------------------------------
    Charge (ESU x 10^10)
                 0.0000
    Dipole Moment (Debye)
         X       0.2443      Y       2.4526      Z      -1.2235
       Tot       2.7517
    Quadrupole Moments (Debye-Ang)
        XX    -182.9807     XY      14.6371     YY    -183.8559
        XZ      15.1384     YZ      -2.9120     ZZ    -164.5318

 Total job time:  333.76s(wall), 10095.02s(cpu)
        *  Thank you very much for using Q-Chem.  Have a nice day.  *
