 Q-Chem 5.4, Q-Chem, Inc., Pleasanton, CA (2021)
 Q-Chem 5.4.0 for Intel X86 EM64T Linux

User input:
--------------------------------------------------------------
$molecule
0 1
C	0.089263	-6.741404	0.240927
C	0.535973	-6.155638	1.467886
C	-0.281103	-5.791452	-0.777972
C	0.631036	-4.803786	1.729742
H	0.836458	-6.821518	2.292903
C	-0.181995	-4.378638	-0.503614
C	0.272725	-3.838032	0.746756
C	-0.539954	-3.413062	-1.485437
C	0.371053	-2.426473	1.018915
C	-0.446381	-2.059348	-1.226557
C	0.000000	-1.478216	0.000000
H	-0.747410	-1.394783	-2.052413
C	-0.772747	-6.187987	-2.134128
C	-1.029154	-3.798164	-2.829820
N	-1.110828	-5.170003	-3.059182
C	1.121728	-4.424987	3.077731
C	0.864069	-2.036627	2.375694
N	1.201928	-3.049156	3.301101
O	-0.903908	-7.353131	-2.502830
O	-1.345809	-2.986854	-3.697078
O	1.434422	-5.248946	3.934752
O	1.003943	-0.878829	2.764177
C	-1.592981	-5.563799	-4.386939
H	-1.607367	-6.664085	-4.429822
H	-0.924504	-5.147101	-5.164489
H	-2.605446	-5.148785	-4.553486
C	1.677308	-2.587487	4.608481
H	1.898089	-3.483329	5.211969
H	0.902337	-1.964972	5.094624
H	2.582098	-1.962932	4.483092
C	0.000000	0.000000	0.000000
S	0.205093	0.766196	1.580530
C	0.628939	2.348114	0.904911
C	0.258137	0.964028	-0.985400
C	0.599745	2.239309	-0.493528
H	0.197169	0.736404	-2.059934
H	0.827678	3.090243	-1.152593
H	0.856796	3.198808	1.556025
H	-0.791434	-7.361589	0.447559
H	0.897345	-7.361192	-0.166282
H	-1.015049	-1.478831	0.368883
$end

$rem
JOBTYPE		SP
EXCHANGE	HF
CORRELATION	pRIMP2
BASIS		cc-pvtz
METHOD		rimp2
AUX_BASIS	rimp2-cc-pvtz
SOLVENT_METHOD	PCM
PURECART	11111
SYMMETRY	false
MEM_TOTAL	110000
SCF_CONVERGENCE = 6
THRESH=10
GUI = 2
$end

$solvent
dielectric 4.90
$end
--------------------------------------------------------------

             Standard Nuclear Orientation (Angstroms)
    I     Atom           X                Y                Z
 ----------------------------------------------------------------
    1      C       0.0892630000    -6.7414040000     0.2409270000
    2      C       0.5359730000    -6.1556380000     1.4678860000
    3      C      -0.2811030000    -5.7914520000    -0.7779720000
    4      C       0.6310360000    -4.8037860000     1.7297420000
    5      H       0.8364580000    -6.8215180000     2.2929030000
    6      C      -0.1819950000    -4.3786380000    -0.5036140000
    7      C       0.2727250000    -3.8380320000     0.7467560000
    8      C      -0.5399540000    -3.4130620000    -1.4854370000
    9      C       0.3710530000    -2.4264730000     1.0189150000
   10      C      -0.4463810000    -2.0593480000    -1.2265570000
   11      C       0.0000000000    -1.4782160000     0.0000000000
   12      H      -0.7474100000    -1.3947830000    -2.0524130000
   13      C      -0.7727470000    -6.1879870000    -2.1341280000
   14      C      -1.0291540000    -3.7981640000    -2.8298200000
   15      N      -1.1108280000    -5.1700030000    -3.0591820000
   16      C       1.1217280000    -4.4249870000     3.0777310000
   17      C       0.8640690000    -2.0366270000     2.3756940000
   18      N       1.2019280000    -3.0491560000     3.3011010000
   19      O      -0.9039080000    -7.3531310000    -2.5028300000
   20      O      -1.3458090000    -2.9868540000    -3.6970780000
   21      O       1.4344220000    -5.2489460000     3.9347520000
   22      O       1.0039430000    -0.8788290000     2.7641770000
   23      C      -1.5929810000    -5.5637990000    -4.3869390000
   24      H      -1.6073670000    -6.6640850000    -4.4298220000
   25      H      -0.9245040000    -5.1471010000    -5.1644890000
   26      H      -2.6054460000    -5.1487850000    -4.5534860000
   27      C       1.6773080000    -2.5874870000     4.6084810000
   28      H       1.8980890000    -3.4833290000     5.2119690000
   29      H       0.9023370000    -1.9649720000     5.0946240000
   30      H       2.5820980000    -1.9629320000     4.4830920000
   31      C       0.0000000000     0.0000000000     0.0000000000
   32      S       0.2050930000     0.7661960000     1.5805300000
   33      C       0.6289390000     2.3481140000     0.9049110000
   34      C       0.2581370000     0.9640280000    -0.9854000000
   35      C       0.5997450000     2.2393090000    -0.4935280000
   36      H       0.1971690000     0.7364040000    -2.0599340000
   37      H       0.8276780000     3.0902430000    -1.1525930000
   38      H       0.8567960000     3.1988080000     1.5560250000
   39      H      -0.7914340000    -7.3615890000     0.4475590000
   40      H       0.8973450000    -7.3611920000    -0.1662820000
   41      H      -1.0150490000    -1.4788310000     0.3688830000
 ----------------------------------------------------------------

   11   -1571.6844997388      6.05e-07  Convergence criterion met
 Total energy in the final basis set =    -1571.6844997388
        RIMP2         total energy =     -1576.3565992908 a.u.

                    Orbital Energies (a.u.)
 --------------------------------------------------------------

 Alpha MOs
 -- Occupied --
-91.9720 -20.5545 -20.5468 -20.5423 -20.5412 -15.6310 -15.6220 -11.4010
-11.3875 -11.3842 -11.3798 -11.3123 -11.3095 -11.3088 -11.3060 -11.2992
-11.2898 -11.2879 -11.2703 -11.2702 -11.2660 -11.2652 -11.2613 -11.2599
-11.2541 -11.2450 -11.2343  -8.9723  -6.6528  -6.6516  -6.6507  -1.4321
 -1.4129  -1.4032  -1.3920  -1.2679  -1.2563  -1.2310  -1.1847  -1.1454
 -1.1157  -1.0862  -1.0491  -0.9942  -0.9894  -0.9750  -0.9565  -0.9475
 -0.8985  -0.8906  -0.8797  -0.8630  -0.7914  -0.7814  -0.7757  -0.7592
 -0.7305  -0.7255  -0.7012  -0.6904  -0.6882  -0.6737  -0.6688  -0.6591
 -0.6514  -0.6444  -0.6384  -0.6331  -0.6325  -0.6318  -0.6241  -0.6059
 -0.5893  -0.5718  -0.5661  -0.5631  -0.5562  -0.5536  -0.5532  -0.5494
 -0.5484  -0.5455  -0.5196  -0.5144  -0.5120  -0.4874  -0.4782  -0.4637
 -0.4559  -0.4446  -0.4381  -0.4218  -0.4084  -0.4000  -0.3551  -0.3266
 -0.3196  -0.2773

          Ground-State Mulliken Net Atomic Charges

     Atom                 Charge (a.u.)
  ----------------------------------------
      1 C                    -0.084288
      2 C                    -0.027684
      3 C                    -0.109477
      4 C                    -0.123351
      5 H                     0.199787
      6 C                     0.023299
      7 C                     0.123323
      8 C                    -0.105577
      9 C                    -0.217377
     10 C                    -0.134152
     11 C                     0.229471
     12 H                     0.195388
     13 C                     0.342808
     14 C                     0.350112
     15 N                    -0.090160
     16 C                     0.358521
     17 C                     0.402204
     18 N                    -0.089566
     19 O                    -0.494188
     20 O                    -0.507475
     21 O                    -0.499351
     22 O                    -0.443068
     23 C                    -0.204711
     24 H                     0.139570
     25 H                     0.109458
     26 H                     0.109251
     27 C                    -0.199216
     28 H                     0.134939
     29 H                     0.112749
     30 H                     0.113117
     31 C                    -0.080881
     32 S                     0.066878
     33 C                    -0.236667
     34 C                    -0.166761
     35 C                    -0.250742
     36 H                     0.180867
     37 H                     0.180295
     38 H                     0.203219
     39 H                     0.138544
     40 H                     0.138830
     41 H                     0.212060
  ----------------------------------------
  Sum of atomic charges =     0.000000

                    Cartesian Multipole Moments
 -----------------------------------------------------------------
    Charge (ESU x 10^10)
                 0.0000
    Dipole Moment (Debye)
         X       0.3136      Y       0.3456      Z       1.6556
       Tot       1.7201
    Quadrupole Moments (Debye-Ang)
        XX    -165.5821     XY       0.0503     YY    -178.7416
        XZ      -9.0119     YZ      -9.3577     ZZ    -182.5818

 Total job time:  306.20s(wall), 8943.14s(cpu)
        *  Thank you very much for using Q-Chem.  Have a nice day.  *
