 Q-Chem 5.4, Q-Chem, Inc., Pleasanton, CA (2021)
 Q-Chem 5.4.0 for Intel X86 EM64T Linux

User input:
--------------------------------------------------------------
$molecule
0 1
C	-0.046070	-6.741404	-0.252767
C	-0.272935	-6.155638	-1.538656
C	0.141739	-5.791452	0.814966
C	-0.321083	-4.803786	-1.813042
H	-0.425592	-6.821518	-2.403318
C	0.091779	-4.378638	0.527566
C	-0.138909	-3.838032	-0.782769
C	0.273808	-3.413062	1.556632
C	-0.188483	-2.426473	-1.067868
C	0.226610	-2.059348	1.285436
C	-0.000000	-1.478216	-0.000000
H	0.379657	-1.394783	2.151019
C	0.390420	-6.187987	2.235891
C	0.522125	-3.798164	2.965540
N	0.562731	-5.170003	3.205600
C	-0.570244	-4.424987	-3.225760
C	-0.438407	-2.036627	-2.489646
N	-0.610438	-3.049156	-3.459662
O	0.455563	-7.353131	2.621768
O	0.683373	-2.986854	3.874608
O	-0.729367	-5.248946	-4.124059
O	-0.508697	-0.878829	-2.896516
C	0.806996	-5.563799	4.596910
H	0.813717	-6.664085	4.641640
H	0.013655	-5.147101	5.246567
H	1.775159	-5.148785	4.936739
C	-0.851572	-2.587487	-4.829729
H	-0.964204	-3.483329	-5.462387
H	-0.003956	-1.964972	-5.173914
H	-1.764390	-1.962932	-4.863360
C	0.000000	0.000000	0.000000
S	0.271091	0.745405	1.580530
C	0.831198	2.284363	0.904911
C	0.341175	0.937861	-0.985400
C	0.792631	2.178516	-0.493528
H	0.260601	0.716417	-2.059934
H	1.093860	3.006347	-1.152593
H	1.132330	3.111961	1.556025
H	0.857128	-7.361589	-0.303328
H	-0.912587	-7.361192	0.007933
H	1.063684	-1.478831	-0.187017
$end

$rem
JOBTYPE		SP
EXCHANGE	HF
CORRELATION	pRIMP2
BASIS		cc-pvtz
METHOD		rimp2
AUX_BASIS	rimp2-cc-pvtz
SOLVENT_METHOD	PCM
PURECART	11111
SYMMETRY	false
MEM_TOTAL	110000
SCF_CONVERGENCE = 6
THRESH=10
GUI = 2
$end

$solvent
dielectric 4.90
$end
--------------------------------------------------------------

             Standard Nuclear Orientation (Angstroms)
    I     Atom           X                Y                Z
 ----------------------------------------------------------------
    1      C      -0.0460700000    -6.7414040000    -0.2527670000
    2      C      -0.2729350000    -6.1556380000    -1.5386560000
    3      C       0.1417390000    -5.7914520000     0.8149660000
    4      C      -0.3210830000    -4.8037860000    -1.8130420000
    5      H      -0.4255920000    -6.8215180000    -2.4033180000
    6      C       0.0917790000    -4.3786380000     0.5275660000
    7      C      -0.1389090000    -3.8380320000    -0.7827690000
    8      C       0.2738080000    -3.4130620000     1.5566320000
    9      C      -0.1884830000    -2.4264730000    -1.0678680000
   10      C       0.2266100000    -2.0593480000     1.2854360000
   11      C       0.0000000000    -1.4782160000     0.0000000000
   12      H       0.3796570000    -1.3947830000     2.1510190000
   13      C       0.3904200000    -6.1879870000     2.2358910000
   14      C       0.5221250000    -3.7981640000     2.9655400000
   15      N       0.5627310000    -5.1700030000     3.2056000000
   16      C      -0.5702440000    -4.4249870000    -3.2257600000
   17      C      -0.4384070000    -2.0366270000    -2.4896460000
   18      N      -0.6104380000    -3.0491560000    -3.4596620000
   19      O       0.4555630000    -7.3531310000     2.6217680000
   20      O       0.6833730000    -2.9868540000     3.8746080000
   21      O      -0.7293670000    -5.2489460000    -4.1240590000
   22      O      -0.5086970000    -0.8788290000    -2.8965160000
   23      C       0.8069960000    -5.5637990000     4.5969100000
   24      H       0.8137170000    -6.6640850000     4.6416400000
   25      H       0.0136550000    -5.1471010000     5.2465670000
   26      H       1.7751590000    -5.1487850000     4.9367390000
   27      C      -0.8515720000    -2.5874870000    -4.8297290000
   28      H      -0.9642040000    -3.4833290000    -5.4623870000
   29      H      -0.0039560000    -1.9649720000    -5.1739140000
   30      H      -1.7643900000    -1.9629320000    -4.8633600000
   31      C       0.0000000000     0.0000000000     0.0000000000
   32      S       0.2710910000     0.7454050000     1.5805300000
   33      C       0.8311980000     2.2843630000     0.9049110000
   34      C       0.3411750000     0.9378610000    -0.9854000000
   35      C       0.7926310000     2.1785160000    -0.4935280000
   36      H       0.2606010000     0.7164170000    -2.0599340000
   37      H       1.0938600000     3.0063470000    -1.1525930000
   38      H       1.1323300000     3.1119610000     1.5560250000
   39      H       0.8571280000    -7.3615890000    -0.3033280000
   40      H      -0.9125870000    -7.3611920000     0.0079330000
   41      H       1.0636840000    -1.4788310000    -0.1870170000
 ----------------------------------------------------------------

   11   -1571.7283517880      5.88e-07  Convergence criterion met
 Total energy in the final basis set =    -1571.7283517880
        RIMP2         total energy =     -1576.3886626449 a.u.

                    Orbital Energies (a.u.)
 --------------------------------------------------------------

 Alpha MOs
 -- Occupied --
-91.9897 -20.5540 -20.5458 -20.5423 -20.5412 -15.6290 -15.6218 -11.3973
-11.3865 -11.3841 -11.3797 -11.3101 -11.3080 -11.3060 -11.3052 -11.2978
-11.2977 -11.2924 -11.2762 -11.2703 -11.2691 -11.2666 -11.2642 -11.2596
-11.2536 -11.2473 -11.2389  -8.9899  -6.6707  -6.6702  -6.6695  -1.4234
 -1.4127  -1.3998  -1.3919  -1.2645  -1.2561  -1.2322  -1.1887  -1.1505
 -1.1152  -1.0873  -1.0487  -0.9961  -0.9887  -0.9835  -0.9558  -0.9492
 -0.8980  -0.8906  -0.8781  -0.8613  -0.7955  -0.7814  -0.7726  -0.7588
 -0.7396  -0.7191  -0.7016  -0.6905  -0.6841  -0.6737  -0.6685  -0.6582
 -0.6492  -0.6475  -0.6382  -0.6321  -0.6316  -0.6296  -0.6240  -0.6053
 -0.5930  -0.5722  -0.5646  -0.5611  -0.5585  -0.5525  -0.5511  -0.5493
 -0.5482  -0.5430  -0.5168  -0.5150  -0.5103  -0.4867  -0.4750  -0.4597
 -0.4578  -0.4508  -0.4432  -0.4362  -0.4156  -0.4083  -0.3578  -0.3496
 -0.3323  -0.2779

          Ground-State Mulliken Net Atomic Charges

     Atom                 Charge (a.u.)
  ----------------------------------------
      1 C                    -0.084210
      2 C                    -0.031328
      3 C                    -0.104376
      4 C                    -0.123299
      5 H                     0.199192
      6 C                     0.025316
      7 C                     0.118778
      8 C                    -0.042446
      9 C                    -0.205562
     10 C                    -0.170018
     11 C                     0.162101
     12 H                     0.185211
     13 C                     0.341446
     14 C                     0.345108
     15 N                    -0.089979
     16 C                     0.358213
     17 C                     0.381076
     18 N                    -0.089054
     19 O                    -0.493678
     20 O                    -0.506829
     21 O                    -0.500524
     22 O                    -0.483821
     23 C                    -0.204866
     24 H                     0.139561
     25 H                     0.109651
     26 H                     0.109311
     27 C                    -0.198547
     28 H                     0.134307
     29 H                     0.111382
     30 H                     0.112453
     31 C                     0.025557
     32 S                    -0.007457
     33 C                    -0.224047
     34 C                    -0.191390
     35 C                    -0.229286
     36 H                     0.219192
     37 H                     0.190624
     38 H                     0.214658
     39 H                     0.138206
     40 H                     0.138444
     41 H                     0.220929
  ----------------------------------------
  Sum of atomic charges =     0.000000

                    Cartesian Multipole Moments
 -----------------------------------------------------------------
    Charge (ESU x 10^10)
                -0.0000
    Dipole Moment (Debye)
         X       1.2949      Y       1.4644      Z      -2.3112
       Tot       3.0270
    Quadrupole Moments (Debye-Ang)
        XX    -162.2613     XY       3.4750     YY    -177.5972
        XZ      -5.5072     YZ       9.5103     ZZ    -187.7487

 Total job time:  364.67s(wall), 9490.90s(cpu)
        *  Thank you very much for using Q-Chem.  Have a nice day.  *
