 Q-Chem 5.4, Q-Chem, Inc., Pleasanton, CA (2021)
 Q-Chem 5.4.0 for Intel X86 EM64T Linux

User input:
--------------------------------------------------------------
$molecule
0 1
C	-0.129743	-6.741404	-0.221766
C	-0.782726	-6.155638	-1.352515
C	0.411926	-5.791452	0.717339
C	-0.921816	-4.803786	-1.593885
H	-1.221908	-6.821518	-2.112819
C	0.266682	-4.378638	0.464360
C	-0.398255	-3.838032	-0.688053
C	0.789694	-3.413062	1.369108
C	-0.542349	-2.426473	-0.939002
C	0.652589	-2.059348	1.130409
C	0.000000	-1.478216	0.000000
H	1.092453	-1.394783	1.891446
C	1.131595	-6.187987	1.967519
C	1.504912	-3.798164	2.608118
N	1.625174	-5.170003	2.819813
C	-1.639129	-4.424987	-2.836188
C	-1.263477	-2.036627	-2.189558
N	-1.756898	-3.049156	-3.042237
O	1.324787	-7.353131	2.307845
O	1.967354	-2.986854	3.407213
O	-2.095892	-5.248946	-3.625890
O	-1.468685	-0.878829	-2.547850
C	2.330564	-5.563799	4.043674
H	2.352178	-6.664085	4.083407
H	1.807263	-5.147101	4.925490
H	3.356568	-5.148785	4.031877
C	-2.452080	-2.587487	-4.247206
H	-2.774302	-3.483329	-4.803187
H	-1.773301	-1.964972	-4.860536
H	-3.321351	-1.962932	-3.966607
C	0.000000	0.000000	0.000000
S	0.137535	0.781156	1.580530
C	0.421895	2.393994	0.904911
C	0.173134	0.982857	-0.985400
C	0.402294	2.283058	-0.493528
H	0.132237	0.750786	-2.059934
H	0.555196	3.150621	-1.152593
H	0.574741	3.261310	1.556025
H	0.701693	-7.361589	-0.578191
H	-0.854838	-7.361192	0.319578
H	0.935572	-1.478831	-0.539540
$end

$rem
JOBTYPE		SP
EXCHANGE	HF
CORRELATION	pRIMP2
BASIS		cc-pvtz
METHOD		rimp2
AUX_BASIS	rimp2-cc-pvtz
SOLVENT_METHOD	PCM
PURECART	11111
SYMMETRY	false
MEM_TOTAL	110000
SCF_CONVERGENCE = 6
THRESH=10
GUI = 2
$end

$solvent
dielectric 4.90
$end
--------------------------------------------------------------

             Standard Nuclear Orientation (Angstroms)
    I     Atom           X                Y                Z
 ----------------------------------------------------------------
    1      C      -0.1297430000    -6.7414040000    -0.2217660000
    2      C      -0.7827260000    -6.1556380000    -1.3525150000
    3      C       0.4119260000    -5.7914520000     0.7173390000
    4      C      -0.9218160000    -4.8037860000    -1.5938850000
    5      H      -1.2219080000    -6.8215180000    -2.1128190000
    6      C       0.2666820000    -4.3786380000     0.4643600000
    7      C      -0.3982550000    -3.8380320000    -0.6880530000
    8      C       0.7896940000    -3.4130620000     1.3691080000
    9      C      -0.5423490000    -2.4264730000    -0.9390020000
   10      C       0.6525890000    -2.0593480000     1.1304090000
   11      C       0.0000000000    -1.4782160000     0.0000000000
   12      H       1.0924530000    -1.3947830000     1.8914460000
   13      C       1.1315950000    -6.1879870000     1.9675190000
   14      C       1.5049120000    -3.7981640000     2.6081180000
   15      N       1.6251740000    -5.1700030000     2.8198130000
   16      C      -1.6391290000    -4.4249870000    -2.8361880000
   17      C      -1.2634770000    -2.0366270000    -2.1895580000
   18      N      -1.7568980000    -3.0491560000    -3.0422370000
   19      O       1.3247870000    -7.3531310000     2.3078450000
   20      O       1.9673540000    -2.9868540000     3.4072130000
   21      O      -2.0958920000    -5.2489460000    -3.6258900000
   22      O      -1.4686850000    -0.8788290000    -2.5478500000
   23      C       2.3305640000    -5.5637990000     4.0436740000
   24      H       2.3521780000    -6.6640850000     4.0834070000
   25      H       1.8072630000    -5.1471010000     4.9254900000
   26      H       3.3565680000    -5.1487850000     4.0318770000
   27      C      -2.4520800000    -2.5874870000    -4.2472060000
   28      H      -2.7743020000    -3.4833290000    -4.8031870000
   29      H      -1.7733010000    -1.9649720000    -4.8605360000
   30      H      -3.3213510000    -1.9629320000    -3.9666070000
   31      C       0.0000000000     0.0000000000     0.0000000000
   32      S       0.1375350000     0.7811560000     1.5805300000
   33      C       0.4218950000     2.3939940000     0.9049110000
   34      C       0.1731340000     0.9828570000    -0.9854000000
   35      C       0.4022940000     2.2830580000    -0.4935280000
   36      H       0.1322370000     0.7507860000    -2.0599340000
   37      H       0.5551960000     3.1506210000    -1.1525930000
   38      H       0.5747410000     3.2613100000     1.5560250000
   39      H       0.7016930000    -7.3615890000    -0.5781910000
   40      H      -0.8548380000    -7.3611920000     0.3195780000
   41      H       0.9355720000    -1.4788310000    -0.5395400000
 ----------------------------------------------------------------

   11   -1571.7404841236      5.81e-07  Convergence criterion met
 Total energy in the final basis set =    -1571.7404841236
        RIMP2         total energy =     -1576.3980698386 a.u.

                    Orbital Energies (a.u.)
 --------------------------------------------------------------

 Alpha MOs
 -- Occupied --
-91.9907 -20.5530 -20.5451 -20.5420 -20.5411 -15.6279 -15.6216 -11.3951
-11.3858 -11.3839 -11.3797 -11.3094 -11.3086 -11.3059 -11.3050 -11.2991
-11.2972 -11.2921 -11.2767 -11.2697 -11.2686 -11.2664 -11.2636 -11.2595
-11.2532 -11.2492 -11.2458  -8.9905  -6.6713  -6.6708  -6.6702  -1.4211
 -1.4126  -1.3984  -1.3917  -1.2632  -1.2559  -1.2314  -1.1877  -1.1514
 -1.1149  -1.0872  -1.0480  -0.9956  -0.9883  -0.9837  -0.9556  -0.9500
 -0.8975  -0.8895  -0.8775  -0.8607  -0.7959  -0.7797  -0.7717  -0.7591
 -0.7402  -0.7164  -0.7022  -0.6913  -0.6828  -0.6725  -0.6677  -0.6577
 -0.6479  -0.6461  -0.6379  -0.6321  -0.6313  -0.6286  -0.6231  -0.6049
 -0.5899  -0.5733  -0.5646  -0.5605  -0.5581  -0.5521  -0.5507  -0.5496
 -0.5480  -0.5435  -0.5167  -0.5150  -0.5125  -0.4859  -0.4759  -0.4636
 -0.4580  -0.4517  -0.4433  -0.4354  -0.4142  -0.4080  -0.3548  -0.3519
 -0.3312  -0.2804

          Ground-State Mulliken Net Atomic Charges

     Atom                 Charge (a.u.)
  ----------------------------------------
      1 C                    -0.085077
      2 C                    -0.030012
      3 C                    -0.108670
      4 C                    -0.126119
      5 H                     0.199226
      6 C                     0.022764
      7 C                     0.114478
      8 C                    -0.072048
      9 C                    -0.187001
     10 C                    -0.153858
     11 C                     0.195107
     12 H                     0.185536
     13 C                     0.342422
     14 C                     0.348201
     15 N                    -0.090020
     16 C                     0.357779
     17 C                     0.358392
     18 N                    -0.089646
     19 O                    -0.493979
     20 O                    -0.506561
     21 O                    -0.501131
     22 O                    -0.475558
     23 C                    -0.204762
     24 H                     0.139490
     25 H                     0.109550
     26 H                     0.109218
     27 C                    -0.197810
     28 H                     0.133826
     29 H                     0.110911
     30 H                     0.112312
     31 C                    -0.011845
     32 S                     0.006085
     33 C                    -0.215028
     34 C                    -0.157825
     35 C                    -0.223718
     36 H                     0.191928
     37 H                     0.189739
     38 H                     0.212177
     39 H                     0.137811
     40 H                     0.138086
     41 H                     0.215630
  ----------------------------------------
  Sum of atomic charges =     0.000000

                    Cartesian Multipole Moments
 -----------------------------------------------------------------
    Charge (ESU x 10^10)
                 0.0000
    Dipole Moment (Debye)
         X       0.5926      Y       1.7548      Z      -2.3214
       Tot       2.9698
    Quadrupole Moments (Debye-Ang)
        XX    -170.4808     XY       4.8932     YY    -177.4082
        XZ     -14.2302     YZ       8.7761     ZZ    -180.9706

 Total job time:  312.21s(wall), 9402.90s(cpu)
        *  Thank you very much for using Q-Chem.  Have a nice day.  *
