 Q-Chem 5.4, Q-Chem, Inc., Pleasanton, CA (2021)
 Q-Chem 5.4.0 for Intel X86 EM64T Linux

User input:
--------------------------------------------------------------
$molecule
0 1
C	0.256927	-6.741404	-0.001478
C	1.562675	-6.155638	-0.001603
C	-0.827197	-5.791452	-0.001931
C	1.841253	-4.803786	-0.001374
H	2.440709	-6.821518	-0.001794
C	-0.535488	-4.378638	-0.001227
C	0.794999	-3.838032	-0.000872
C	-1.580529	-3.413062	-0.000658
C	1.084374	-2.426473	-0.000186
C	-1.305258	-2.059348	-0.000046
C	0.000000	-1.478216	0.000000
H	-2.184267	-1.394783	0.000369
C	-2.269719	-6.187987	-0.003770
C	-3.011152	-3.798164	-0.000767
N	-3.254617	-5.170003	-0.002465
C	3.275775	-4.424987	-0.001433
C	2.527951	-2.036627	0.000576
N	3.513104	-3.049156	-0.000400
O	-2.661046	-7.353131	-0.006623
O	-3.934410	-2.986854	0.000172
O	4.188059	-5.248946	-0.002151
O	2.940845	-0.878829	0.002006
C	-4.667206	-5.563799	-0.003509
H	-4.712423	-6.664085	-0.004658
H	-5.169231	-5.147101	-0.897610
H	-5.169992	-5.148785	0.890935
C	4.904229	-2.587487	0.000039
H	5.546833	-3.483329	-0.001022
H	5.095998	-1.964972	0.894545
H	5.095858	-1.962932	-0.893071
C	0.000000	0.000000	0.000000
S	0.396411	0.687007	1.580530
C	1.215245	2.105322	0.904911
C	0.498850	0.864369	-0.985400
C	1.158885	2.007781	-0.493528
H	0.381046	0.660280	-2.059934
H	1.599289	2.770727	-1.152593
H	1.655514	2.868056	1.556025
H	0.149881	-7.361589	0.896779
H	0.150656	-7.361192	-0.900100
H	-0.000531	-1.478831	1.080000
$end

$rem
JOBTYPE		SP
EXCHANGE	HF
CORRELATION	pRIMP2
BASIS		cc-pvtz
METHOD		rimp2
AUX_BASIS	rimp2-cc-pvtz
SOLVENT_METHOD	PCM
PURECART	11111
SYMMETRY	false
MEM_TOTAL	110000
SCF_CONVERGENCE = 6
THRESH=10
GUI = 2
$end

$solvent
dielectric 4.90
$end
--------------------------------------------------------------

             Standard Nuclear Orientation (Angstroms)
    I     Atom           X                Y                Z
 ----------------------------------------------------------------
    1      C       0.2569270000    -6.7414040000    -0.0014780000
    2      C       1.5626750000    -6.1556380000    -0.0016030000
    3      C      -0.8271970000    -5.7914520000    -0.0019310000
    4      C       1.8412530000    -4.8037860000    -0.0013740000
    5      H       2.4407090000    -6.8215180000    -0.0017940000
    6      C      -0.5354880000    -4.3786380000    -0.0012270000
    7      C       0.7949990000    -3.8380320000    -0.0008720000
    8      C      -1.5805290000    -3.4130620000    -0.0006580000
    9      C       1.0843740000    -2.4264730000    -0.0001860000
   10      C      -1.3052580000    -2.0593480000    -0.0000460000
   11      C       0.0000000000    -1.4782160000     0.0000000000
   12      H      -2.1842670000    -1.3947830000     0.0003690000
   13      C      -2.2697190000    -6.1879870000    -0.0037700000
   14      C      -3.0111520000    -3.7981640000    -0.0007670000
   15      N      -3.2546170000    -5.1700030000    -0.0024650000
   16      C       3.2757750000    -4.4249870000    -0.0014330000
   17      C       2.5279510000    -2.0366270000     0.0005760000
   18      N       3.5131040000    -3.0491560000    -0.0004000000
   19      O      -2.6610460000    -7.3531310000    -0.0066230000
   20      O      -3.9344100000    -2.9868540000     0.0001720000
   21      O       4.1880590000    -5.2489460000    -0.0021510000
   22      O       2.9408450000    -0.8788290000     0.0020060000
   23      C      -4.6672060000    -5.5637990000    -0.0035090000
   24      H      -4.7124230000    -6.6640850000    -0.0046580000
   25      H      -5.1692310000    -5.1471010000    -0.8976100000
   26      H      -5.1699920000    -5.1487850000     0.8909350000
   27      C       4.9042290000    -2.5874870000     0.0000390000
   28      H       5.5468330000    -3.4833290000    -0.0010220000
   29      H       5.0959980000    -1.9649720000     0.8945450000
   30      H       5.0958580000    -1.9629320000    -0.8930710000
   31      C       0.0000000000     0.0000000000     0.0000000000
   32      S       0.3964110000     0.6870070000     1.5805300000
   33      C       1.2152450000     2.1053220000     0.9049110000
   34      C       0.4988500000     0.8643690000    -0.9854000000
   35      C       1.1588850000     2.0077810000    -0.4935280000
   36      H       0.3810460000     0.6602800000    -2.0599340000
   37      H       1.5992890000     2.7707270000    -1.1525930000
   38      H       1.6555140000     2.8680560000     1.5560250000
   39      H       0.1498810000    -7.3615890000     0.8967790000
   40      H       0.1506560000    -7.3611920000    -0.9001000000
   41      H      -0.0005310000    -1.4788310000     1.0800000000
 ----------------------------------------------------------------

   11   -1571.7270866856      5.65e-07  Convergence criterion met
 Total energy in the final basis set =    -1571.7270866856
        RIMP2         total energy =     -1576.3865052244 a.u.

                    Orbital Energies (a.u.)
 --------------------------------------------------------------

 Alpha MOs
 -- Occupied --
-91.9900 -20.5495 -20.5437 -20.5404 -20.5390 -15.6257 -15.6200 -11.3911
-11.3843 -11.3823 -11.3774 -11.3069 -11.3051 -11.3034 -11.3031 -11.2953
-11.2886 -11.2850 -11.2820 -11.2671 -11.2670 -11.2624 -11.2612 -11.2587
-11.2581 -11.2516 -11.2498  -8.9899  -6.6708  -6.6702  -6.6696  -1.4178
 -1.4109  -1.3959  -1.3901  -1.2608  -1.2542  -1.2282  -1.1863  -1.1515
 -1.1122  -1.0848  -1.0448  -0.9950  -0.9868  -0.9852  -0.9540  -0.9503
 -0.8943  -0.8844  -0.8756  -0.8587  -0.7906  -0.7751  -0.7734  -0.7678
 -0.7374  -0.7161  -0.7035  -0.6902  -0.6749  -0.6687  -0.6665  -0.6561
 -0.6458  -0.6399  -0.6364  -0.6306  -0.6298  -0.6254  -0.6223  -0.6036
 -0.5831  -0.5735  -0.5678  -0.5606  -0.5555  -0.5504  -0.5492  -0.5470
 -0.5460  -0.5428  -0.5198  -0.5117  -0.5052  -0.4788  -0.4720  -0.4681
 -0.4541  -0.4481  -0.4413  -0.4332  -0.4126  -0.4064  -0.3540  -0.3499
 -0.3285  -0.2886

          Ground-State Mulliken Net Atomic Charges

     Atom                 Charge (a.u.)
  ----------------------------------------
      1 C                    -0.084029
      2 C                    -0.031907
      3 C                    -0.115680
      4 C                    -0.119130
      5 H                     0.198031
      6 C                     0.009029
      7 C                     0.113790
      8 C                    -0.069006
      9 C                    -0.147835
     10 C                    -0.169172
     11 C                     0.226383
     12 H                     0.190259
     13 C                     0.342669
     14 C                     0.348926
     15 N                    -0.089680
     16 C                     0.356057
     17 C                     0.355510
     18 N                    -0.088658
     19 O                    -0.496146
     20 O                    -0.508393
     21 O                    -0.502371
     22 O                    -0.467948
     23 C                    -0.205050
     24 H                     0.139210
     25 H                     0.108773
     26 H                     0.108834
     27 C                    -0.198080
     28 H                     0.133234
     29 H                     0.111091
     30 H                     0.110749
     31 C                    -0.055982
     32 S                     0.005548
     33 C                    -0.196273
     34 C                    -0.180195
     35 C                    -0.183552
     36 H                     0.187168
     37 H                     0.189828
     38 H                     0.213241
     39 H                     0.136779
     40 H                     0.136930
     41 H                     0.187048
  ----------------------------------------
  Sum of atomic charges =     0.000000

                    Cartesian Multipole Moments
 -----------------------------------------------------------------
    Charge (ESU x 10^10)
                 0.0000
    Dipole Moment (Debye)
         X       2.3996      Y       2.8502      Z      -0.3056
       Tot       3.7383
    Quadrupole Moments (Debye-Ang)
        XX    -193.5686     XY      -3.8094     YY    -182.5484
        XZ       0.5715     YZ      -0.4852     ZZ    -156.0580

 Total job time:  317.02s(wall), 9935.07s(cpu)
        *  Thank you very much for using Q-Chem.  Have a nice day.  *
