 Q-Chem 5.4, Q-Chem, Inc., Pleasanton, CA (2021)
 Q-Chem 5.4.0 for Intel X86 EM64T Linux

User input:
--------------------------------------------------------------
$molecule
0 1
C	1.169177	-6.639243	-0.256927
C	1.067337	-6.062399	-1.562675
C	1.003773	-5.703803	0.827197
C	0.832816	-4.731044	-1.841253
H	1.182777	-6.718195	-2.440709
C	0.759135	-4.312330	0.535488
C	0.665608	-3.779876	-0.794999
C	0.592024	-3.361324	1.580529
C	0.421169	-2.389641	-1.084374
C	0.357557	-2.028070	1.305258
C	0.256690	-1.455759	0.000000
H	0.242565	-1.373530	2.184267
C	1.070820	-6.094632	2.269719
C	0.658788	-3.740595	3.011152
N	0.895334	-5.091887	3.254617
C	0.766979	-4.358010	-3.275775
C	0.354224	-2.005586	-2.527951
N	0.529086	-3.002902	-3.513104
O	1.270336	-7.242571	2.661046
O	0.518831	-2.941447	3.934410
O	0.909352	-5.169576	-4.188059
O	0.154583	-0.865129	-2.940845
C	0.962688	-5.479882	4.667206
H	1.152619	-6.563651	4.712423
H	0.009812	-5.224773	5.169231
H	1.771476	-4.915854	5.169992
C	0.449351	-2.548170	-4.904229
H	0.603867	-3.430587	-5.546833
H	1.222168	-1.779783	-5.095998
H	-0.538644	-2.088191	-5.095858
C	0.000000	0.000000	0.000000
S	0.137535	0.781156	1.580530
C	0.421895	2.393994	0.904911
C	0.173134	0.982857	-0.985400
C	0.402294	2.283058	-0.493528
H	0.132237	0.750786	-2.059934
H	0.555196	3.150621	-1.152593
H	0.574741	3.261310	1.556025
H	2.161481	-7.094026	-0.149881
H	0.391832	-7.405660	-0.150656
H	1.320388	-1.268824	0.000531
$end

$rem
JOBTYPE		SP
EXCHANGE	HF
CORRELATION	pRIMP2
BASIS		cc-pvtz
METHOD		rimp2
AUX_BASIS	rimp2-cc-pvtz
SOLVENT_METHOD	PCM
PURECART	11111
SYMMETRY	false
MEM_TOTAL	110000
SCF_CONVERGENCE = 6
THRESH=10
GUI = 2
$end

$solvent
dielectric 4.90
$end
--------------------------------------------------------------

             Standard Nuclear Orientation (Angstroms)
    I     Atom           X                Y                Z
 ----------------------------------------------------------------
    1      C       1.1691770000    -6.6392430000    -0.2569270000
    2      C       1.0673370000    -6.0623990000    -1.5626750000
    3      C       1.0037730000    -5.7038030000     0.8271970000
    4      C       0.8328160000    -4.7310440000    -1.8412530000
    5      H       1.1827770000    -6.7181950000    -2.4407090000
    6      C       0.7591350000    -4.3123300000     0.5354880000
    7      C       0.6656080000    -3.7798760000    -0.7949990000
    8      C       0.5920240000    -3.3613240000     1.5805290000
    9      C       0.4211690000    -2.3896410000    -1.0843740000
   10      C       0.3575570000    -2.0280700000     1.3052580000
   11      C       0.2566900000    -1.4557590000     0.0000000000
   12      H       0.2425650000    -1.3735300000     2.1842670000
   13      C       1.0708200000    -6.0946320000     2.2697190000
   14      C       0.6587880000    -3.7405950000     3.0111520000
   15      N       0.8953340000    -5.0918870000     3.2546170000
   16      C       0.7669790000    -4.3580100000    -3.2757750000
   17      C       0.3542240000    -2.0055860000    -2.5279510000
   18      N       0.5290860000    -3.0029020000    -3.5131040000
   19      O       1.2703360000    -7.2425710000     2.6610460000
   20      O       0.5188310000    -2.9414470000     3.9344100000
   21      O       0.9093520000    -5.1695760000    -4.1880590000
   22      O       0.1545830000    -0.8651290000    -2.9408450000
   23      C       0.9626880000    -5.4798820000     4.6672060000
   24      H       1.1526190000    -6.5636510000     4.7124230000
   25      H       0.0098120000    -5.2247730000     5.1692310000
   26      H       1.7714760000    -4.9158540000     5.1699920000
   27      C       0.4493510000    -2.5481700000    -4.9042290000
   28      H       0.6038670000    -3.4305870000    -5.5468330000
   29      H       1.2221680000    -1.7797830000    -5.0959980000
   30      H      -0.5386440000    -2.0881910000    -5.0958580000
   31      C       0.0000000000     0.0000000000     0.0000000000
   32      S       0.1375350000     0.7811560000     1.5805300000
   33      C       0.4218950000     2.3939940000     0.9049110000
   34      C       0.1731340000     0.9828570000    -0.9854000000
   35      C       0.4022940000     2.2830580000    -0.4935280000
   36      H       0.1322370000     0.7507860000    -2.0599340000
   37      H       0.5551960000     3.1506210000    -1.1525930000
   38      H       0.5747410000     3.2613100000     1.5560250000
   39      H       2.1614810000    -7.0940260000    -0.1498810000
   40      H       0.3918320000    -7.4056600000    -0.1506560000
   41      H       1.3203880000    -1.2688240000     0.0005310000
 ----------------------------------------------------------------

   11   -1571.7258648517      5.87e-07  Convergence criterion met
 Total energy in the final basis set =    -1571.7258648517
        RIMP2         total energy =     -1576.3862751778 a.u.

                    Orbital Energies (a.u.)
 --------------------------------------------------------------

 Alpha MOs
 -- Occupied --
-91.9887 -20.5540 -20.5461 -20.5425 -20.5414 -15.6295 -15.6219 -11.3984
-11.3868 -11.3844 -11.3800 -11.3103 -11.3088 -11.3063 -11.3054 -11.2980
-11.2963 -11.2923 -11.2757 -11.2708 -11.2693 -11.2671 -11.2645 -11.2597
-11.2538 -11.2462 -11.2352  -8.9890  -6.6698  -6.6693  -6.6686  -1.4245
 -1.4129  -1.4005  -1.3921  -1.2651  -1.2563  -1.2323  -1.1885  -1.1500
 -1.1154  -1.0873  -1.0490  -0.9960  -0.9889  -0.9824  -0.9560  -0.9490
 -0.8983  -0.8910  -0.8785  -0.8617  -0.7950  -0.7815  -0.7732  -0.7588
 -0.7399  -0.7216  -0.7021  -0.6899  -0.6834  -0.6745  -0.6687  -0.6584
 -0.6496  -0.6478  -0.6384  -0.6324  -0.6318  -0.6300  -0.6244  -0.6054
 -0.5933  -0.5714  -0.5638  -0.5615  -0.5578  -0.5526  -0.5517  -0.5492
 -0.5484  -0.5428  -0.5172  -0.5148  -0.5103  -0.4864  -0.4742  -0.4590
 -0.4579  -0.4495  -0.4431  -0.4366  -0.4163  -0.4085  -0.3582  -0.3490
 -0.3322  -0.2776

          Ground-State Mulliken Net Atomic Charges

     Atom                 Charge (a.u.)
  ----------------------------------------
      1 C                    -0.083818
      2 C                    -0.031691
      3 C                    -0.104066
      4 C                    -0.121746
      5 H                     0.199175
      6 C                     0.026280
      7 C                     0.118362
      8 C                    -0.043375
      9 C                    -0.206598
     10 C                    -0.164983
     11 C                     0.168468
     12 H                     0.186056
     13 C                     0.341922
     14 C                     0.345156
     15 N                    -0.090049
     16 C                     0.358223
     17 C                     0.384981
     18 N                    -0.087890
     19 O                    -0.493347
     20 O                    -0.506208
     21 O                    -0.500193
     22 O                    -0.481748
     23 C                    -0.204793
     24 H                     0.139530
     25 H                     0.109671
     26 H                     0.109459
     27 C                    -0.198766
     28 H                     0.134496
     29 H                     0.111616
     30 H                     0.112435
     31 C                     0.029753
     32 S                    -0.009790
     33 C                    -0.239528
     34 C                    -0.221651
     35 C                    -0.218197
     36 H                     0.228356
     37 H                     0.190970
     38 H                     0.214716
     39 H                     0.138356
     40 H                     0.138610
     41 H                     0.221846
  ----------------------------------------
  Sum of atomic charges =     0.000000

                    Cartesian Multipole Moments
 -----------------------------------------------------------------
    Charge (ESU x 10^10)
                -0.0000
    Dipole Moment (Debye)
         X       1.2370      Y       1.5616      Z      -2.3086
       Tot       3.0493
    Quadrupole Moments (Debye-Ang)
        XX    -162.4004     XY       4.5246     YY    -175.9831
        XZ      -1.6326     YZ       9.2183     ZZ    -188.5085

 Total job time:  352.23s(wall), 10360.29s(cpu)
        *  Thank you very much for using Q-Chem.  Have a nice day.  *
