 Q-Chem 5.4, Q-Chem, Inc., Pleasanton, CA (2021)
 Q-Chem 5.4.0 for Intel X86 EM64T Linux

User input:
--------------------------------------------------------------
$molecule
0 1
C	0.223244	-6.741404	0.127184
C	1.354118	-6.155638	0.779949
C	-0.715408	-5.791452	-0.415271
C	1.595259	-4.803786	0.919437
H	2.114613	-6.821518	1.218801
C	-0.463133	-4.378638	-0.268806
C	0.688925	-3.838032	0.396744
C	-1.368449	-3.413062	-0.790835
C	0.939189	-2.426473	0.542026
C	-1.130363	-2.059348	-0.652669
C	0.000000	-1.478216	0.000000
H	-1.891815	-1.394783	-1.091814
C	-1.963749	-6.187987	-1.138124
C	-2.607351	-3.798164	-1.506241
N	-2.817348	-5.170003	-1.629443
C	2.837621	-4.424987	1.636646
C	2.188982	-2.036627	1.264474
N	3.042637	-3.049156	1.756205
O	-2.301222	-7.353131	-1.336258
O	-3.407386	-2.986854	-1.967056
O	3.628041	-5.248946	2.092167
O	2.545844	-0.878829	1.472160
C	-4.040164	-5.563799	-2.336642
H	-4.078749	-6.664085	-2.360245
H	-4.027880	-5.147101	-3.361968
H	-4.922811	-5.148785	-1.813424
C	4.247167	-2.587487	2.452149
H	4.804209	-3.483329	2.772531
H	3.965991	-1.964972	3.322697
H	4.859678	-1.962932	1.774507
C	0.000000	0.000000	0.000000
S	0.205093	0.766196	1.580530
C	0.628939	2.348114	0.904911
C	0.258137	0.964028	-0.985400
C	0.599745	2.239309	-0.493528
H	0.197169	0.736404	-2.059934
H	0.827678	3.090243	-1.152593
H	0.856796	3.198808	1.556025
H	-0.318588	-7.361589	0.851574
H	0.580522	-7.361192	-0.704181
H	-0.540459	-1.478831	0.935042
$end

$rem
JOBTYPE		SP
EXCHANGE	HF
CORRELATION	pRIMP2
BASIS		cc-pvtz
METHOD		rimp2
AUX_BASIS	rimp2-cc-pvtz
SOLVENT_METHOD	PCM
PURECART	11111
SYMMETRY	false
MEM_TOTAL	110000
SCF_CONVERGENCE = 6
THRESH=10
GUI = 2
$end

$solvent
dielectric 4.90
$end
--------------------------------------------------------------

             Standard Nuclear Orientation (Angstroms)
    I     Atom           X                Y                Z
 ----------------------------------------------------------------
    1      C       0.2232440000    -6.7414040000     0.1271840000
    2      C       1.3541180000    -6.1556380000     0.7799490000
    3      C      -0.7154080000    -5.7914520000    -0.4152710000
    4      C       1.5952590000    -4.8037860000     0.9194370000
    5      H       2.1146130000    -6.8215180000     1.2188010000
    6      C      -0.4631330000    -4.3786380000    -0.2688060000
    7      C       0.6889250000    -3.8380320000     0.3967440000
    8      C      -1.3684490000    -3.4130620000    -0.7908350000
    9      C       0.9391890000    -2.4264730000     0.5420260000
   10      C      -1.1303630000    -2.0593480000    -0.6526690000
   11      C       0.0000000000    -1.4782160000     0.0000000000
   12      H      -1.8918150000    -1.3947830000    -1.0918140000
   13      C      -1.9637490000    -6.1879870000    -1.1381240000
   14      C      -2.6073510000    -3.7981640000    -1.5062410000
   15      N      -2.8173480000    -5.1700030000    -1.6294430000
   16      C       2.8376210000    -4.4249870000     1.6366460000
   17      C       2.1889820000    -2.0366270000     1.2644740000
   18      N       3.0426370000    -3.0491560000     1.7562050000
   19      O      -2.3012220000    -7.3531310000    -1.3362580000
   20      O      -3.4073860000    -2.9868540000    -1.9670560000
   21      O       3.6280410000    -5.2489460000     2.0921670000
   22      O       2.5458440000    -0.8788290000     1.4721600000
   23      C      -4.0401640000    -5.5637990000    -2.3366420000
   24      H      -4.0787490000    -6.6640850000    -2.3602450000
   25      H      -4.0278800000    -5.1471010000    -3.3619680000
   26      H      -4.9228110000    -5.1487850000    -1.8134240000
   27      C       4.2471670000    -2.5874870000     2.4521490000
   28      H       4.8042090000    -3.4833290000     2.7725310000
   29      H       3.9659910000    -1.9649720000     3.3226970000
   30      H       4.8596780000    -1.9629320000     1.7745070000
   31      C       0.0000000000     0.0000000000     0.0000000000
   32      S       0.2050930000     0.7661960000     1.5805300000
   33      C       0.6289390000     2.3481140000     0.9049110000
   34      C       0.2581370000     0.9640280000    -0.9854000000
   35      C       0.5997450000     2.2393090000    -0.4935280000
   36      H       0.1971690000     0.7364040000    -2.0599340000
   37      H       0.8276780000     3.0902430000    -1.1525930000
   38      H       0.8567960000     3.1988080000     1.5560250000
   39      H      -0.3185880000    -7.3615890000     0.8515740000
   40      H       0.5805220000    -7.3611920000    -0.7041810000
   41      H      -0.5404590000    -1.4788310000     0.9350420000
 ----------------------------------------------------------------

   11   -1571.7345666397      5.70e-07  Convergence criterion met
 Total energy in the final basis set =    -1571.7345666397
        RIMP2         total energy =     -1576.3933680548 a.u.

                    Orbital Energies (a.u.)
 --------------------------------------------------------------

 Alpha MOs
 -- Occupied --
-91.9852 -20.5493 -20.5440 -20.5416 -20.5404 -15.6261 -15.6211 -11.3919
-11.3847 -11.3835 -11.3789 -11.3085 -11.3078 -11.3050 -11.3045 -11.2962
-11.2900 -11.2883 -11.2822 -11.2689 -11.2679 -11.2640 -11.2625 -11.2594
-11.2536 -11.2526 -11.2476  -8.9852  -6.6659  -6.6654  -6.6649  -1.4188
 -1.4121  -1.3967  -1.3913  -1.2615  -1.2553  -1.2292  -1.1854  -1.1511
 -1.1137  -1.0860  -1.0464  -0.9944  -0.9876  -0.9820  -0.9547  -0.9506
 -0.8954  -0.8869  -0.8767  -0.8600  -0.7918  -0.7754  -0.7738  -0.7668
 -0.7345  -0.7173  -0.7032  -0.6907  -0.6779  -0.6698  -0.6674  -0.6569
 -0.6467  -0.6393  -0.6389  -0.6321  -0.6307  -0.6268  -0.6228  -0.6045
 -0.5845  -0.5737  -0.5663  -0.5613  -0.5573  -0.5510  -0.5503  -0.5478
 -0.5469  -0.5433  -0.5173  -0.5143  -0.5089  -0.4818  -0.4734  -0.4636
 -0.4554  -0.4497  -0.4425  -0.4344  -0.4127  -0.4073  -0.3525  -0.3447
 -0.3280  -0.2878

          Ground-State Mulliken Net Atomic Charges

     Atom                 Charge (a.u.)
  ----------------------------------------
      1 C                    -0.084378
      2 C                    -0.030633
      3 C                    -0.110988
      4 C                    -0.121938
      5 H                     0.198688
      6 C                     0.010685
      7 C                     0.119935
      8 C                    -0.090229
      9 C                    -0.185229
     10 C                    -0.139536
     11 C                     0.242573
     12 H                     0.192800
     13 C                     0.343186
     14 C                     0.351110
     15 N                    -0.089992
     16 C                     0.355909
     17 C                     0.371370
     18 N                    -0.090095
     19 O                    -0.494463
     20 O                    -0.507528
     21 O                    -0.501985
     22 O                    -0.467117
     23 C                    -0.204699
     24 H                     0.139443
     25 H                     0.109026
     26 H                     0.109082
     27 C                    -0.197341
     28 H                     0.133150
     29 H                     0.111008
     30 H                     0.111566
     31 C                    -0.077004
     32 S                     0.029578
     33 C                    -0.207973
     34 C                    -0.180438
     35 C                    -0.205448
     36 H                     0.190286
     37 H                     0.189994
     38 H                     0.210909
     39 H                     0.137533
     40 H                     0.137549
     41 H                     0.191632
  ----------------------------------------
  Sum of atomic charges =     0.000000

                    Cartesian Multipole Moments
 -----------------------------------------------------------------
    Charge (ESU x 10^10)
                 0.0000
    Dipole Moment (Debye)
         X       1.2019      Y       2.2280      Z       0.3757
       Tot       2.5592
    Quadrupole Moments (Debye-Ang)
        XX    -186.9593     XY      -3.8932     YY    -179.0105
        XZ     -13.6976     YZ      -4.6959     ZZ    -164.2881

 Total job time:  297.75s(wall), 8607.02s(cpu)
        *  Thank you very much for using Q-Chem.  Have a nice day.  *
