 Q-Chem 5.4, Q-Chem, Inc., Pleasanton, CA (2021)
 Q-Chem 5.4.0 for Intel X86 EM64T Linux

User input:
--------------------------------------------------------------
$molecule
0 1
C	0.089263	-6.741404	0.240927
C	0.535973	-6.155638	1.467886
C	-0.281103	-5.791452	-0.777972
C	0.631036	-4.803786	1.729742
H	0.836458	-6.821518	2.292903
C	-0.181995	-4.378638	-0.503614
C	0.272725	-3.838032	0.746756
C	-0.539954	-3.413062	-1.485437
C	0.371053	-2.426473	1.018915
C	-0.446381	-2.059348	-1.226557
C	-0.000000	-1.478216	-0.000000
H	-0.747410	-1.394783	-2.052413
C	-0.772747	-6.187987	-2.134128
C	-1.029154	-3.798164	-2.829820
N	-1.110828	-5.170003	-3.059182
C	1.121728	-4.424987	3.077731
C	0.864069	-2.036627	2.375694
N	1.201928	-3.049156	3.301101
O	-0.903908	-7.353131	-2.502830
O	-1.345809	-2.986854	-3.697078
O	1.434422	-5.248946	3.934752
O	1.003943	-0.878829	2.764177
C	-1.592981	-5.563799	-4.386939
H	-1.607367	-6.664085	-4.429822
H	-0.924504	-5.147101	-5.164489
H	-2.605446	-5.148785	-4.553486
C	1.677308	-2.587487	4.608481
H	1.898089	-3.483329	5.211969
H	0.902337	-1.964972	5.094624
H	2.582098	-1.962932	4.483092
C	0.000000	0.000000	0.000000
S	0.607475	0.509994	1.580530
C	1.862020	1.562717	0.904911
C	0.764397	0.641624	-0.985400
C	1.775697	1.490335	-0.493528
H	0.583895	0.490135	-2.059934
H	2.450484	2.056643	-1.152593
H	2.536607	2.128872	1.556025
H	-0.791434	-7.361589	0.447559
H	0.897345	-7.361192	-0.166282
H	-1.015049	-1.478831	0.368883
$end

$rem
JOBTYPE		SP
EXCHANGE	HF
CORRELATION	pRIMP2
BASIS		cc-pvtz
METHOD		rimp2
AUX_BASIS	rimp2-cc-pvtz
SOLVENT_METHOD	PCM
PURECART	11111
SYMMETRY	false
MEM_TOTAL	110000
SCF_CONVERGENCE = 6
THRESH=10
GUI = 2
$end

$solvent
dielectric 4.90
$end
--------------------------------------------------------------

             Standard Nuclear Orientation (Angstroms)
    I     Atom           X                Y                Z
 ----------------------------------------------------------------
    1      C       0.0892630000    -6.7414040000     0.2409270000
    2      C       0.5359730000    -6.1556380000     1.4678860000
    3      C      -0.2811030000    -5.7914520000    -0.7779720000
    4      C       0.6310360000    -4.8037860000     1.7297420000
    5      H       0.8364580000    -6.8215180000     2.2929030000
    6      C      -0.1819950000    -4.3786380000    -0.5036140000
    7      C       0.2727250000    -3.8380320000     0.7467560000
    8      C      -0.5399540000    -3.4130620000    -1.4854370000
    9      C       0.3710530000    -2.4264730000     1.0189150000
   10      C      -0.4463810000    -2.0593480000    -1.2265570000
   11      C       0.0000000000    -1.4782160000     0.0000000000
   12      H      -0.7474100000    -1.3947830000    -2.0524130000
   13      C      -0.7727470000    -6.1879870000    -2.1341280000
   14      C      -1.0291540000    -3.7981640000    -2.8298200000
   15      N      -1.1108280000    -5.1700030000    -3.0591820000
   16      C       1.1217280000    -4.4249870000     3.0777310000
   17      C       0.8640690000    -2.0366270000     2.3756940000
   18      N       1.2019280000    -3.0491560000     3.3011010000
   19      O      -0.9039080000    -7.3531310000    -2.5028300000
   20      O      -1.3458090000    -2.9868540000    -3.6970780000
   21      O       1.4344220000    -5.2489460000     3.9347520000
   22      O       1.0039430000    -0.8788290000     2.7641770000
   23      C      -1.5929810000    -5.5637990000    -4.3869390000
   24      H      -1.6073670000    -6.6640850000    -4.4298220000
   25      H      -0.9245040000    -5.1471010000    -5.1644890000
   26      H      -2.6054460000    -5.1487850000    -4.5534860000
   27      C       1.6773080000    -2.5874870000     4.6084810000
   28      H       1.8980890000    -3.4833290000     5.2119690000
   29      H       0.9023370000    -1.9649720000     5.0946240000
   30      H       2.5820980000    -1.9629320000     4.4830920000
   31      C       0.0000000000     0.0000000000     0.0000000000
   32      S       0.6074750000     0.5099940000     1.5805300000
   33      C       1.8620200000     1.5627170000     0.9049110000
   34      C       0.7643970000     0.6416240000    -0.9854000000
   35      C       1.7756970000     1.4903350000    -0.4935280000
   36      H       0.5838950000     0.4901350000    -2.0599340000
   37      H       2.4504840000     2.0566430000    -1.1525930000
   38      H       2.5366070000     2.1288720000     1.5560250000
   39      H      -0.7914340000    -7.3615890000     0.4475590000
   40      H       0.8973450000    -7.3611920000    -0.1662820000
   41      H      -1.0150490000    -1.4788310000     0.3688830000
 ----------------------------------------------------------------

   11   -1571.5537757948      8.36e-07  Convergence criterion met
 Total energy in the final basis set =    -1571.5537757948
        RIMP2         total energy =     -1576.2580433666 a.u.

                    Orbital Energies (a.u.)
 --------------------------------------------------------------

 Alpha MOs
 -- Occupied --
-92.0004 -20.5852 -20.5522 -20.5398 -20.5384 -15.6435 -15.6205 -11.4224
-11.3933 -11.3822 -11.3771 -11.3156 -11.3107 -11.3057 -11.3055 -11.3037
-11.2792 -11.2729 -11.2714 -11.2674 -11.2616 -11.2589 -11.2588 -11.2549
-11.2468 -11.2296 -11.2247  -8.9981  -6.6791  -6.6766  -6.6748  -1.4736
 -1.4118  -1.4107  -1.3898  -1.2825  -1.2547  -1.2304  -1.1848  -1.1432
 -1.1159  -1.0831  -1.0508  -1.0005  -0.9922  -0.9810  -0.9590  -0.9446
 -0.9070  -0.8881  -0.8825  -0.8644  -0.7966  -0.7897  -0.7800  -0.7591
 -0.7449  -0.7261  -0.7030  -0.6923  -0.6876  -0.6826  -0.6693  -0.6602
 -0.6555  -0.6463  -0.6394  -0.6331  -0.6323  -0.6302  -0.6266  -0.6076
 -0.5936  -0.5899  -0.5714  -0.5656  -0.5595  -0.5575  -0.5486  -0.5479
 -0.5474  -0.5455  -0.5337  -0.5137  -0.5102  -0.4882  -0.4690  -0.4612
 -0.4523  -0.4433  -0.4421  -0.4271  -0.4067  -0.3961  -0.3565  -0.3246
 -0.2774  -0.2545

          Ground-State Mulliken Net Atomic Charges

     Atom                 Charge (a.u.)
  ----------------------------------------
      1 C                    -0.085650
      2 C                    -0.017757
      3 C                    -0.119098
      4 C                    -0.124272
      5 H                     0.201208
      6 C                     0.021736
      7 C                     0.143610
      8 C                    -0.102469
      9 C                    -0.267436
     10 C                    -0.138257
     11 C                     0.183554
     12 H                     0.193984
     13 C                     0.342042
     14 C                     0.345516
     15 N                    -0.089024
     16 C                     0.361863
     17 C                     0.424015
     18 N                    -0.080639
     19 O                    -0.498540
     20 O                    -0.510183
     21 O                    -0.493042
     22 O                    -0.358322
     23 C                    -0.205348
     24 H                     0.139125
     25 H                     0.109230
     26 H                     0.109010
     27 C                    -0.199445
     28 H                     0.138052
     29 H                     0.115785
     30 H                     0.115867
     31 C                    -0.151646
     32 S                     0.159982
     33 C                    -0.283144
     34 C                    -0.179861
     35 C                    -0.262762
     36 H                     0.179391
     37 H                     0.177959
     38 H                     0.200183
     39 H                     0.139309
     40 H                     0.139587
     41 H                     0.225887
  ----------------------------------------
  Sum of atomic charges =     0.000000

                    Cartesian Multipole Moments
 -----------------------------------------------------------------
    Charge (ESU x 10^10)
                 0.0000
    Dipole Moment (Debye)
         X       1.6463      Y      -1.1851      Z       4.4098
       Tot       4.8540
    Quadrupole Moments (Debye-Ang)
        XX    -161.4334     XY      -0.4039     YY    -182.5296
        XZ      -5.8372     YZ     -14.3134     ZZ    -177.2449

 Total job time:  323.66s(wall), 9564.44s(cpu)
        *  Thank you very much for using Q-Chem.  Have a nice day.  *
