 Q-Chem 5.4, Q-Chem, Inc., Pleasanton, CA (2021)
 Q-Chem 5.4.0 for Intel X86 EM64T Linux

User input:
--------------------------------------------------------------
$molecule
0 1
C	-0.127184	-6.741404	0.223244
C	-0.779949	-6.155638	1.354118
C	0.415271	-5.791452	-0.715408
C	-0.919437	-4.803786	1.595259
H	-1.218801	-6.821518	2.114613
C	0.268806	-4.378638	-0.463133
C	-0.396744	-3.838032	0.688925
C	0.790835	-3.413062	-1.368449
C	-0.542026	-2.426473	0.939189
C	0.652669	-2.059348	-1.130363
C	0.000000	-1.478216	0.000000
H	1.091814	-1.394783	-1.891815
C	1.138124	-6.187987	-1.963749
C	1.506241	-3.798164	-2.607351
N	1.629443	-5.170003	-2.817348
C	-1.636646	-4.424987	2.837621
C	-1.264474	-2.036627	2.188982
N	-1.756205	-3.049156	3.042637
O	1.336258	-7.353131	-2.301222
O	1.967056	-2.986854	-3.407386
O	-2.092167	-5.248946	3.628041
O	-1.472160	-0.878829	2.545844
C	2.336642	-5.563799	-4.040164
H	2.360245	-6.664085	-4.078749
H	3.361968	-5.147101	-4.027880
H	1.813424	-5.148785	-4.922811
C	-2.452149	-2.587487	4.247167
H	-2.772531	-3.483329	4.804209
H	-3.322697	-1.964972	3.965991
H	-1.774507	-1.962932	4.859678
C	0.000000	0.000000	0.000000
S	0.509686	0.607733	1.580530
C	1.562368	1.862312	0.904911
C	0.641367	0.764613	-0.985400
C	1.489926	1.776040	-0.493528
H	0.489914	0.584081	-2.059934
H	2.056124	2.450920	-1.152593
H	2.128395	2.537007	1.556025
H	-0.851574	-7.361589	-0.318588
H	0.704181	-7.361192	0.580522
H	-0.935042	-1.478831	-0.540459
$end

$rem
JOBTYPE		SP
EXCHANGE	HF
CORRELATION	pRIMP2
BASIS		cc-pvtz
METHOD		rimp2
AUX_BASIS	rimp2-cc-pvtz
SOLVENT_METHOD	PCM
PURECART	11111
SYMMETRY	false
MEM_TOTAL	110000
SCF_CONVERGENCE = 6
THRESH=10
GUI = 2
$end

$solvent
dielectric 4.90
$end
--------------------------------------------------------------

             Standard Nuclear Orientation (Angstroms)
    I     Atom           X                Y                Z
 ----------------------------------------------------------------
    1      C      -0.1271840000    -6.7414040000     0.2232440000
    2      C      -0.7799490000    -6.1556380000     1.3541180000
    3      C       0.4152710000    -5.7914520000    -0.7154080000
    4      C      -0.9194370000    -4.8037860000     1.5952590000
    5      H      -1.2188010000    -6.8215180000     2.1146130000
    6      C       0.2688060000    -4.3786380000    -0.4631330000
    7      C      -0.3967440000    -3.8380320000     0.6889250000
    8      C       0.7908350000    -3.4130620000    -1.3684490000
    9      C      -0.5420260000    -2.4264730000     0.9391890000
   10      C       0.6526690000    -2.0593480000    -1.1303630000
   11      C       0.0000000000    -1.4782160000     0.0000000000
   12      H       1.0918140000    -1.3947830000    -1.8918150000
   13      C       1.1381240000    -6.1879870000    -1.9637490000
   14      C       1.5062410000    -3.7981640000    -2.6073510000
   15      N       1.6294430000    -5.1700030000    -2.8173480000
   16      C      -1.6366460000    -4.4249870000     2.8376210000
   17      C      -1.2644740000    -2.0366270000     2.1889820000
   18      N      -1.7562050000    -3.0491560000     3.0426370000
   19      O       1.3362580000    -7.3531310000    -2.3012220000
   20      O       1.9670560000    -2.9868540000    -3.4073860000
   21      O      -2.0921670000    -5.2489460000     3.6280410000
   22      O      -1.4721600000    -0.8788290000     2.5458440000
   23      C       2.3366420000    -5.5637990000    -4.0401640000
   24      H       2.3602450000    -6.6640850000    -4.0787490000
   25      H       3.3619680000    -5.1471010000    -4.0278800000
   26      H       1.8134240000    -5.1487850000    -4.9228110000
   27      C      -2.4521490000    -2.5874870000     4.2471670000
   28      H      -2.7725310000    -3.4833290000     4.8042090000
   29      H      -3.3226970000    -1.9649720000     3.9659910000
   30      H      -1.7745070000    -1.9629320000     4.8596780000
   31      C       0.0000000000     0.0000000000     0.0000000000
   32      S       0.5096860000     0.6077330000     1.5805300000
   33      C       1.5623680000     1.8623120000     0.9049110000
   34      C       0.6413670000     0.7646130000    -0.9854000000
   35      C       1.4899260000     1.7760400000    -0.4935280000
   36      H       0.4899140000     0.5840810000    -2.0599340000
   37      H       2.0561240000     2.4509200000    -1.1525930000
   38      H       2.1283950000     2.5370070000     1.5560250000
   39      H      -0.8515740000    -7.3615890000    -0.3185880000
   40      H       0.7041810000    -7.3611920000     0.5805220000
   41      H      -0.9350420000    -1.4788310000    -0.5404590000
 ----------------------------------------------------------------

   11   -1571.7068042369      5.88e-07  Convergence criterion met
 Total energy in the final basis set =    -1571.7068042369
        RIMP2         total energy =     -1576.3748794438 a.u.

                    Orbital Energies (a.u.)
 --------------------------------------------------------------

 Alpha MOs
 -- Occupied --
-91.9810 -20.5545 -20.5447 -20.5401 -20.5398 -15.6280 -15.6206 -11.3957
-11.3854 -11.3821 -11.3784 -11.3084 -11.3071 -11.3059 -11.3038 -11.2964
-11.2871 -11.2852 -11.2824 -11.2679 -11.2665 -11.2632 -11.2628 -11.2609
-11.2591 -11.2519 -11.2489  -8.9810  -6.6616  -6.6607  -6.6603  -1.4228
 -1.4113  -1.3990  -1.3904  -1.2634  -1.2547  -1.2302  -1.1877  -1.1509
 -1.1135  -1.0850  -1.0467  -0.9958  -0.9880  -0.9843  -0.9550  -0.9492
 -0.8963  -0.8881  -0.8768  -0.8595  -0.7915  -0.7781  -0.7727  -0.7641
 -0.7342  -0.7170  -0.7027  -0.6918  -0.6830  -0.6740  -0.6672  -0.6572
 -0.6475  -0.6444  -0.6366  -0.6323  -0.6303  -0.6286  -0.6207  -0.6056
 -0.5875  -0.5740  -0.5679  -0.5627  -0.5587  -0.5519  -0.5510  -0.5476
 -0.5471  -0.5440  -0.5253  -0.5095  -0.5069  -0.4827  -0.4707  -0.4592
 -0.4548  -0.4449  -0.4397  -0.4330  -0.4123  -0.4069  -0.3552  -0.3474
 -0.3317  -0.2775

          Ground-State Mulliken Net Atomic Charges

     Atom                 Charge (a.u.)
  ----------------------------------------
      1 C                    -0.084442
      2 C                    -0.031297
      3 C                    -0.111899
      4 C                    -0.122864
      5 H                     0.198809
      6 C                     0.021332
      7 C                     0.118523
      8 C                    -0.084170
      9 C                    -0.178387
     10 C                    -0.169790
     11 C                     0.206071
     12 H                     0.190068
     13 C                     0.339772
     14 C                     0.348998
     15 N                    -0.089421
     16 C                     0.356555
     17 C                     0.367351
     18 N                    -0.090275
     19 O                    -0.497047
     20 O                    -0.511065
     21 O                    -0.501051
     22 O                    -0.477864
     23 C                    -0.205304
     24 H                     0.139515
     25 H                     0.109006
     26 H                     0.108627
     27 C                    -0.197897
     28 H                     0.133866
     29 H                     0.111722
     30 H                     0.112341
     31 C                    -0.029161
     32 S                     0.063665
     33 C                    -0.211545
     34 C                    -0.206272
     35 C                    -0.199524
     36 H                     0.185178
     37 H                     0.191296
     38 H                     0.209474
     39 H                     0.136689
     40 H                     0.137125
     41 H                     0.213293
  ----------------------------------------
  Sum of atomic charges =     0.000000

                    Cartesian Multipole Moments
 -----------------------------------------------------------------
    Charge (ESU x 10^10)
                 0.0000
    Dipole Moment (Debye)
         X      -0.1226      Y       2.1291      Z      -0.1468
       Tot       2.1377
    Quadrupole Moments (Debye-Ang)
        XX    -166.3465     XY      11.4754     YY    -184.6135
        XZ      14.6933     YZ      -7.3767     ZZ    -180.6879

 Total job time:  321.62s(wall), 9338.34s(cpu)
        *  Thank you very much for using Q-Chem.  Have a nice day.  *
