 Q-Chem 5.4, Q-Chem, Inc., Pleasanton, CA (2021)
 Q-Chem 5.4.0 for Intel X86 EM64T Linux

User input:
--------------------------------------------------------------
$molecule
0 1
C	0.046070	-6.741404	0.252767
C	0.272935	-6.155638	1.538656
C	-0.141739	-5.791452	-0.814966
C	0.321083	-4.803786	1.813042
H	0.425592	-6.821518	2.403318
C	-0.091779	-4.378638	-0.527566
C	0.138909	-3.838032	0.782769
C	-0.273808	-3.413062	-1.556632
C	0.188483	-2.426473	1.067868
C	-0.226610	-2.059348	-1.285436
C	0.000000	-1.478216	0.000000
H	-0.379657	-1.394783	-2.151019
C	-0.390420	-6.187987	-2.235891
C	-0.522125	-3.798164	-2.965540
N	-0.562731	-5.170003	-3.205600
C	0.570244	-4.424987	3.225760
C	0.438407	-2.036627	2.489646
N	0.610438	-3.049156	3.459662
O	-0.455563	-7.353131	-2.621768
O	-0.683373	-2.986854	-3.874608
O	0.729367	-5.248946	4.124059
O	0.508697	-0.878829	2.896516
C	-0.806996	-5.563799	-4.596910
H	-0.813717	-6.664085	-4.641640
H	-0.013655	-5.147101	-5.246567
H	-1.775159	-5.148785	-4.936739
C	0.851572	-2.587487	4.829729
H	0.964204	-3.483329	5.462387
H	0.003956	-1.964972	5.173914
H	1.764390	-1.962932	4.863360
C	0.000000	0.000000	0.000000
S	0.396411	0.687007	1.580530
C	1.215245	2.105322	0.904911
C	0.498850	0.864369	-0.985400
C	1.158885	2.007781	-0.493528
H	0.381046	0.660280	-2.059934
H	1.599289	2.770727	-1.152593
H	1.655514	2.868056	1.556025
H	-0.857128	-7.361589	0.303328
H	0.912587	-7.361192	-0.007933
H	-1.063684	-1.478831	0.187017
$end

$rem
JOBTYPE		SP
EXCHANGE	HF
CORRELATION	pRIMP2
BASIS		cc-pvtz
METHOD		rimp2
AUX_BASIS	rimp2-cc-pvtz
SOLVENT_METHOD	PCM
PURECART	11111
SYMMETRY	false
MEM_TOTAL	110000
SCF_CONVERGENCE = 6
THRESH=10
GUI = 2
$end

$solvent
dielectric 4.90
$end
--------------------------------------------------------------

             Standard Nuclear Orientation (Angstroms)
    I     Atom           X                Y                Z
 ----------------------------------------------------------------
    1      C       0.0460700000    -6.7414040000     0.2527670000
    2      C       0.2729350000    -6.1556380000     1.5386560000
    3      C      -0.1417390000    -5.7914520000    -0.8149660000
    4      C       0.3210830000    -4.8037860000     1.8130420000
    5      H       0.4255920000    -6.8215180000     2.4033180000
    6      C      -0.0917790000    -4.3786380000    -0.5275660000
    7      C       0.1389090000    -3.8380320000     0.7827690000
    8      C      -0.2738080000    -3.4130620000    -1.5566320000
    9      C       0.1884830000    -2.4264730000     1.0678680000
   10      C      -0.2266100000    -2.0593480000    -1.2854360000
   11      C       0.0000000000    -1.4782160000     0.0000000000
   12      H      -0.3796570000    -1.3947830000    -2.1510190000
   13      C      -0.3904200000    -6.1879870000    -2.2358910000
   14      C      -0.5221250000    -3.7981640000    -2.9655400000
   15      N      -0.5627310000    -5.1700030000    -3.2056000000
   16      C       0.5702440000    -4.4249870000     3.2257600000
   17      C       0.4384070000    -2.0366270000     2.4896460000
   18      N       0.6104380000    -3.0491560000     3.4596620000
   19      O      -0.4555630000    -7.3531310000    -2.6217680000
   20      O      -0.6833730000    -2.9868540000    -3.8746080000
   21      O       0.7293670000    -5.2489460000     4.1240590000
   22      O       0.5086970000    -0.8788290000     2.8965160000
   23      C      -0.8069960000    -5.5637990000    -4.5969100000
   24      H      -0.8137170000    -6.6640850000    -4.6416400000
   25      H      -0.0136550000    -5.1471010000    -5.2465670000
   26      H      -1.7751590000    -5.1487850000    -4.9367390000
   27      C       0.8515720000    -2.5874870000     4.8297290000
   28      H       0.9642040000    -3.4833290000     5.4623870000
   29      H       0.0039560000    -1.9649720000     5.1739140000
   30      H       1.7643900000    -1.9629320000     4.8633600000
   31      C       0.0000000000     0.0000000000     0.0000000000
   32      S       0.3964110000     0.6870070000     1.5805300000
   33      C       1.2152450000     2.1053220000     0.9049110000
   34      C       0.4988500000     0.8643690000    -0.9854000000
   35      C       1.1588850000     2.0077810000    -0.4935280000
   36      H       0.3810460000     0.6602800000    -2.0599340000
   37      H       1.5992890000     2.7707270000    -1.1525930000
   38      H       1.6555140000     2.8680560000     1.5560250000
   39      H      -0.8571280000    -7.3615890000     0.3033280000
   40      H       0.9125870000    -7.3611920000    -0.0079330000
   41      H      -1.0636840000    -1.4788310000     0.1870170000
 ----------------------------------------------------------------

   11   -1571.6447949923      6.25e-07  Convergence criterion met
 Total energy in the final basis set =    -1571.6447949923
        RIMP2         total energy =     -1576.3256596093 a.u.

                    Orbital Energies (a.u.)
 --------------------------------------------------------------

 Alpha MOs
 -- Occupied --
-91.9690 -20.5599 -20.5477 -20.5412 -20.5407 -15.6334 -15.6215 -11.4052
-11.3885 -11.3833 -11.3792 -11.3123 -11.3101 -11.3087 -11.3057 -11.2995
-11.2875 -11.2801 -11.2704 -11.2687 -11.2664 -11.2652 -11.2596 -11.2570
-11.2537 -11.2468 -11.2324  -8.9694  -6.6499  -6.6481  -6.6469  -1.4409
 -1.4122  -1.4055  -1.3913  -1.2711  -1.2558  -1.2309  -1.1845  -1.1444
 -1.1156  -1.0851  -1.0493  -0.9952  -0.9896  -0.9758  -0.9569  -0.9466
 -0.9004  -0.8905  -0.8803  -0.8633  -0.7908  -0.7842  -0.7772  -0.7586
 -0.7332  -0.7282  -0.7015  -0.6908  -0.6882  -0.6761  -0.6688  -0.6593
 -0.6527  -0.6445  -0.6379  -0.6334  -0.6327  -0.6320  -0.6240  -0.6063
 -0.5905  -0.5723  -0.5678  -0.5645  -0.5572  -0.5544  -0.5541  -0.5496
 -0.5480  -0.5456  -0.5233  -0.5143  -0.5112  -0.4896  -0.4722  -0.4635
 -0.4555  -0.4438  -0.4385  -0.4215  -0.4079  -0.3824  -0.3554  -0.3255
 -0.3141  -0.2737

          Ground-State Mulliken Net Atomic Charges

     Atom                 Charge (a.u.)
  ----------------------------------------
      1 C                    -0.084586
      2 C                    -0.027161
      3 C                    -0.112533
      4 C                    -0.123169
      5 H                     0.199681
      6 C                     0.024585
      7 C                     0.123840
      8 C                    -0.100897
      9 C                    -0.219650
     10 C                    -0.126455
     11 C                     0.183963
     12 H                     0.195156
     13 C                     0.342042
     14 C                     0.347316
     15 N                    -0.089799
     16 C                     0.358738
     17 C                     0.402296
     18 N                    -0.087158
     19 O                    -0.495821
     20 O                    -0.508670
     21 O                    -0.498059
     22 O                    -0.417563
     23 C                    -0.205004
     24 H                     0.139575
     25 H                     0.109299
     26 H                     0.109058
     27 C                    -0.199775
     28 H                     0.135716
     29 H                     0.113301
     30 H                     0.113780
     31 C                    -0.052355
     32 S                     0.075533
     33 C                    -0.247872
     34 C                    -0.179280
     35 C                    -0.249511
     36 H                     0.179925
     37 H                     0.178482
     38 H                     0.199795
     39 H                     0.138103
     40 H                     0.138331
     41 H                     0.216801
  ----------------------------------------
  Sum of atomic charges =     0.000000

                    Cartesian Multipole Moments
 -----------------------------------------------------------------
    Charge (ESU x 10^10)
                 0.0000
    Dipole Moment (Debye)
         X       0.1856      Y       0.1833      Z       2.0482
       Tot       2.0648
    Quadrupole Moments (Debye-Ang)
        XX    -161.4586     XY       2.7629     YY    -181.6761
        XZ      -4.1741     YZ     -10.9792     ZZ    -184.1338

 Total job time:  306.45s(wall), 9452.19s(cpu)
        *  Thank you very much for using Q-Chem.  Have a nice day.  *
