 Q-Chem 5.4, Q-Chem, Inc., Pleasanton, CA (2021)
 Q-Chem 5.4.0 for Intel X86 EM64T Linux

User input:
--------------------------------------------------------------
$molecule
0 1
C	-0.043160	-6.741404	0.253280
C	-0.269777	-6.155638	1.539213
C	0.145543	-5.791452	-0.814295
C	-0.318377	-4.803786	1.813519
H	-0.422058	-6.821518	2.403941
C	0.094194	-4.378638	-0.527140
C	-0.137191	-3.838032	0.783072
C	0.275104	-3.413062	-1.556403
C	-0.188116	-2.426473	1.067932
C	0.226701	-2.059348	-1.285420
C	-0.000000	-1.478216	-0.000000
H	0.378931	-1.394783	-2.151147
C	0.397845	-6.187987	-2.234582
C	0.523637	-3.798164	-2.965273
N	0.567586	-5.170003	-3.204744
C	-0.567421	-4.424987	3.226257
C	-0.439541	-2.036627	2.489446
N	-0.609650	-3.049156	3.459801
O	0.468608	-7.353131	-2.619468
O	0.683034	-2.986854	-3.874668
O	-0.725131	-5.248946	4.124806
O	-0.512648	-0.878829	2.895819
C	0.813908	-5.563799	-4.595691
H	0.822891	-6.664085	-4.640022
H	1.781600	-5.147101	-4.934830
H	0.020360	-5.148785	-5.246157
C	-0.851649	-2.587487	4.829716
H	-0.962191	-3.483329	5.462742
H	-1.765865	-1.964972	4.863242
H	-0.005383	-1.962932	5.173521
C	0.000000	0.000000	0.000000
S	-0.000201	0.793171	1.580530
C	-0.000228	2.430885	0.904911
C	-0.000168	0.997990	-0.985400
C	-0.000267	2.318231	-0.493528
H	-0.000145	0.762343	-2.059934
H	-0.000339	3.199164	-1.152593
H	-0.000311	3.311566	1.556025
H	-0.909181	-7.361589	-0.008120
H	0.860264	-7.361192	0.304668
H	-1.063500	-1.478831	-0.188062
$end

$rem
JOBTYPE		SP
EXCHANGE	HF
CORRELATION	pRIMP2
BASIS		cc-pvtz
METHOD		rimp2
AUX_BASIS	rimp2-cc-pvtz
SOLVENT_METHOD	PCM
PURECART	11111
SYMMETRY	false
MEM_TOTAL	110000
SCF_CONVERGENCE = 6
THRESH=10
GUI = 2
$end

$solvent
dielectric 4.90
$end
--------------------------------------------------------------

             Standard Nuclear Orientation (Angstroms)
    I     Atom           X                Y                Z
 ----------------------------------------------------------------
    1      C      -0.0431600000    -6.7414040000     0.2532800000
    2      C      -0.2697770000    -6.1556380000     1.5392130000
    3      C       0.1455430000    -5.7914520000    -0.8142950000
    4      C      -0.3183770000    -4.8037860000     1.8135190000
    5      H      -0.4220580000    -6.8215180000     2.4039410000
    6      C       0.0941940000    -4.3786380000    -0.5271400000
    7      C      -0.1371910000    -3.8380320000     0.7830720000
    8      C       0.2751040000    -3.4130620000    -1.5564030000
    9      C      -0.1881160000    -2.4264730000     1.0679320000
   10      C       0.2267010000    -2.0593480000    -1.2854200000
   11      C       0.0000000000    -1.4782160000     0.0000000000
   12      H       0.3789310000    -1.3947830000    -2.1511470000
   13      C       0.3978450000    -6.1879870000    -2.2345820000
   14      C       0.5236370000    -3.7981640000    -2.9652730000
   15      N       0.5675860000    -5.1700030000    -3.2047440000
   16      C      -0.5674210000    -4.4249870000     3.2262570000
   17      C      -0.4395410000    -2.0366270000     2.4894460000
   18      N      -0.6096500000    -3.0491560000     3.4598010000
   19      O       0.4686080000    -7.3531310000    -2.6194680000
   20      O       0.6830340000    -2.9868540000    -3.8746680000
   21      O      -0.7251310000    -5.2489460000     4.1248060000
   22      O      -0.5126480000    -0.8788290000     2.8958190000
   23      C       0.8139080000    -5.5637990000    -4.5956910000
   24      H       0.8228910000    -6.6640850000    -4.6400220000
   25      H       1.7816000000    -5.1471010000    -4.9348300000
   26      H       0.0203600000    -5.1487850000    -5.2461570000
   27      C      -0.8516490000    -2.5874870000     4.8297160000
   28      H      -0.9621910000    -3.4833290000     5.4627420000
   29      H      -1.7658650000    -1.9649720000     4.8632420000
   30      H      -0.0053830000    -1.9629320000     5.1735210000
   31      C       0.0000000000     0.0000000000     0.0000000000
   32      S      -0.0002010000     0.7931710000     1.5805300000
   33      C      -0.0002280000     2.4308850000     0.9049110000
   34      C      -0.0001680000     0.9979900000    -0.9854000000
   35      C      -0.0002670000     2.3182310000    -0.4935280000
   36      H      -0.0001450000     0.7623430000    -2.0599340000
   37      H      -0.0003390000     3.1991640000    -1.1525930000
   38      H      -0.0003110000     3.3115660000     1.5560250000
   39      H      -0.9091810000    -7.3615890000    -0.0081200000
   40      H       0.8602640000    -7.3611920000     0.3046680000
   41      H      -1.0635000000    -1.4788310000    -0.1880620000
 ----------------------------------------------------------------

   11   -1571.6988278360      6.00e-07  Convergence criterion met
 Total energy in the final basis set =    -1571.6988278360
        RIMP2         total energy =     -1576.3665058677 a.u.

                    Orbital Energies (a.u.)
 --------------------------------------------------------------

 Alpha MOs
 -- Occupied --
-91.9693 -20.5569 -20.5472 -20.5432 -20.5421 -15.6315 -15.6227 -11.4016
-11.3880 -11.3851 -11.3806 -11.3135 -11.3104 -11.3096 -11.3067 -11.3000
-11.2956 -11.2927 -11.2718 -11.2708 -11.2674 -11.2653 -11.2603 -11.2549
-11.2534 -11.2448 -11.2366  -8.9692  -6.6498  -6.6484  -6.6475  -1.4327
 -1.4136  -1.4037  -1.3928  -1.2684  -1.2571  -1.2323  -1.1858  -1.1456
 -1.1166  -1.0872  -1.0500  -0.9948  -0.9898  -0.9744  -0.9570  -0.9477
 -0.8992  -0.8918  -0.8804  -0.8637  -0.7927  -0.7824  -0.7760  -0.7573
 -0.7322  -0.7266  -0.7022  -0.6893  -0.6884  -0.6778  -0.6691  -0.6597
 -0.6520  -0.6476  -0.6380  -0.6347  -0.6336  -0.6329  -0.6232  -0.6065
 -0.5902  -0.5720  -0.5670  -0.5634  -0.5558  -0.5539  -0.5533  -0.5504
 -0.5490  -0.5460  -0.5207  -0.5141  -0.5127  -0.4866  -0.4818  -0.4647
 -0.4566  -0.4453  -0.4385  -0.4203  -0.4090  -0.3884  -0.3560  -0.3357
 -0.3267  -0.2770

          Ground-State Mulliken Net Atomic Charges

     Atom                 Charge (a.u.)
  ----------------------------------------
      1 C                    -0.084037
      2 C                    -0.028844
      3 C                    -0.105821
      4 C                    -0.122122
      5 H                     0.200157
      6 C                     0.022383
      7 C                     0.135047
      8 C                    -0.088922
      9 C                    -0.182175
     10 C                    -0.174089
     11 C                     0.220055
     12 H                     0.192695
     13 C                     0.342385
     14 C                     0.351318
     15 N                    -0.090386
     16 C                     0.359126
     17 C                     0.380084
     18 N                    -0.088243
     19 O                    -0.492990
     20 O                    -0.506912
     21 O                    -0.498999
     22 O                    -0.447517
     23 C                    -0.204683
     24 H                     0.139770
     25 H                     0.109693
     26 H                     0.109433
     27 C                    -0.198984
     28 H                     0.135070
     29 H                     0.112927
     30 H                     0.113524
     31 C                    -0.055805
     32 S                     0.074372
     33 C                    -0.262010
     34 C                    -0.172710
     35 C                    -0.250006
     36 H                     0.178493
     37 H                     0.179559
     38 H                     0.201326
     39 H                     0.139001
     40 H                     0.139524
     41 H                     0.219313
  ----------------------------------------
  Sum of atomic charges =     0.000000

                    Cartesian Multipole Moments
 -----------------------------------------------------------------
    Charge (ESU x 10^10)
                 0.0000
    Dipole Moment (Debye)
         X      -1.2998      Y      -0.1097      Z       1.0228
       Tot       1.6576
    Quadrupole Moments (Debye-Ang)
        XX    -163.5139     XY       3.0451     YY    -176.7752
        XZ       4.8683     YZ      -9.2699     ZZ    -185.2463

 Total job time:  306.03s(wall), 8910.07s(cpu)
        *  Thank you very much for using Q-Chem.  Have a nice day.  *
