 Q-Chem 5.4, Q-Chem, Inc., Pleasanton, CA (2021)
 Q-Chem 5.4.0 for Intel X86 EM64T Linux

User input:
--------------------------------------------------------------
$molecule
0 1
C	-0.195868	-6.741404	0.166281
C	-1.196048	-6.155638	1.005696
C	0.634911	-5.791452	-0.530233
C	-1.409599	-4.803786	1.184587
H	-1.868538	-6.821518	1.570232
C	0.410996	-4.378638	-0.343266
C	-0.608444	-3.838032	0.511683
C	1.211179	-3.413062	-1.015440
C	-0.830559	-2.426473	0.697165
C	0.999915	-2.059348	-0.838968
C	0.000000	-1.478216	0.000000
H	1.673009	-1.394783	-1.404302
C	1.741129	-6.187987	-1.456059
C	2.307170	-3.798164	-1.934944
N	2.494766	-5.170003	-2.090139
C	-2.508468	-4.424987	2.106725
C	-1.936893	-2.036627	1.624494
N	-2.690936	-3.049156	2.258486
O	2.042736	-7.353131	-1.705414
O	3.013823	-2.986854	-2.529122
O	-3.206857	-5.248946	2.693680
O	-2.254108	-0.878829	1.888802
C	3.577543	-5.563799	-2.997334
H	3.612920	-6.664085	-3.025519
H	4.536833	-5.147101	-2.635109
H	3.387762	-5.148785	-4.005702
C	-3.756883	-2.587487	3.152347
H	-4.248464	-3.483329	3.566218
H	-4.478763	-1.964972	2.590383
H	-3.329599	-1.962932	3.959687
C	0.000000	0.000000	0.000000
S	0.396411	0.687007	1.580530
C	1.215245	2.105322	0.904911
C	0.498850	0.864369	-0.985400
C	1.158885	2.007781	-0.493528
H	0.381046	0.660280	-2.059934
H	1.599289	2.770727	-1.152593
H	1.655514	2.868056	1.556025
H	-0.691254	-7.361589	-0.590631
H	0.463164	-7.361192	0.786357
H	-0.693804	-1.478831	-0.827669
$end

$rem
JOBTYPE		SP
EXCHANGE	HF
CORRELATION	pRIMP2
BASIS		cc-pvtz
METHOD		rimp2
AUX_BASIS	rimp2-cc-pvtz
SOLVENT_METHOD	PCM
PURECART	11111
SYMMETRY	false
MEM_TOTAL	110000
SCF_CONVERGENCE = 6
THRESH=10
GUI = 2
$end

$solvent
dielectric 4.90
$end
--------------------------------------------------------------

             Standard Nuclear Orientation (Angstroms)
    I     Atom           X                Y                Z
 ----------------------------------------------------------------
    1      C      -0.1958680000    -6.7414040000     0.1662810000
    2      C      -1.1960480000    -6.1556380000     1.0056960000
    3      C       0.6349110000    -5.7914520000    -0.5302330000
    4      C      -1.4095990000    -4.8037860000     1.1845870000
    5      H      -1.8685380000    -6.8215180000     1.5702320000
    6      C       0.4109960000    -4.3786380000    -0.3432660000
    7      C      -0.6084440000    -3.8380320000     0.5116830000
    8      C       1.2111790000    -3.4130620000    -1.0154400000
    9      C      -0.8305590000    -2.4264730000     0.6971650000
   10      C       0.9999150000    -2.0593480000    -0.8389680000
   11      C       0.0000000000    -1.4782160000     0.0000000000
   12      H       1.6730090000    -1.3947830000    -1.4043020000
   13      C       1.7411290000    -6.1879870000    -1.4560590000
   14      C       2.3071700000    -3.7981640000    -1.9349440000
   15      N       2.4947660000    -5.1700030000    -2.0901390000
   16      C      -2.5084680000    -4.4249870000     2.1067250000
   17      C      -1.9368930000    -2.0366270000     1.6244940000
   18      N      -2.6909360000    -3.0491560000     2.2584860000
   19      O       2.0427360000    -7.3531310000    -1.7054140000
   20      O       3.0138230000    -2.9868540000    -2.5291220000
   21      O      -3.2068570000    -5.2489460000     2.6936800000
   22      O      -2.2541080000    -0.8788290000     1.8888020000
   23      C       3.5775430000    -5.5637990000    -2.9973340000
   24      H       3.6129200000    -6.6640850000    -3.0255190000
   25      H       4.5368330000    -5.1471010000    -2.6351090000
   26      H       3.3877620000    -5.1487850000    -4.0057020000
   27      C      -3.7568830000    -2.5874870000     3.1523470000
   28      H      -4.2484640000    -3.4833290000     3.5662180000
   29      H      -4.4787630000    -1.9649720000     2.5903830000
   30      H      -3.3295990000    -1.9629320000     3.9596870000
   31      C       0.0000000000     0.0000000000     0.0000000000
   32      S       0.3964110000     0.6870070000     1.5805300000
   33      C       1.2152450000     2.1053220000     0.9049110000
   34      C       0.4988500000     0.8643690000    -0.9854000000
   35      C       1.1588850000     2.0077810000    -0.4935280000
   36      H       0.3810460000     0.6602800000    -2.0599340000
   37      H       1.5992890000     2.7707270000    -1.1525930000
   38      H       1.6555140000     2.8680560000     1.5560250000
   39      H      -0.6912540000    -7.3615890000    -0.5906310000
   40      H       0.4631640000    -7.3611920000     0.7863570000
   41      H      -0.6938040000    -1.4788310000    -0.8276690000
 ----------------------------------------------------------------

   11   -1571.7313578192      5.64e-07  Convergence criterion met
 Total energy in the final basis set =    -1571.7313578192
        RIMP2         total energy =     -1576.3916896684 a.u.

                    Orbital Energies (a.u.)
 --------------------------------------------------------------

 Alpha MOs
 -- Occupied --
-91.9847 -20.5531 -20.5445 -20.5411 -20.5403 -15.6272 -15.6211 -11.3941
-11.3852 -11.3830 -11.3790 -11.3088 -11.3085 -11.3053 -11.3045 -11.2966
-11.2929 -11.2892 -11.2833 -11.2681 -11.2680 -11.2638 -11.2628 -11.2596
-11.2594 -11.2524 -11.2505  -8.9846  -6.6653  -6.6647  -6.6642  -1.4204
 -1.4119  -1.3977  -1.3911  -1.2624  -1.2552  -1.2302  -1.1875  -1.1521
 -1.1140  -1.0860  -1.0467  -0.9960  -0.9879  -0.9845  -0.9551  -0.9502
 -0.8965  -0.8880  -0.8766  -0.8596  -0.7933  -0.7769  -0.7716  -0.7638
 -0.7385  -0.7168  -0.7037  -0.6919  -0.6814  -0.6731  -0.6669  -0.6572
 -0.6470  -0.6447  -0.6367  -0.6328  -0.6307  -0.6278  -0.6211  -0.6051
 -0.5849  -0.5751  -0.5690  -0.5618  -0.5579  -0.5514  -0.5506  -0.5477
 -0.5466  -0.5438  -0.5238  -0.5115  -0.5081  -0.4811  -0.4739  -0.4604
 -0.4567  -0.4507  -0.4425  -0.4344  -0.4133  -0.4073  -0.3532  -0.3516
 -0.3307  -0.2833

          Ground-State Mulliken Net Atomic Charges

     Atom                 Charge (a.u.)
  ----------------------------------------
      1 C                    -0.084710
      2 C                    -0.030835
      3 C                    -0.111644
      4 C                    -0.123691
      5 H                     0.198952
      6 C                     0.024109
      7 C                     0.119505
      8 C                    -0.095237
      9 C                    -0.173315
     10 C                    -0.145908
     11 C                     0.194519
     12 H                     0.198046
     13 C                     0.341732
     14 C                     0.347956
     15 N                    -0.089621
     16 C                     0.356854
     17 C                     0.347452
     18 N                    -0.090654
     19 O                    -0.495628
     20 O                    -0.508930
     21 O                    -0.501280
     22 O                    -0.471638
     23 C                    -0.205038
     24 H                     0.139537
     25 H                     0.109191
     26 H                     0.108720
     27 C                    -0.197484
     28 H                     0.133290
     29 H                     0.111698
     30 H                     0.112074
     31 C                     0.006191
     32 S                     0.038435
     33 C                    -0.209486
     34 C                    -0.241293
     35 C                    -0.190332
     36 H                     0.193376
     37 H                     0.191882
     38 H                     0.209824
     39 H                     0.137181
     40 H                     0.137714
     41 H                     0.208487
  ----------------------------------------
  Sum of atomic charges =     0.000000

                    Cartesian Multipole Moments
 -----------------------------------------------------------------
    Charge (ESU x 10^10)
                 0.0000
    Dipole Moment (Debye)
         X      -0.3757      Y       2.1398      Z      -0.9412
       Tot       2.3676
    Quadrupole Moments (Debye-Ang)
        XX    -179.3553     XY      12.8261     YY    -181.2344
        XZ      16.7033     YZ      -4.3473     ZZ    -169.9908

 Total job time:  289.76s(wall), 8962.28s(cpu)
        *  Thank you very much for using Q-Chem.  Have a nice day.  *
