 Q-Chem 5.4, Q-Chem, Inc., Pleasanton, CA (2021)
 Q-Chem 5.4.0 for Intel X86 EM64T Linux

User input:
--------------------------------------------------------------
$molecule
0 1
C	-0.197767	-6.741404	-0.164018
C	-1.198109	-6.155638	-1.003240
C	0.632428	-5.791452	0.533192
C	-1.411364	-4.803786	-1.182482
H	-1.870845	-6.821518	-1.567483
C	0.409419	-4.378638	0.345145
C	-0.609565	-3.838032	-0.510347
C	1.210332	-3.413062	1.016449
C	-0.830799	-2.426473	-0.696879
C	0.999856	-2.059348	0.839039
C	0.000000	-1.478216	0.000000
H	1.673483	-1.394783	1.403737
C	1.736282	-6.187987	1.461835
C	2.306183	-3.798164	1.936119
N	2.491597	-5.170003	2.093916
C	-2.510310	-4.424987	-2.104529
C	-1.936153	-2.036627	-1.625377
N	-2.691451	-3.049156	-2.257873
O	2.034222	-7.353131	1.715561
O	3.014044	-2.986854	2.528858
O	-3.209622	-5.248946	-2.690385
O	-2.251529	-0.878829	-1.891876
C	3.573032	-5.563799	3.002711
H	3.606932	-6.664085	3.032655
H	3.382888	-5.147101	4.010326
H	4.533125	-5.148785	2.640711
C	-3.756832	-2.587487	-3.152408
H	-4.249778	-3.483329	-3.564653
H	-3.328759	-1.964972	-3.960905
H	-4.477709	-1.962932	-2.591422
C	0.000000	0.000000	0.000000
S	0.509686	0.607733	1.580530
C	1.562368	1.862312	0.904911
C	0.641367	0.764613	-0.985400
C	1.489926	1.776040	-0.493528
H	0.489914	0.584081	-2.059934
H	2.056124	2.450920	-1.152593
H	2.128395	2.537007	1.556025
H	0.461623	-7.361589	-0.783314
H	-0.693983	-7.361192	0.592677
H	0.694617	-1.478831	-0.826987
$end

$rem
JOBTYPE		SP
EXCHANGE	HF
CORRELATION	pRIMP2
BASIS		cc-pvtz
METHOD		rimp2
AUX_BASIS	rimp2-cc-pvtz
SOLVENT_METHOD	PCM
PURECART	11111
SYMMETRY	false
MEM_TOTAL	110000
SCF_CONVERGENCE = 6
THRESH=10
GUI = 2
$end

$solvent
dielectric 4.90
$end
--------------------------------------------------------------

             Standard Nuclear Orientation (Angstroms)
    I     Atom           X                Y                Z
 ----------------------------------------------------------------
    1      C      -0.1977670000    -6.7414040000    -0.1640180000
    2      C      -1.1981090000    -6.1556380000    -1.0032400000
    3      C       0.6324280000    -5.7914520000     0.5331920000
    4      C      -1.4113640000    -4.8037860000    -1.1824820000
    5      H      -1.8708450000    -6.8215180000    -1.5674830000
    6      C       0.4094190000    -4.3786380000     0.3451450000
    7      C      -0.6095650000    -3.8380320000    -0.5103470000
    8      C       1.2103320000    -3.4130620000     1.0164490000
    9      C      -0.8307990000    -2.4264730000    -0.6968790000
   10      C       0.9998560000    -2.0593480000     0.8390390000
   11      C       0.0000000000    -1.4782160000     0.0000000000
   12      H       1.6734830000    -1.3947830000     1.4037370000
   13      C       1.7362820000    -6.1879870000     1.4618350000
   14      C       2.3061830000    -3.7981640000     1.9361190000
   15      N       2.4915970000    -5.1700030000     2.0939160000
   16      C      -2.5103100000    -4.4249870000    -2.1045290000
   17      C      -1.9361530000    -2.0366270000    -1.6253770000
   18      N      -2.6914510000    -3.0491560000    -2.2578730000
   19      O       2.0342220000    -7.3531310000     1.7155610000
   20      O       3.0140440000    -2.9868540000     2.5288580000
   21      O      -3.2096220000    -5.2489460000    -2.6903850000
   22      O      -2.2515290000    -0.8788290000    -1.8918760000
   23      C       3.5730320000    -5.5637990000     3.0027110000
   24      H       3.6069320000    -6.6640850000     3.0326550000
   25      H       3.3828880000    -5.1471010000     4.0103260000
   26      H       4.5331250000    -5.1487850000     2.6407110000
   27      C      -3.7568320000    -2.5874870000    -3.1524080000
   28      H      -4.2497780000    -3.4833290000    -3.5646530000
   29      H      -3.3287590000    -1.9649720000    -3.9609050000
   30      H      -4.4777090000    -1.9629320000    -2.5914220000
   31      C       0.0000000000     0.0000000000     0.0000000000
   32      S       0.5096860000     0.6077330000     1.5805300000
   33      C       1.5623680000     1.8623120000     0.9049110000
   34      C       0.6413670000     0.7646130000    -0.9854000000
   35      C       1.4899260000     1.7760400000    -0.4935280000
   36      H       0.4899140000     0.5840810000    -2.0599340000
   37      H       2.0561240000     2.4509200000    -1.1525930000
   38      H       2.1283950000     2.5370070000     1.5560250000
   39      H       0.4616230000    -7.3615890000    -0.7833140000
   40      H      -0.6939830000    -7.3611920000     0.5926770000
   41      H       0.6946170000    -1.4788310000    -0.8269870000
 ----------------------------------------------------------------

   11   -1571.7106050471      5.81e-07  Convergence criterion met
 Total energy in the final basis set =    -1571.7106050471
        RIMP2         total energy =     -1576.3755264644 a.u.

                    Orbital Energies (a.u.)
 --------------------------------------------------------------

 Alpha MOs
 -- Occupied --
-91.9908 -20.5532 -20.5440 -20.5398 -20.5395 -15.6269 -15.6201 -11.3936
-11.3846 -11.3817 -11.3779 -11.3054 -11.3043 -11.3030 -11.3028 -11.2948
-11.2915 -11.2897 -11.2873 -11.2667 -11.2657 -11.2629 -11.2625 -11.2600
-11.2588 -11.2535 -11.2511  -8.9912  -6.6720  -6.6714  -6.6710  -1.4197
 -1.4109  -1.3971  -1.3900  -1.2619  -1.2543  -1.2313  -1.1909  -1.1519
 -1.1125  -1.0847  -1.0456  -0.9976  -0.9915  -0.9869  -0.9546  -0.9486
 -0.8959  -0.8867  -0.8752  -0.8577  -0.7959  -0.7791  -0.7697  -0.7625
 -0.7402  -0.7175  -0.7024  -0.6919  -0.6833  -0.6708  -0.6659  -0.6565
 -0.6461  -0.6449  -0.6351  -0.6324  -0.6296  -0.6266  -0.6213  -0.6039
 -0.5867  -0.5763  -0.5697  -0.5611  -0.5560  -0.5511  -0.5503  -0.5492
 -0.5468  -0.5428  -0.5206  -0.5101  -0.5034  -0.4848  -0.4758  -0.4670
 -0.4569  -0.4507  -0.4416  -0.4332  -0.4133  -0.4065  -0.3573  -0.3480
 -0.3327  -0.2811

          Ground-State Mulliken Net Atomic Charges

     Atom                 Charge (a.u.)
  ----------------------------------------
      1 C                    -0.085091
      2 C                    -0.034025
      3 C                    -0.114005
      4 C                    -0.119328
      5 H                     0.197886
      6 C                     0.017193
      7 C                     0.112261
      8 C                    -0.083753
      9 C                    -0.176282
     10 C                    -0.148169
     11 C                     0.173929
     12 H                     0.196728
     13 C                     0.341111
     14 C                     0.346589
     15 N                    -0.089301
     16 C                     0.356670
     17 C                     0.353342
     18 N                    -0.090906
     19 O                    -0.497195
     20 O                    -0.509526
     21 O                    -0.501818
     22 O                    -0.473248
     23 C                    -0.205305
     24 H                     0.139333
     25 H                     0.108965
     26 H                     0.108499
     27 C                    -0.197884
     28 H                     0.133330
     29 H                     0.110625
     30 H                     0.112232
     31 C                    -0.008937
     32 S                     0.009744
     33 C                    -0.187712
     34 C                    -0.154137
     35 C                    -0.220686
     36 H                     0.188837
     37 H                     0.193156
     38 H                     0.213049
     39 H                     0.136046
     40 H                     0.136334
     41 H                     0.211449
  ----------------------------------------
  Sum of atomic charges =     0.000000

                    Cartesian Multipole Moments
 -----------------------------------------------------------------
    Charge (ESU x 10^10)
                 0.0000
    Dipole Moment (Debye)
         X       1.3514      Y       2.5914      Z      -2.1714
       Tot       3.6410
    Quadrupole Moments (Debye-Ang)
        XX    -177.6826     XY      12.0305     YY    -185.7667
        XZ     -16.1766     YZ       7.5073     ZZ    -169.7035

 Total job time:  313.57s(wall), 9277.15s(cpu)
        *  Thank you very much for using Q-Chem.  Have a nice day.  *
