 Q-Chem 5.4, Q-Chem, Inc., Pleasanton, CA (2021)
 Q-Chem 5.4.0 for Intel X86 EM64T Linux

User input:
--------------------------------------------------------------
$molecule
0 1
C	0.221766	-6.741404	-0.129743
C	1.352515	-6.155638	-0.782726
C	-0.717339	-5.791452	0.411926
C	1.593885	-4.803786	-0.921816
H	2.112819	-6.821518	-1.221908
C	-0.464360	-4.378638	0.266682
C	0.688053	-3.838032	-0.398255
C	-1.369108	-3.413062	0.789694
C	0.939002	-2.426473	-0.542349
C	-1.130409	-2.059348	0.652589
C	-0.000000	-1.478216	-0.000000
H	-1.891446	-1.394783	1.092453
C	-1.967519	-6.187987	1.131595
C	-2.608118	-3.798164	1.504912
N	-2.819813	-5.170003	1.625174
C	2.836188	-4.424987	-1.639129
C	2.189558	-2.036627	-1.263477
N	3.042237	-3.049156	-1.756898
O	-2.307845	-7.353131	1.324787
O	-3.407213	-2.986854	1.967354
O	3.625890	-5.248946	-2.095892
O	2.547850	-0.878829	-1.468685
C	-4.043674	-5.563799	2.330564
H	-4.083407	-6.664085	2.352178
H	-4.925490	-5.147101	1.807263
H	-4.031877	-5.148785	3.356568
C	4.247206	-2.587487	-2.452080
H	4.803187	-3.483329	-2.774302
H	4.860536	-1.964972	-1.773301
H	3.966607	-1.962932	-3.321351
C	0.000000	0.000000	0.000000
S	0.607475	0.509994	1.580530
C	1.862020	1.562717	0.904911
C	0.764397	0.641624	-0.985400
C	1.775697	1.490335	-0.493528
H	0.583895	0.490135	-2.059934
H	2.450484	2.056643	-1.152593
H	2.536607	2.128872	1.556025
H	0.578191	-7.361589	0.701693
H	-0.319578	-7.361192	-0.854838
H	0.539540	-1.478831	0.935572
$end

$rem
JOBTYPE		SP
EXCHANGE	HF
CORRELATION	pRIMP2
BASIS		cc-pvtz
METHOD		rimp2
AUX_BASIS	rimp2-cc-pvtz
SOLVENT_METHOD	PCM
PURECART	11111
SYMMETRY	false
MEM_TOTAL	110000
SCF_CONVERGENCE = 6
THRESH=10
GUI = 2
$end

$solvent
dielectric 4.90
$end
--------------------------------------------------------------

             Standard Nuclear Orientation (Angstroms)
    I     Atom           X                Y                Z
 ----------------------------------------------------------------
    1      C       0.2217660000    -6.7414040000    -0.1297430000
    2      C       1.3525150000    -6.1556380000    -0.7827260000
    3      C      -0.7173390000    -5.7914520000     0.4119260000
    4      C       1.5938850000    -4.8037860000    -0.9218160000
    5      H       2.1128190000    -6.8215180000    -1.2219080000
    6      C      -0.4643600000    -4.3786380000     0.2666820000
    7      C       0.6880530000    -3.8380320000    -0.3982550000
    8      C      -1.3691080000    -3.4130620000     0.7896940000
    9      C       0.9390020000    -2.4264730000    -0.5423490000
   10      C      -1.1304090000    -2.0593480000     0.6525890000
   11      C       0.0000000000    -1.4782160000     0.0000000000
   12      H      -1.8914460000    -1.3947830000     1.0924530000
   13      C      -1.9675190000    -6.1879870000     1.1315950000
   14      C      -2.6081180000    -3.7981640000     1.5049120000
   15      N      -2.8198130000    -5.1700030000     1.6251740000
   16      C       2.8361880000    -4.4249870000    -1.6391290000
   17      C       2.1895580000    -2.0366270000    -1.2634770000
   18      N       3.0422370000    -3.0491560000    -1.7568980000
   19      O      -2.3078450000    -7.3531310000     1.3247870000
   20      O      -3.4072130000    -2.9868540000     1.9673540000
   21      O       3.6258900000    -5.2489460000    -2.0958920000
   22      O       2.5478500000    -0.8788290000    -1.4686850000
   23      C      -4.0436740000    -5.5637990000     2.3305640000
   24      H      -4.0834070000    -6.6640850000     2.3521780000
   25      H      -4.9254900000    -5.1471010000     1.8072630000
   26      H      -4.0318770000    -5.1487850000     3.3565680000
   27      C       4.2472060000    -2.5874870000    -2.4520800000
   28      H       4.8031870000    -3.4833290000    -2.7743020000
   29      H       4.8605360000    -1.9649720000    -1.7733010000
   30      H       3.9666070000    -1.9629320000    -3.3213510000
   31      C       0.0000000000     0.0000000000     0.0000000000
   32      S       0.6074750000     0.5099940000     1.5805300000
   33      C       1.8620200000     1.5627170000     0.9049110000
   34      C       0.7643970000     0.6416240000    -0.9854000000
   35      C       1.7756970000     1.4903350000    -0.4935280000
   36      H       0.5838950000     0.4901350000    -2.0599340000
   37      H       2.4504840000     2.0566430000    -1.1525930000
   38      H       2.5366070000     2.1288720000     1.5560250000
   39      H       0.5781910000    -7.3615890000     0.7016930000
   40      H      -0.3195780000    -7.3611920000    -0.8548380000
   41      H       0.5395400000    -1.4788310000     0.9355720000
 ----------------------------------------------------------------

   11   -1571.6802055314      6.23e-07  Convergence criterion met
 Total energy in the final basis set =    -1571.6802055314
        RIMP2         total energy =     -1576.3484276232 a.u.

                    Orbital Energies (a.u.)
 --------------------------------------------------------------

 Alpha MOs
 -- Occupied --
-91.9813 -20.5518 -20.5444 -20.5380 -20.5371 -15.6278 -15.6184 -11.3947
-11.3850 -11.3801 -11.3754 -11.3056 -11.3030 -11.3019 -11.3005 -11.2951
-11.2951 -11.2772 -11.2717 -11.2668 -11.2641 -11.2639 -11.2636 -11.2587
-11.2577 -11.2505 -11.2482  -8.9828  -6.6637  -6.6629  -6.6624  -1.4225
 -1.4091  -1.3988  -1.3882  -1.2632  -1.2526  -1.2289  -1.1892  -1.1505
 -1.1107  -1.0829  -1.0438  -0.9952  -0.9896  -0.9867  -0.9538  -0.9487
 -0.8943  -0.8817  -0.8753  -0.8576  -0.7892  -0.7748  -0.7739  -0.7676
 -0.7383  -0.7187  -0.7022  -0.6882  -0.6781  -0.6700  -0.6653  -0.6558
 -0.6458  -0.6432  -0.6363  -0.6302  -0.6289  -0.6267  -0.6214  -0.6022
 -0.5831  -0.5762  -0.5673  -0.5613  -0.5548  -0.5511  -0.5498  -0.5471
 -0.5456  -0.5426  -0.5201  -0.5103  -0.5020  -0.4819  -0.4698  -0.4646
 -0.4524  -0.4471  -0.4401  -0.4324  -0.4143  -0.4050  -0.3501  -0.3435
 -0.3313  -0.2787

          Ground-State Mulliken Net Atomic Charges

     Atom                 Charge (a.u.)
  ----------------------------------------
      1 C                    -0.085774
      2 C                    -0.031269
      3 C                    -0.121068
      4 C                    -0.120786
      5 H                     0.197774
      6 C                     0.011943
      7 C                     0.121627
      8 C                    -0.084227
      9 C                    -0.176240
     10 C                    -0.141023
     11 C                     0.178917
     12 H                     0.193598
     13 C                     0.341390
     14 C                     0.346829
     15 N                    -0.088709
     16 C                     0.357130
     17 C                     0.385058
     18 N                    -0.086546
     19 O                    -0.499451
     20 O                    -0.510713
     21 O                    -0.502152
     22 O                    -0.476229
     23 C                    -0.205637
     24 H                     0.138877
     25 H                     0.108478
     26 H                     0.108518
     27 C                    -0.197961
     28 H                     0.134647
     29 H                     0.111140
     30 H                     0.110416
     31 C                    -0.140375
     32 S                    -0.013063
     33 C                    -0.173195
     34 C                    -0.054331
     35 C                    -0.188172
     36 H                     0.189909
     37 H                     0.183763
     38 H                     0.213038
     39 H                     0.135779
     40 H                     0.135958
     41 H                     0.192136
  ----------------------------------------
  Sum of atomic charges =     0.000000

                    Cartesian Multipole Moments
 -----------------------------------------------------------------
    Charge (ESU x 10^10)
                 0.0000
    Dipole Moment (Debye)
         X       4.2588      Y       2.9616      Z      -1.7150
       Tot       5.4635
    Quadrupole Moments (Debye-Ang)
        XX    -180.1362     XY      -3.3108     YY    -189.5442
        XZ      14.8446     YZ       4.3766     ZZ    -164.5017

 Total job time:  349.35s(wall), 11265.73s(cpu)
        *  Thank you very much for using Q-Chem.  Have a nice day.  *
