 Q-Chem 5.4, Q-Chem, Inc., Pleasanton, CA (2021)
 Q-Chem 5.4.0 for Intel X86 EM64T Linux

User input:
--------------------------------------------------------------
$molecule
0 1
C	0.253280	-6.741404	0.043160
C	1.539213	-6.155638	0.269777
C	-0.814295	-5.791452	-0.145543
C	1.813519	-4.803786	0.318377
H	2.403941	-6.821518	0.422058
C	-0.527140	-4.378638	-0.094194
C	0.783072	-3.838032	0.137191
C	-1.556403	-3.413062	-0.275104
C	1.067932	-2.426473	0.188116
C	-1.285420	-2.059348	-0.226701
C	0.000000	-1.478216	0.000000
H	-2.151147	-1.394783	-0.378931
C	-2.234582	-6.187987	-0.397845
C	-2.965273	-3.798164	-0.523637
N	-3.204744	-5.170003	-0.567586
C	3.226257	-4.424987	0.567421
C	2.489446	-2.036627	0.439541
N	3.459801	-3.049156	0.609650
O	-2.619468	-7.353131	-0.468608
O	-3.874668	-2.986854	-0.683034
O	4.124806	-5.248946	0.725131
O	2.895819	-0.878829	0.512648
C	-4.595691	-5.563799	-0.813908
H	-4.640022	-6.664085	-0.822891
H	-4.934830	-5.147101	-1.781600
H	-5.246157	-5.148785	-0.020360
C	4.829716	-2.587487	0.851649
H	5.462742	-3.483329	0.962191
H	4.863242	-1.964972	1.765865
H	5.173521	-1.962932	0.005383
C	0.000000	0.000000	0.000000
S	0.205093	0.766196	1.580530
C	0.628939	2.348114	0.904911
C	0.258137	0.964028	-0.985400
C	0.599745	2.239309	-0.493528
H	0.197169	0.736404	-2.059934
H	0.827678	3.090243	-1.152593
H	0.856796	3.198808	1.556025
H	-0.008120	-7.361589	0.909181
H	0.304668	-7.361192	-0.860264
H	-0.188062	-1.478831	1.063500
$end

$rem
JOBTYPE		SP
EXCHANGE	HF
CORRELATION	pRIMP2
BASIS		cc-pvtz
METHOD		rimp2
AUX_BASIS	rimp2-cc-pvtz
SOLVENT_METHOD	PCM
PURECART	11111
SYMMETRY	false
MEM_TOTAL	110000
SCF_CONVERGENCE = 6
THRESH=10
GUI = 2
$end

$solvent
dielectric 4.90
$end
--------------------------------------------------------------

             Standard Nuclear Orientation (Angstroms)
    I     Atom           X                Y                Z
 ----------------------------------------------------------------
    1      C       0.2532800000    -6.7414040000     0.0431600000
    2      C       1.5392130000    -6.1556380000     0.2697770000
    3      C      -0.8142950000    -5.7914520000    -0.1455430000
    4      C       1.8135190000    -4.8037860000     0.3183770000
    5      H       2.4039410000    -6.8215180000     0.4220580000
    6      C      -0.5271400000    -4.3786380000    -0.0941940000
    7      C       0.7830720000    -3.8380320000     0.1371910000
    8      C      -1.5564030000    -3.4130620000    -0.2751040000
    9      C       1.0679320000    -2.4264730000     0.1881160000
   10      C      -1.2854200000    -2.0593480000    -0.2267010000
   11      C       0.0000000000    -1.4782160000     0.0000000000
   12      H      -2.1511470000    -1.3947830000    -0.3789310000
   13      C      -2.2345820000    -6.1879870000    -0.3978450000
   14      C      -2.9652730000    -3.7981640000    -0.5236370000
   15      N      -3.2047440000    -5.1700030000    -0.5675860000
   16      C       3.2262570000    -4.4249870000     0.5674210000
   17      C       2.4894460000    -2.0366270000     0.4395410000
   18      N       3.4598010000    -3.0491560000     0.6096500000
   19      O      -2.6194680000    -7.3531310000    -0.4686080000
   20      O      -3.8746680000    -2.9868540000    -0.6830340000
   21      O       4.1248060000    -5.2489460000     0.7251310000
   22      O       2.8958190000    -0.8788290000     0.5126480000
   23      C      -4.5956910000    -5.5637990000    -0.8139080000
   24      H      -4.6400220000    -6.6640850000    -0.8228910000
   25      H      -4.9348300000    -5.1471010000    -1.7816000000
   26      H      -5.2461570000    -5.1487850000    -0.0203600000
   27      C       4.8297160000    -2.5874870000     0.8516490000
   28      H       5.4627420000    -3.4833290000     0.9621910000
   29      H       4.8632420000    -1.9649720000     1.7658650000
   30      H       5.1735210000    -1.9629320000     0.0053830000
   31      C       0.0000000000     0.0000000000     0.0000000000
   32      S       0.2050930000     0.7661960000     1.5805300000
   33      C       0.6289390000     2.3481140000     0.9049110000
   34      C       0.2581370000     0.9640280000    -0.9854000000
   35      C       0.5997450000     2.2393090000    -0.4935280000
   36      H       0.1971690000     0.7364040000    -2.0599340000
   37      H       0.8276780000     3.0902430000    -1.1525930000
   38      H       0.8567960000     3.1988080000     1.5560250000
   39      H      -0.0081200000    -7.3615890000     0.9091810000
   40      H       0.3046680000    -7.3611920000    -0.8602640000
   41      H      -0.1880620000    -1.4788310000     1.0635000000
 ----------------------------------------------------------------

   11   -1571.7409279250      5.59e-07  Convergence criterion met
 Total energy in the final basis set =    -1571.7409279250
        RIMP2         total energy =     -1576.3967488881 a.u.

                    Orbital Energies (a.u.)
 --------------------------------------------------------------

 Alpha MOs
 -- Occupied --
-91.9908 -20.5506 -20.5441 -20.5416 -20.5402 -15.6262 -15.6210 -11.3921
-11.3847 -11.3835 -11.3788 -11.3082 -11.3076 -11.3046 -11.3044 -11.2961
-11.2907 -11.2881 -11.2843 -11.2690 -11.2678 -11.2636 -11.2624 -11.2593
-11.2545 -11.2526 -11.2504  -8.9905  -6.6713  -6.6708  -6.6702  -1.4185
 -1.4120  -1.3965  -1.3912  -1.2614  -1.2552  -1.2293  -1.1863  -1.1522
 -1.1136  -1.0863  -1.0461  -0.9954  -0.9875  -0.9842  -0.9546  -0.9511
 -0.8955  -0.8865  -0.8764  -0.8598  -0.7924  -0.7757  -0.7739  -0.7681
 -0.7371  -0.7168  -0.7040  -0.6910  -0.6768  -0.6698  -0.6673  -0.6568
 -0.6466  -0.6401  -0.6377  -0.6318  -0.6307  -0.6265  -0.6227  -0.6047
 -0.5842  -0.5746  -0.5670  -0.5610  -0.5567  -0.5509  -0.5501  -0.5477
 -0.5459  -0.5433  -0.5193  -0.5153  -0.5083  -0.4805  -0.4736  -0.4681
 -0.4560  -0.4500  -0.4424  -0.4343  -0.4129  -0.4072  -0.3543  -0.3509
 -0.3278  -0.2906

          Ground-State Mulliken Net Atomic Charges

     Atom                 Charge (a.u.)
  ----------------------------------------
      1 C                    -0.084277
      2 C                    -0.030881
      3 C                    -0.111318
      4 C                    -0.120895
      5 H                     0.198420
      6 C                     0.007908
      7 C                     0.119624
      8 C                    -0.081642
      9 C                    -0.168382
     10 C                    -0.145924
     11 C                     0.250183
     12 H                     0.189923
     13 C                     0.343428
     14 C                     0.351461
     15 N                    -0.090223
     16 C                     0.356695
     17 C                     0.359152
     18 N                    -0.090679
     19 O                    -0.494291
     20 O                    -0.507381
     21 O                    -0.501917
     22 O                    -0.470751
     23 C                    -0.204761
     24 H                     0.139439
     25 H                     0.108999
     26 H                     0.109120
     27 C                    -0.197493
     28 H                     0.132986
     29 H                     0.111411
     30 H                     0.111476
     31 C                    -0.068007
     32 S                     0.014455
     33 C                    -0.211179
     34 C                    -0.182058
     35 C                    -0.196511
     36 H                     0.188576
     37 H                     0.191162
     38 H                     0.212491
     39 H                     0.137501
     40 H                     0.137604
     41 H                     0.186554
  ----------------------------------------
  Sum of atomic charges =     0.000000

                    Cartesian Multipole Moments
 -----------------------------------------------------------------
    Charge (ESU x 10^10)
                 0.0000
    Dipole Moment (Debye)
         X       1.3994      Y       2.4550      Z      -0.0592
       Tot       2.8264
    Quadrupole Moments (Debye-Ang)
        XX    -194.4196     XY      -5.3961     YY    -178.4770
        XZ      -5.2997     YZ      -1.9656     ZZ    -157.1060

 Total job time:  301.78s(wall), 8929.44s(cpu)
        *  Thank you very much for using Q-Chem.  Have a nice day.  *
