 Q-Chem 5.4, Q-Chem, Inc., Pleasanton, CA (2021)
 Q-Chem 5.4.0 for Intel X86 EM64T Linux

User input:
--------------------------------------------------------------
$molecule
0 1
C	0.001478	-6.741404	0.256927
C	0.001603	-6.155638	1.562675
C	0.001931	-5.791452	-0.827197
C	0.001374	-4.803786	1.841253
H	0.001794	-6.821518	2.440709
C	0.001227	-4.378638	-0.535488
C	0.000872	-3.838032	0.794999
C	0.000658	-3.413062	-1.580529
C	0.000186	-2.426473	1.084374
C	0.000046	-2.059348	-1.305258
C	-0.000000	-1.478216	-0.000000
H	-0.000369	-1.394783	-2.184267
C	0.003770	-6.187987	-2.269719
C	0.000767	-3.798164	-3.011152
N	0.002465	-5.170003	-3.254617
C	0.001433	-4.424987	3.275775
C	-0.000576	-2.036627	2.527951
N	0.000400	-3.049156	3.513104
O	0.006623	-7.353131	-2.661046
O	-0.000172	-2.986854	-3.934410
O	0.002151	-5.248946	4.188059
O	-0.002006	-0.878829	2.940845
C	0.003509	-5.563799	-4.667206
H	0.004658	-6.664085	-4.712423
H	0.897610	-5.147101	-5.169231
H	-0.890935	-5.148785	-5.169992
C	-0.000039	-2.587487	4.904229
H	0.001022	-3.483329	5.546833
H	-0.894545	-1.964972	5.095998
H	0.893071	-1.962932	5.095858
C	0.000000	0.000000	0.000000
S	0.335026	0.718942	1.580530
C	1.027130	2.203226	0.904911
C	0.421617	0.904557	-0.985400
C	0.979485	2.101144	-0.493528
H	0.322049	0.690978	-2.059934
H	1.351718	2.899571	-1.152593
H	1.399246	3.001430	1.556025
H	-0.896779	-7.361589	0.149881
H	0.900100	-7.361192	0.150656
H	-1.080000	-1.478831	-0.000531
$end

$rem
JOBTYPE		SP
EXCHANGE	HF
CORRELATION	pRIMP2
BASIS		cc-pvtz
METHOD		rimp2
AUX_BASIS	rimp2-cc-pvtz
SOLVENT_METHOD	PCM
PURECART	11111
SYMMETRY	false
MEM_TOTAL	110000
SCF_CONVERGENCE = 6
THRESH=10
GUI = 2
$end

$solvent
dielectric 4.90
$end
--------------------------------------------------------------

             Standard Nuclear Orientation (Angstroms)
    I     Atom           X                Y                Z
 ----------------------------------------------------------------
    1      C       0.0014780000    -6.7414040000     0.2569270000
    2      C       0.0016030000    -6.1556380000     1.5626750000
    3      C       0.0019310000    -5.7914520000    -0.8271970000
    4      C       0.0013740000    -4.8037860000     1.8412530000
    5      H       0.0017940000    -6.8215180000     2.4407090000
    6      C       0.0012270000    -4.3786380000    -0.5354880000
    7      C       0.0008720000    -3.8380320000     0.7949990000
    8      C       0.0006580000    -3.4130620000    -1.5805290000
    9      C       0.0001860000    -2.4264730000     1.0843740000
   10      C       0.0000460000    -2.0593480000    -1.3052580000
   11      C       0.0000000000    -1.4782160000     0.0000000000
   12      H      -0.0003690000    -1.3947830000    -2.1842670000
   13      C       0.0037700000    -6.1879870000    -2.2697190000
   14      C       0.0007670000    -3.7981640000    -3.0111520000
   15      N       0.0024650000    -5.1700030000    -3.2546170000
   16      C       0.0014330000    -4.4249870000     3.2757750000
   17      C      -0.0005760000    -2.0366270000     2.5279510000
   18      N       0.0004000000    -3.0491560000     3.5131040000
   19      O       0.0066230000    -7.3531310000    -2.6610460000
   20      O      -0.0001720000    -2.9868540000    -3.9344100000
   21      O       0.0021510000    -5.2489460000     4.1880590000
   22      O      -0.0020060000    -0.8788290000     2.9408450000
   23      C       0.0035090000    -5.5637990000    -4.6672060000
   24      H       0.0046580000    -6.6640850000    -4.7124230000
   25      H       0.8976100000    -5.1471010000    -5.1692310000
   26      H      -0.8909350000    -5.1487850000    -5.1699920000
   27      C      -0.0000390000    -2.5874870000     4.9042290000
   28      H       0.0010220000    -3.4833290000     5.5468330000
   29      H      -0.8945450000    -1.9649720000     5.0959980000
   30      H       0.8930710000    -1.9629320000     5.0958580000
   31      C       0.0000000000     0.0000000000     0.0000000000
   32      S       0.3350260000     0.7189420000     1.5805300000
   33      C       1.0271300000     2.2032260000     0.9049110000
   34      C       0.4216170000     0.9045570000    -0.9854000000
   35      C       0.9794850000     2.1011440000    -0.4935280000
   36      H       0.3220490000     0.6909780000    -2.0599340000
   37      H       1.3517180000     2.8995710000    -1.1525930000
   38      H       1.3992460000     3.0014300000     1.5560250000
   39      H      -0.8967790000    -7.3615890000     0.1498810000
   40      H       0.9001000000    -7.3611920000     0.1506560000
   41      H      -1.0800000000    -1.4788310000    -0.0005310000
 ----------------------------------------------------------------

   11   -1571.6735436907      6.00e-07  Convergence criterion met
 Total energy in the final basis set =    -1571.6735436907
        RIMP2         total energy =     -1576.3474459462 a.u.

                    Orbital Energies (a.u.)
 --------------------------------------------------------------

 Alpha MOs
 -- Occupied --
-91.9675 -20.5590 -20.5471 -20.5418 -20.5412 -15.6321 -15.6219 -11.4027
-11.3879 -11.3838 -11.3797 -11.3122 -11.3098 -11.3094 -11.3058 -11.2992
-11.2895 -11.2876 -11.2702 -11.2695 -11.2660 -11.2656 -11.2598 -11.2557
-11.2539 -11.2488 -11.2363  -8.9677  -6.6482  -6.6466  -6.6456  -1.4361
 -1.4127  -1.4043  -1.3918  -1.2693  -1.2562  -1.2314  -1.1851  -1.1455
 -1.1158  -1.0858  -1.0493  -0.9949  -0.9895  -0.9757  -0.9567  -0.9474
 -0.8993  -0.8912  -0.8800  -0.8631  -0.7915  -0.7829  -0.7764  -0.7586
 -0.7307  -0.7284  -0.7015  -0.6897  -0.6890  -0.6767  -0.6690  -0.6593
 -0.6521  -0.6453  -0.6378  -0.6339  -0.6329  -0.6321  -0.6232  -0.6065
 -0.5905  -0.5715  -0.5685  -0.5634  -0.5565  -0.5552  -0.5536  -0.5499
 -0.5483  -0.5457  -0.5228  -0.5133  -0.5114  -0.4898  -0.4743  -0.4639
 -0.4558  -0.4444  -0.4380  -0.4205  -0.4082  -0.3784  -0.3554  -0.3357
 -0.3264  -0.2750

          Ground-State Mulliken Net Atomic Charges

     Atom                 Charge (a.u.)
  ----------------------------------------
      1 C                    -0.084349
      2 C                    -0.028761
      3 C                    -0.108842
      4 C                    -0.121594
      5 H                     0.199715
      6 C                     0.026571
      7 C                     0.121284
      8 C                    -0.097406
      9 C                    -0.196212
     10 C                    -0.130037
     11 C                     0.180876
     12 H                     0.194089
     13 C                     0.341665
     14 C                     0.347548
     15 N                    -0.090047
     16 C                     0.358130
     17 C                     0.388399
     18 N                    -0.087226
     19 O                    -0.495079
     20 O                    -0.508378
     21 O                    -0.498578
     22 O                    -0.438355
     23 C                    -0.204933
     24 H                     0.139642
     25 H                     0.109418
     26 H                     0.109166
     27 C                    -0.199070
     28 H                     0.135542
     29 H                     0.112792
     30 H                     0.113518
     31 C                    -0.012961
     32 S                     0.079227
     33 C                    -0.263636
     34 C                    -0.213707
     35 C                    -0.229311
     36 H                     0.179617
     37 H                     0.180186
     38 H                     0.199740
     39 H                     0.138173
     40 H                     0.138505
     41 H                     0.214677
  ----------------------------------------
  Sum of atomic charges =     0.000000

                    Cartesian Multipole Moments
 -----------------------------------------------------------------
    Charge (ESU x 10^10)
                 0.0000
    Dipole Moment (Debye)
         X      -0.4660      Y       0.3015      Z       1.4221
       Tot       1.5265
    Quadrupole Moments (Debye-Ang)
        XX    -161.1671     XY       4.3935     YY    -180.3439
        XZ       0.3100     YZ     -10.3985     ZZ    -185.8810

 Total job time:  299.25s(wall), 9177.78s(cpu)
        *  Thank you very much for using Q-Chem.  Have a nice day.  *
