 Q-Chem 5.4, Q-Chem, Inc., Pleasanton, CA (2021)
 Q-Chem 5.4.0 for Intel X86 EM64T Linux

User input:
--------------------------------------------------------------
$molecule
0 1
C	-0.221766	-6.741404	0.129743
C	-1.352515	-6.155638	0.782726
C	0.717339	-5.791452	-0.411926
C	-1.593885	-4.803786	0.921816
H	-2.112819	-6.821518	1.221908
C	0.464360	-4.378638	-0.266682
C	-0.688053	-3.838032	0.398255
C	1.369108	-3.413062	-0.789694
C	-0.939002	-2.426473	0.542349
C	1.130409	-2.059348	-0.652589
C	-0.000000	-1.478216	-0.000000
H	1.891446	-1.394783	-1.092453
C	1.967519	-6.187987	-1.131595
C	2.608118	-3.798164	-1.504912
N	2.819813	-5.170003	-1.625174
C	-2.836188	-4.424987	1.639129
C	-2.189558	-2.036627	1.263477
N	-3.042237	-3.049156	1.756898
O	2.307845	-7.353131	-1.324787
O	3.407213	-2.986854	-1.967354
O	-3.625890	-5.248946	2.095892
O	-2.547850	-0.878829	1.468685
C	4.043674	-5.563799	-2.330564
H	4.083407	-6.664085	-2.352178
H	4.925490	-5.147101	-1.807263
H	4.031877	-5.148785	-3.356568
C	-4.247206	-2.587487	2.452080
H	-4.803187	-3.483329	2.774302
H	-4.860536	-1.964972	1.773301
H	-3.966607	-1.962932	3.321351
C	0.000000	0.000000	0.000000
S	0.607475	0.509994	1.580530
C	1.862020	1.562717	0.904911
C	0.764397	0.641624	-0.985400
C	1.775697	1.490335	-0.493528
H	0.583895	0.490135	-2.059934
H	2.450484	2.056643	-1.152593
H	2.536607	2.128872	1.556025
H	-0.578191	-7.361589	-0.701693
H	0.319578	-7.361192	0.854838
H	-0.539540	-1.478831	-0.935572
$end

$rem
JOBTYPE		SP
EXCHANGE	HF
CORRELATION	pRIMP2
BASIS		cc-pvtz
METHOD		rimp2
AUX_BASIS	rimp2-cc-pvtz
SOLVENT_METHOD	PCM
PURECART	11111
SYMMETRY	false
MEM_TOTAL	110000
SCF_CONVERGENCE = 6
THRESH=10
GUI = 2
$end

$solvent
dielectric 4.90
$end
--------------------------------------------------------------

             Standard Nuclear Orientation (Angstroms)
    I     Atom           X                Y                Z
 ----------------------------------------------------------------
    1      C      -0.2217660000    -6.7414040000     0.1297430000
    2      C      -1.3525150000    -6.1556380000     0.7827260000
    3      C       0.7173390000    -5.7914520000    -0.4119260000
    4      C      -1.5938850000    -4.8037860000     0.9218160000
    5      H      -2.1128190000    -6.8215180000     1.2219080000
    6      C       0.4643600000    -4.3786380000    -0.2666820000
    7      C      -0.6880530000    -3.8380320000     0.3982550000
    8      C       1.3691080000    -3.4130620000    -0.7896940000
    9      C      -0.9390020000    -2.4264730000     0.5423490000
   10      C       1.1304090000    -2.0593480000    -0.6525890000
   11      C       0.0000000000    -1.4782160000     0.0000000000
   12      H       1.8914460000    -1.3947830000    -1.0924530000
   13      C       1.9675190000    -6.1879870000    -1.1315950000
   14      C       2.6081180000    -3.7981640000    -1.5049120000
   15      N       2.8198130000    -5.1700030000    -1.6251740000
   16      C      -2.8361880000    -4.4249870000     1.6391290000
   17      C      -2.1895580000    -2.0366270000     1.2634770000
   18      N      -3.0422370000    -3.0491560000     1.7568980000
   19      O       2.3078450000    -7.3531310000    -1.3247870000
   20      O       3.4072130000    -2.9868540000    -1.9673540000
   21      O      -3.6258900000    -5.2489460000     2.0958920000
   22      O      -2.5478500000    -0.8788290000     1.4686850000
   23      C       4.0436740000    -5.5637990000    -2.3305640000
   24      H       4.0834070000    -6.6640850000    -2.3521780000
   25      H       4.9254900000    -5.1471010000    -1.8072630000
   26      H       4.0318770000    -5.1487850000    -3.3565680000
   27      C      -4.2472060000    -2.5874870000     2.4520800000
   28      H      -4.8031870000    -3.4833290000     2.7743020000
   29      H      -4.8605360000    -1.9649720000     1.7733010000
   30      H      -3.9666070000    -1.9629320000     3.3213510000
   31      C       0.0000000000     0.0000000000     0.0000000000
   32      S       0.6074750000     0.5099940000     1.5805300000
   33      C       1.8620200000     1.5627170000     0.9049110000
   34      C       0.7643970000     0.6416240000    -0.9854000000
   35      C       1.7756970000     1.4903350000    -0.4935280000
   36      H       0.5838950000     0.4901350000    -2.0599340000
   37      H       2.4504840000     2.0566430000    -1.1525930000
   38      H       2.5366070000     2.1288720000     1.5560250000
   39      H      -0.5781910000    -7.3615890000    -0.7016930000
   40      H       0.3195780000    -7.3611920000     0.8548380000
   41      H      -0.5395400000    -1.4788310000    -0.9355720000
 ----------------------------------------------------------------

   11   -1571.7047018914      5.78e-07  Convergence criterion met
 Total energy in the final basis set =    -1571.7047018914
        RIMP2         total energy =     -1576.3712143225 a.u.

                    Orbital Energies (a.u.)
 --------------------------------------------------------------

 Alpha MOs
 -- Occupied --
-91.9878 -20.5525 -20.5437 -20.5397 -20.5395 -15.6263 -15.6202 -11.3929
-11.3843 -11.3816 -11.3779 -11.3058 -11.3058 -11.3030 -11.3024 -11.2981
-11.2949 -11.2858 -11.2804 -11.2693 -11.2666 -11.2656 -11.2622 -11.2616
-11.2589 -11.2550 -11.2510  -8.9881  -6.6688  -6.6680  -6.6677  -1.4192
 -1.4109  -1.3967  -1.3901  -1.2614  -1.2542  -1.2307  -1.1913  -1.1527
 -1.1123  -1.0844  -1.0451  -0.9988  -0.9911  -0.9866  -0.9545  -0.9490
 -0.8955  -0.8862  -0.8749  -0.8575  -0.7933  -0.7765  -0.7715  -0.7665
 -0.7404  -0.7164  -0.7037  -0.6912  -0.6822  -0.6716  -0.6660  -0.6563
 -0.6459  -0.6430  -0.6372  -0.6325  -0.6295  -0.6262  -0.6205  -0.6047
 -0.5844  -0.5769  -0.5730  -0.5609  -0.5568  -0.5508  -0.5499  -0.5468
 -0.5454  -0.5429  -0.5262  -0.5088  -0.5027  -0.4797  -0.4740  -0.4600
 -0.4554  -0.4503  -0.4415  -0.4330  -0.4127  -0.4064  -0.3566  -0.3507
 -0.3334  -0.2832

          Ground-State Mulliken Net Atomic Charges

     Atom                 Charge (a.u.)
  ----------------------------------------
      1 C                    -0.085186
      2 C                    -0.033337
      3 C                    -0.113158
      4 C                    -0.120073
      5 H                     0.198116
      6 C                     0.020672
      7 C                     0.115838
      8 C                    -0.091491
      9 C                    -0.201298
     10 C                    -0.155852
     11 C                     0.221061
     12 H                     0.195279
     13 C                     0.340909
     14 C                     0.345490
     15 N                    -0.088989
     16 C                     0.355558
     17 C                     0.353023
     18 N                    -0.090299
     19 O                    -0.497405
     20 O                    -0.511130
     21 O                    -0.501872
     22 O                    -0.472045
     23 C                    -0.205459
     24 H                     0.139439
     25 H                     0.108831
     26 H                     0.108397
     27 C                    -0.198279
     28 H                     0.133079
     29 H                     0.111474
     30 H                     0.111947
     31 C                    -0.064949
     32 S                     0.029462
     33 C                    -0.162980
     34 C                    -0.160803
     35 C                    -0.214917
     36 H                     0.199712
     37 H                     0.195085
     38 H                     0.214331
     39 H                     0.136023
     40 H                     0.136461
     41 H                     0.199335
  ----------------------------------------
  Sum of atomic charges =     0.000000

                    Cartesian Multipole Moments
 -----------------------------------------------------------------
    Charge (ESU x 10^10)
                 0.0000
    Dipole Moment (Debye)
         X       0.7972      Y       2.6912      Z      -1.1837
       Tot       3.0462
    Quadrupole Moments (Debye-Ang)
        XX    -180.8156     XY      15.2127     YY    -187.2577
        XZ      15.5267     YZ      -3.0392     ZZ    -164.3774

 Total job time:  318.68s(wall), 9047.31s(cpu)
        *  Thank you very much for using Q-Chem.  Have a nice day.  *
