 Q-Chem 5.4, Q-Chem, Inc., Pleasanton, CA (2021)
 Q-Chem 5.4.0 for Intel X86 EM64T Linux

User input:
--------------------------------------------------------------
$molecule
0 1
C	1.169177	-6.639243	-0.256927
C	1.067337	-6.062399	-1.562675
C	1.003773	-5.703803	0.827197
C	0.832816	-4.731044	-1.841253
H	1.182777	-6.718195	-2.440709
C	0.759135	-4.312330	0.535488
C	0.665608	-3.779876	-0.794999
C	0.592024	-3.361324	1.580529
C	0.421169	-2.389641	-1.084374
C	0.357557	-2.028070	1.305258
C	0.256690	-1.455759	0.000000
H	0.242565	-1.373530	2.184267
C	1.070820	-6.094632	2.269719
C	0.658788	-3.740595	3.011152
N	0.895334	-5.091887	3.254617
C	0.766979	-4.358010	-3.275775
C	0.354224	-2.005586	-2.527951
N	0.529086	-3.002902	-3.513104
O	1.270336	-7.242571	2.661046
O	0.518831	-2.941447	3.934410
O	0.909352	-5.169576	-4.188059
O	0.154583	-0.865129	-2.940845
C	0.962688	-5.479882	4.667206
H	1.152619	-6.563651	4.712423
H	0.009812	-5.224773	5.169231
H	1.771476	-4.915854	5.169992
C	0.449351	-2.548170	-4.904229
H	0.603867	-3.430587	-5.546833
H	1.222168	-1.779783	-5.095998
H	-0.538644	-2.088191	-5.095858
C	0.000000	0.000000	0.000000
S	0.607475	0.509994	1.580530
C	1.862020	1.562717	0.904911
C	0.764397	0.641624	-0.985400
C	1.775697	1.490335	-0.493528
H	0.583895	0.490135	-2.059934
H	2.450484	2.056643	-1.152593
H	2.536607	2.128872	1.556025
H	2.161481	-7.094026	-0.149881
H	0.391832	-7.405660	-0.150656
H	1.320388	-1.268824	0.000531
$end

$rem
JOBTYPE		SP
EXCHANGE	HF
CORRELATION	pRIMP2
BASIS		cc-pvtz
METHOD		rimp2
AUX_BASIS	rimp2-cc-pvtz
SOLVENT_METHOD	PCM
PURECART	11111
SYMMETRY	false
MEM_TOTAL	110000
SCF_CONVERGENCE = 6
THRESH=10
GUI = 2
$end

$solvent
dielectric 4.90
$end
--------------------------------------------------------------

             Standard Nuclear Orientation (Angstroms)
    I     Atom           X                Y                Z
 ----------------------------------------------------------------
    1      C       1.1691770000    -6.6392430000    -0.2569270000
    2      C       1.0673370000    -6.0623990000    -1.5626750000
    3      C       1.0037730000    -5.7038030000     0.8271970000
    4      C       0.8328160000    -4.7310440000    -1.8412530000
    5      H       1.1827770000    -6.7181950000    -2.4407090000
    6      C       0.7591350000    -4.3123300000     0.5354880000
    7      C       0.6656080000    -3.7798760000    -0.7949990000
    8      C       0.5920240000    -3.3613240000     1.5805290000
    9      C       0.4211690000    -2.3896410000    -1.0843740000
   10      C       0.3575570000    -2.0280700000     1.3052580000
   11      C       0.2566900000    -1.4557590000     0.0000000000
   12      H       0.2425650000    -1.3735300000     2.1842670000
   13      C       1.0708200000    -6.0946320000     2.2697190000
   14      C       0.6587880000    -3.7405950000     3.0111520000
   15      N       0.8953340000    -5.0918870000     3.2546170000
   16      C       0.7669790000    -4.3580100000    -3.2757750000
   17      C       0.3542240000    -2.0055860000    -2.5279510000
   18      N       0.5290860000    -3.0029020000    -3.5131040000
   19      O       1.2703360000    -7.2425710000     2.6610460000
   20      O       0.5188310000    -2.9414470000     3.9344100000
   21      O       0.9093520000    -5.1695760000    -4.1880590000
   22      O       0.1545830000    -0.8651290000    -2.9408450000
   23      C       0.9626880000    -5.4798820000     4.6672060000
   24      H       1.1526190000    -6.5636510000     4.7124230000
   25      H       0.0098120000    -5.2247730000     5.1692310000
   26      H       1.7714760000    -4.9158540000     5.1699920000
   27      C       0.4493510000    -2.5481700000    -4.9042290000
   28      H       0.6038670000    -3.4305870000    -5.5468330000
   29      H       1.2221680000    -1.7797830000    -5.0959980000
   30      H      -0.5386440000    -2.0881910000    -5.0958580000
   31      C       0.0000000000     0.0000000000     0.0000000000
   32      S       0.6074750000     0.5099940000     1.5805300000
   33      C       1.8620200000     1.5627170000     0.9049110000
   34      C       0.7643970000     0.6416240000    -0.9854000000
   35      C       1.7756970000     1.4903350000    -0.4935280000
   36      H       0.5838950000     0.4901350000    -2.0599340000
   37      H       2.4504840000     2.0566430000    -1.1525930000
   38      H       2.5366070000     2.1288720000     1.5560250000
   39      H       2.1614810000    -7.0940260000    -0.1498810000
   40      H       0.3918320000    -7.4056600000    -0.1506560000
   41      H       1.3203880000    -1.2688240000     0.0005310000
 ----------------------------------------------------------------

   11   -1571.6376154949      5.57e-07  Convergence criterion met
 Total energy in the final basis set =    -1571.6376154949
        RIMP2         total energy =     -1576.3163544340 a.u.

                    Orbital Energies (a.u.)
 --------------------------------------------------------------

 Alpha MOs
 -- Occupied --
-91.9860 -20.5548 -20.5456 -20.5389 -20.5380 -15.6300 -15.6192 -11.3996
-11.3863 -11.3809 -11.3761 -11.3070 -11.3034 -11.3027 -11.3021 -11.3001
-11.2963 -11.2854 -11.2689 -11.2677 -11.2652 -11.2648 -11.2594 -11.2582
-11.2514 -11.2510 -11.2495  -8.9882  -6.6689  -6.6679  -6.6677  -1.4276
 -1.4098  -1.4013  -1.3890  -1.2657  -1.2535  -1.2358  -1.1954  -1.1497
 -1.1120  -1.0838  -1.0474  -0.9996  -0.9951  -0.9876  -0.9547  -0.9462
 -0.8968  -0.8879  -0.8766  -0.8587  -0.7969  -0.7819  -0.7726  -0.7625
 -0.7385  -0.7284  -0.7001  -0.6909  -0.6858  -0.6733  -0.6675  -0.6568
 -0.6495  -0.6490  -0.6365  -0.6314  -0.6301  -0.6297  -0.6234  -0.6032
 -0.5956  -0.5754  -0.5698  -0.5624  -0.5583  -0.5522  -0.5517  -0.5471
 -0.5462  -0.5417  -0.5184  -0.5116  -0.4996  -0.4732  -0.4686  -0.4572
 -0.4546  -0.4472  -0.4402  -0.4338  -0.4163  -0.4064  -0.3616  -0.3425
 -0.3352  -0.2738

          Ground-State Mulliken Net Atomic Charges

     Atom                 Charge (a.u.)
  ----------------------------------------
      1 C                    -0.083906
      2 C                    -0.033078
      3 C                    -0.114517
      4 C                    -0.115192
      5 H                     0.198270
      6 C                     0.016181
      7 C                     0.118213
      8 C                    -0.044830
      9 C                    -0.219575
     10 C                    -0.145636
     11 C                     0.176737
     12 H                     0.184980
     13 C                     0.339888
     14 C                     0.343952
     15 N                    -0.088989
     16 C                     0.356909
     17 C                     0.385796
     18 N                    -0.087682
     19 O                    -0.498617
     20 O                    -0.511984
     21 O                    -0.500253
     22 O                    -0.475843
     23 C                    -0.205688
     24 H                     0.139040
     25 H                     0.108884
     26 H                     0.108449
     27 C                    -0.198959
     28 H                     0.134661
     29 H                     0.111242
     30 H                     0.112748
     31 C                    -0.101114
     32 S                     0.010396
     33 C                    -0.152990
     34 C                    -0.119180
     35 C                    -0.258464
     36 H                     0.245593
     37 H                     0.191459
     38 H                     0.216787
     39 H                     0.136694
     40 H                     0.136979
     41 H                     0.182636
  ----------------------------------------
  Sum of atomic charges =     0.000000

                    Cartesian Multipole Moments
 -----------------------------------------------------------------
    Charge (ESU x 10^10)
                 0.0000
    Dipole Moment (Debye)
         X       3.0028      Y       2.7361      Z      -2.5380
       Tot       4.7901
    Quadrupole Moments (Debye-Ang)
        XX    -155.9931     XY      10.1660     YY    -186.1863
        XZ      -1.1299     YZ      11.0342     ZZ    -188.1816

 Total job time:  474.94s(wall), 10461.77s(cpu)
        *  Thank you very much for using Q-Chem.  Have a nice day.  *
