 Q-Chem 5.4, Q-Chem, Inc., Pleasanton, CA (2021)
 Q-Chem 5.4.0 for Intel X86 EM64T Linux

User input:
--------------------------------------------------------------
$molecule
0 1
C	0.127184	-6.741404	-0.223244
C	0.779949	-6.155638	-1.354118
C	-0.415271	-5.791452	0.715408
C	0.919437	-4.803786	-1.595259
H	1.218801	-6.821518	-2.114613
C	-0.268806	-4.378638	0.463133
C	0.396744	-3.838032	-0.688925
C	-0.790835	-3.413062	1.368449
C	0.542026	-2.426473	-0.939189
C	-0.652669	-2.059348	1.130363
C	-0.000000	-1.478216	-0.000000
H	-1.091814	-1.394783	1.891815
C	-1.138124	-6.187987	1.963749
C	-1.506241	-3.798164	2.607351
N	-1.629443	-5.170003	2.817348
C	1.636646	-4.424987	-2.837621
C	1.264474	-2.036627	-2.188982
N	1.756205	-3.049156	-3.042637
O	-1.336258	-7.353131	2.301222
O	-1.967056	-2.986854	3.407386
O	2.092167	-5.248946	-3.628041
O	1.472160	-0.878829	-2.545844
C	-2.336642	-5.563799	4.040164
H	-2.360245	-6.664085	4.078749
H	-3.361968	-5.147101	4.027880
H	-1.813424	-5.148785	4.922811
C	2.452149	-2.587487	-4.247167
H	2.772531	-3.483329	-4.804209
H	3.322697	-1.964972	-3.965991
H	1.774507	-1.962932	-4.859678
C	0.000000	0.000000	0.000000
S	0.686805	0.396760	1.580530
C	2.105095	1.215640	0.904911
C	0.864201	0.499140	-0.985400
C	2.007514	1.159347	-0.493528
H	0.660136	0.381296	-2.059934
H	2.770388	1.599875	-1.152593
H	2.867745	1.656053	1.556025
H	0.851574	-7.361589	0.318588
H	-0.704181	-7.361192	-0.580522
H	0.935042	-1.478831	0.540459
$end

$rem
JOBTYPE		SP
EXCHANGE	HF
CORRELATION	pRIMP2
BASIS		cc-pvtz
METHOD		rimp2
AUX_BASIS	rimp2-cc-pvtz
SOLVENT_METHOD	PCM
PURECART	11111
SYMMETRY	false
MEM_TOTAL	110000
SCF_CONVERGENCE = 6
THRESH=10
GUI = 2
$end

$solvent
dielectric 4.90
$end
--------------------------------------------------------------

             Standard Nuclear Orientation (Angstroms)
    I     Atom           X                Y                Z
 ----------------------------------------------------------------
    1      C       0.1271840000    -6.7414040000    -0.2232440000
    2      C       0.7799490000    -6.1556380000    -1.3541180000
    3      C      -0.4152710000    -5.7914520000     0.7154080000
    4      C       0.9194370000    -4.8037860000    -1.5952590000
    5      H       1.2188010000    -6.8215180000    -2.1146130000
    6      C      -0.2688060000    -4.3786380000     0.4631330000
    7      C       0.3967440000    -3.8380320000    -0.6889250000
    8      C      -0.7908350000    -3.4130620000     1.3684490000
    9      C       0.5420260000    -2.4264730000    -0.9391890000
   10      C      -0.6526690000    -2.0593480000     1.1303630000
   11      C       0.0000000000    -1.4782160000     0.0000000000
   12      H      -1.0918140000    -1.3947830000     1.8918150000
   13      C      -1.1381240000    -6.1879870000     1.9637490000
   14      C      -1.5062410000    -3.7981640000     2.6073510000
   15      N      -1.6294430000    -5.1700030000     2.8173480000
   16      C       1.6366460000    -4.4249870000    -2.8376210000
   17      C       1.2644740000    -2.0366270000    -2.1889820000
   18      N       1.7562050000    -3.0491560000    -3.0426370000
   19      O      -1.3362580000    -7.3531310000     2.3012220000
   20      O      -1.9670560000    -2.9868540000     3.4073860000
   21      O       2.0921670000    -5.2489460000    -3.6280410000
   22      O       1.4721600000    -0.8788290000    -2.5458440000
   23      C      -2.3366420000    -5.5637990000     4.0401640000
   24      H      -2.3602450000    -6.6640850000     4.0787490000
   25      H      -3.3619680000    -5.1471010000     4.0278800000
   26      H      -1.8134240000    -5.1487850000     4.9228110000
   27      C       2.4521490000    -2.5874870000    -4.2471670000
   28      H       2.7725310000    -3.4833290000    -4.8042090000
   29      H       3.3226970000    -1.9649720000    -3.9659910000
   30      H       1.7745070000    -1.9629320000    -4.8596780000
   31      C       0.0000000000     0.0000000000     0.0000000000
   32      S       0.6868050000     0.3967600000     1.5805300000
   33      C       2.1050950000     1.2156400000     0.9049110000
   34      C       0.8642010000     0.4991400000    -0.9854000000
   35      C       2.0075140000     1.1593470000    -0.4935280000
   36      H       0.6601360000     0.3812960000    -2.0599340000
   37      H       2.7703880000     1.5998750000    -1.1525930000
   38      H       2.8677450000     1.6560530000     1.5560250000
   39      H       0.8515740000    -7.3615890000     0.3185880000
   40      H      -0.7041810000    -7.3611920000    -0.5805220000
   41      H       0.9350420000    -1.4788310000     0.5404590000
 ----------------------------------------------------------------

   11   -1571.6217850792      6.12e-07  Convergence criterion met
 Total energy in the final basis set =    -1571.6217850792
        RIMP2         total energy =     -1576.2978136196 a.u.

                    Orbital Energies (a.u.)
 --------------------------------------------------------------

 Alpha MOs
 -- Occupied --
-91.9764 -20.5546 -20.5466 -20.5392 -20.5383 -15.6323 -15.6193 -11.4037
-11.3871 -11.3812 -11.3765 -11.3062 -11.3048 -11.3048 -11.3027 -11.3012
-11.2962 -11.2786 -11.2679 -11.2662 -11.2656 -11.2615 -11.2581 -11.2569
-11.2531 -11.2515 -11.2469  -8.9787  -6.6595  -6.6586  -6.6583  -1.4345
 -1.4101  -1.4035  -1.3892  -1.2688  -1.2537  -1.2326  -1.1928  -1.1498
 -1.1122  -1.0832  -1.0463  -0.9988  -0.9915  -0.9883  -0.9553  -0.9472
 -0.8987  -0.8844  -0.8777  -0.8599  -0.7917  -0.7826  -0.7744  -0.7673
 -0.7407  -0.7364  -0.7032  -0.6867  -0.6785  -0.6748  -0.6671  -0.6575
 -0.6490  -0.6475  -0.6362  -0.6322  -0.6303  -0.6298  -0.6227  -0.6028
 -0.5899  -0.5761  -0.5676  -0.5620  -0.5571  -0.5547  -0.5516  -0.5472
 -0.5461  -0.5420  -0.5155  -0.5117  -0.5013  -0.4760  -0.4705  -0.4633
 -0.4537  -0.4419  -0.4367  -0.4322  -0.4181  -0.4059  -0.3554  -0.3409
 -0.3294  -0.2731

          Ground-State Mulliken Net Atomic Charges

     Atom                 Charge (a.u.)
  ----------------------------------------
      1 C                    -0.085494
      2 C                    -0.030435
      3 C                    -0.117154
      4 C                    -0.119509
      5 H                     0.198180
      6 C                     0.017628
      7 C                     0.125032
      8 C                    -0.083166
      9 C                    -0.199088
     10 C                    -0.125081
     11 C                     0.156298
     12 H                     0.181607
     13 C                     0.341990
     14 C                     0.346902
     15 N                    -0.089438
     16 C                     0.357074
     17 C                     0.405358
     18 N                    -0.083566
     19 O                    -0.497777
     20 O                    -0.508715
     21 O                    -0.499157
     22 O                    -0.463761
     23 C                    -0.205559
     24 H                     0.138998
     25 H                     0.108979
     26 H                     0.108737
     27 C                    -0.200554
     28 H                     0.135772
     29 H                     0.112159
     30 H                     0.113073
     31 C                    -0.155399
     32 S                    -0.027777
     33 C                    -0.137799
     34 C                    -0.056242
     35 C                    -0.247872
     36 H                     0.220054
     37 H                     0.190116
     38 H                     0.216769
     39 H                     0.136438
     40 H                     0.136941
     41 H                     0.185439
  ----------------------------------------
  Sum of atomic charges =     0.000000

                    Cartesian Multipole Moments
 -----------------------------------------------------------------
    Charge (ESU x 10^10)
                 0.0000
    Dipole Moment (Debye)
         X       4.4982      Y       1.9101      Z      -2.8713
       Tot       5.6681
    Quadrupole Moments (Debye-Ang)
        XX    -160.9516     XY      -0.5755     YY    -188.1640
        XZ      14.0499     YZ       9.1425     ZZ    -179.6347

 Total job time:  351.10s(wall), 10104.36s(cpu)
        *  Thank you very much for using Q-Chem.  Have a nice day.  *
