 Q-Chem 5.4, Q-Chem, Inc., Pleasanton, CA (2021)
 Q-Chem 5.4.0 for Intel X86 EM64T Linux

User input:
--------------------------------------------------------------
$molecule
0 1
C	-0.221766	-6.741404	0.129743
C	-1.352515	-6.155638	0.782726
C	0.717339	-5.791452	-0.411926
C	-1.593885	-4.803786	0.921816
H	-2.112819	-6.821518	1.221908
C	0.464360	-4.378638	-0.266682
C	-0.688053	-3.838032	0.398255
C	1.369108	-3.413062	-0.789694
C	-0.939002	-2.426473	0.542349
C	1.130409	-2.059348	-0.652589
C	-0.000000	-1.478216	-0.000000
H	1.891446	-1.394783	-1.092453
C	1.967519	-6.187987	-1.131595
C	2.608118	-3.798164	-1.504912
N	2.819813	-5.170003	-1.625174
C	-2.836188	-4.424987	1.639129
C	-2.189558	-2.036627	1.263477
N	-3.042237	-3.049156	1.756898
O	2.307845	-7.353131	-1.324787
O	3.407213	-2.986854	-1.967354
O	-3.625890	-5.248946	2.095892
O	-2.547850	-0.878829	1.468685
C	4.043674	-5.563799	-2.330564
H	4.083407	-6.664085	-2.352178
H	4.925490	-5.147101	-1.807263
H	4.031877	-5.148785	-3.356568
C	-4.247206	-2.587487	2.452080
H	-4.803187	-3.483329	2.774302
H	-4.860536	-1.964972	1.773301
H	-3.966607	-1.962932	3.321351
C	0.000000	0.000000	0.000000
S	-0.000201	0.793171	1.580530
C	-0.000228	2.430885	0.904911
C	-0.000168	0.997990	-0.985400
C	-0.000267	2.318231	-0.493528
H	-0.000145	0.762343	-2.059934
H	-0.000339	3.199164	-1.152593
H	-0.000311	3.311566	1.556025
H	-0.578191	-7.361589	-0.701693
H	0.319578	-7.361192	0.854838
H	-0.539540	-1.478831	-0.935572
$end

$rem
JOBTYPE		SP
EXCHANGE	HF
CORRELATION	pRIMP2
BASIS		cc-pvtz
METHOD		rimp2
AUX_BASIS	rimp2-cc-pvtz
SOLVENT_METHOD	PCM
PURECART	11111
SYMMETRY	false
MEM_TOTAL	110000
SCF_CONVERGENCE = 6
THRESH=10
GUI = 2
$end

$solvent
dielectric 4.90
$end
--------------------------------------------------------------

             Standard Nuclear Orientation (Angstroms)
    I     Atom           X                Y                Z
 ----------------------------------------------------------------
    1      C      -0.2217660000    -6.7414040000     0.1297430000
    2      C      -1.3525150000    -6.1556380000     0.7827260000
    3      C       0.7173390000    -5.7914520000    -0.4119260000
    4      C      -1.5938850000    -4.8037860000     0.9218160000
    5      H      -2.1128190000    -6.8215180000     1.2219080000
    6      C       0.4643600000    -4.3786380000    -0.2666820000
    7      C      -0.6880530000    -3.8380320000     0.3982550000
    8      C       1.3691080000    -3.4130620000    -0.7896940000
    9      C      -0.9390020000    -2.4264730000     0.5423490000
   10      C       1.1304090000    -2.0593480000    -0.6525890000
   11      C       0.0000000000    -1.4782160000     0.0000000000
   12      H       1.8914460000    -1.3947830000    -1.0924530000
   13      C       1.9675190000    -6.1879870000    -1.1315950000
   14      C       2.6081180000    -3.7981640000    -1.5049120000
   15      N       2.8198130000    -5.1700030000    -1.6251740000
   16      C      -2.8361880000    -4.4249870000     1.6391290000
   17      C      -2.1895580000    -2.0366270000     1.2634770000
   18      N      -3.0422370000    -3.0491560000     1.7568980000
   19      O       2.3078450000    -7.3531310000    -1.3247870000
   20      O       3.4072130000    -2.9868540000    -1.9673540000
   21      O      -3.6258900000    -5.2489460000     2.0958920000
   22      O      -2.5478500000    -0.8788290000     1.4686850000
   23      C       4.0436740000    -5.5637990000    -2.3305640000
   24      H       4.0834070000    -6.6640850000    -2.3521780000
   25      H       4.9254900000    -5.1471010000    -1.8072630000
   26      H       4.0318770000    -5.1487850000    -3.3565680000
   27      C      -4.2472060000    -2.5874870000     2.4520800000
   28      H      -4.8031870000    -3.4833290000     2.7743020000
   29      H      -4.8605360000    -1.9649720000     1.7733010000
   30      H      -3.9666070000    -1.9629320000     3.3213510000
   31      C       0.0000000000     0.0000000000     0.0000000000
   32      S      -0.0002010000     0.7931710000     1.5805300000
   33      C      -0.0002280000     2.4308850000     0.9049110000
   34      C      -0.0001680000     0.9979900000    -0.9854000000
   35      C      -0.0002670000     2.3182310000    -0.4935280000
   36      H      -0.0001450000     0.7623430000    -2.0599340000
   37      H      -0.0003390000     3.1991640000    -1.1525930000
   38      H      -0.0003110000     3.3115660000     1.5560250000
   39      H      -0.5781910000    -7.3615890000    -0.7016930000
   40      H       0.3195780000    -7.3611920000     0.8548380000
   41      H      -0.5395400000    -1.4788310000    -0.9355720000
 ----------------------------------------------------------------

   11   -1571.7451528723      5.58e-07  Convergence criterion met
 Total energy in the final basis set =    -1571.7451528723
        RIMP2         total energy =     -1576.4011646270 a.u.

                    Orbital Energies (a.u.)
 --------------------------------------------------------------

 Alpha MOs
 -- Occupied --
-91.9834 -20.5510 -20.5444 -20.5419 -20.5407 -15.6267 -15.6215 -11.3930
-11.3852 -11.3837 -11.3794 -11.3097 -11.3093 -11.3061 -11.3050 -11.2976
-11.2970 -11.2906 -11.2783 -11.2694 -11.2684 -11.2647 -11.2627 -11.2596
-11.2555 -11.2530 -11.2482  -8.9832  -6.6640  -6.6634  -6.6629  -1.4194
 -1.4124  -1.3972  -1.3916  -1.2620  -1.2556  -1.2300  -1.1858  -1.1515
 -1.1144  -1.0867  -1.0471  -0.9947  -0.9879  -0.9818  -0.9551  -0.9509
 -0.8963  -0.8879  -0.8771  -0.8604  -0.7938  -0.7770  -0.7712  -0.7611
 -0.7406  -0.7172  -0.7036  -0.6916  -0.6803  -0.6728  -0.6666  -0.6573
 -0.6473  -0.6452  -0.6362  -0.6328  -0.6311  -0.6281  -0.6214  -0.6046
 -0.5848  -0.5748  -0.5660  -0.5616  -0.5577  -0.5514  -0.5507  -0.5481
 -0.5471  -0.5437  -0.5178  -0.5154  -0.5101  -0.4828  -0.4741  -0.4602
 -0.4564  -0.4507  -0.4429  -0.4347  -0.4131  -0.4076  -0.3533  -0.3483
 -0.3283  -0.2866

          Ground-State Mulliken Net Atomic Charges

     Atom                 Charge (a.u.)
  ----------------------------------------
      1 C                    -0.084624
      2 C                    -0.029748
      3 C                    -0.111077
      4 C                    -0.125122
      5 H                     0.199179
      6 C                     0.021686
      7 C                     0.121648
      8 C                    -0.086497
      9 C                    -0.168757
     10 C                    -0.143366
     11 C                     0.208503
     12 H                     0.194156
     13 C                     0.343241
     14 C                     0.348512
     15 N                    -0.089827
     16 C                     0.357216
     17 C                     0.353482
     18 N                    -0.090247
     19 O                    -0.494323
     20 O                    -0.507721
     21 O                    -0.501697
     22 O                    -0.466727
     23 C                    -0.204699
     24 H                     0.139502
     25 H                     0.109376
     26 H                     0.108908
     27 C                    -0.197123
     28 H                     0.133177
     29 H                     0.111383
     30 H                     0.111887
     31 C                    -0.038530
     32 S                     0.032761
     33 C                    -0.213485
     34 C                    -0.198109
     35 C                    -0.210810
     36 H                     0.188859
     37 H                     0.189774
     38 H                     0.209109
     39 H                     0.137587
     40 H                     0.138139
     41 H                     0.204403
  ----------------------------------------
  Sum of atomic charges =     0.000000

                    Cartesian Multipole Moments
 -----------------------------------------------------------------
    Charge (ESU x 10^10)
                 0.0000
    Dipole Moment (Debye)
         X      -1.3882      Y       1.9196      Z      -1.1281
       Tot       2.6238
    Quadrupole Moments (Debye-Ang)
        XX    -187.5642     XY       8.2555     YY    -177.6842
        XZ      14.1728     YZ      -2.6514     ZZ    -164.6000

 Total job time:  301.61s(wall), 8687.45s(cpu)
        *  Thank you very much for using Q-Chem.  Have a nice day.  *
