 Q-Chem 5.4, Q-Chem, Inc., Pleasanton, CA (2021)
 Q-Chem 5.4.0 for Intel X86 EM64T Linux

User input:
--------------------------------------------------------------
$molecule
0 1
C	-0.166281	-6.741404	-0.195868
C	-1.005696	-6.155638	-1.196048
C	0.530233	-5.791452	0.634911
C	-1.184587	-4.803786	-1.409599
H	-1.570232	-6.821518	-1.868538
C	0.343266	-4.378638	0.410996
C	-0.511683	-3.838032	-0.608444
C	1.015440	-3.413062	1.211179
C	-0.697165	-2.426473	-0.830559
C	0.838968	-2.059348	0.999915
C	-0.000000	-1.478216	-0.000000
H	1.404302	-1.394783	1.673009
C	1.456059	-6.187987	1.741129
C	1.934944	-3.798164	2.307170
N	2.090139	-5.170003	2.494766
C	-2.106725	-4.424987	-2.508468
C	-1.624494	-2.036627	-1.936893
N	-2.258486	-3.049156	-2.690936
O	1.705414	-7.353131	2.042736
O	2.529122	-2.986854	3.013823
O	-2.693680	-5.248946	-3.206857
O	-1.888802	-0.878829	-2.254108
C	2.997334	-5.563799	3.577543
H	3.025519	-6.664085	3.612920
H	2.635109	-5.147101	4.536833
H	4.005702	-5.148785	3.387762
C	-3.152347	-2.587487	-3.756883
H	-3.566218	-3.483329	-4.248464
H	-2.590383	-1.964972	-4.478763
H	-3.959687	-1.962932	-3.329599
C	0.000000	0.000000	0.000000
S	0.335026	0.718942	1.580530
C	1.027130	2.203226	0.904911
C	0.421617	0.904557	-0.985400
C	0.979485	2.101144	-0.493528
H	0.322049	0.690978	-2.059934
H	1.351718	2.899571	-1.152593
H	1.399246	3.001430	1.556025
H	0.590631	-7.361589	-0.691254
H	-0.786357	-7.361192	0.463164
H	0.827669	-1.478831	-0.693804
$end

$rem
JOBTYPE		SP
EXCHANGE	HF
CORRELATION	pRIMP2
BASIS		cc-pvtz
METHOD		rimp2
AUX_BASIS	rimp2-cc-pvtz
SOLVENT_METHOD	PCM
PURECART	11111
SYMMETRY	false
MEM_TOTAL	110000
SCF_CONVERGENCE = 6
THRESH=10
GUI = 2
$end

$solvent
dielectric 4.90
$end
--------------------------------------------------------------

             Standard Nuclear Orientation (Angstroms)
    I     Atom           X                Y                Z
 ----------------------------------------------------------------
    1      C      -0.1662810000    -6.7414040000    -0.1958680000
    2      C      -1.0056960000    -6.1556380000    -1.1960480000
    3      C       0.5302330000    -5.7914520000     0.6349110000
    4      C      -1.1845870000    -4.8037860000    -1.4095990000
    5      H      -1.5702320000    -6.8215180000    -1.8685380000
    6      C       0.3432660000    -4.3786380000     0.4109960000
    7      C      -0.5116830000    -3.8380320000    -0.6084440000
    8      C       1.0154400000    -3.4130620000     1.2111790000
    9      C      -0.6971650000    -2.4264730000    -0.8305590000
   10      C       0.8389680000    -2.0593480000     0.9999150000
   11      C       0.0000000000    -1.4782160000     0.0000000000
   12      H       1.4043020000    -1.3947830000     1.6730090000
   13      C       1.4560590000    -6.1879870000     1.7411290000
   14      C       1.9349440000    -3.7981640000     2.3071700000
   15      N       2.0901390000    -5.1700030000     2.4947660000
   16      C      -2.1067250000    -4.4249870000    -2.5084680000
   17      C      -1.6244940000    -2.0366270000    -1.9368930000
   18      N      -2.2584860000    -3.0491560000    -2.6909360000
   19      O       1.7054140000    -7.3531310000     2.0427360000
   20      O       2.5291220000    -2.9868540000     3.0138230000
   21      O      -2.6936800000    -5.2489460000    -3.2068570000
   22      O      -1.8888020000    -0.8788290000    -2.2541080000
   23      C       2.9973340000    -5.5637990000     3.5775430000
   24      H       3.0255190000    -6.6640850000     3.6129200000
   25      H       2.6351090000    -5.1471010000     4.5368330000
   26      H       4.0057020000    -5.1487850000     3.3877620000
   27      C      -3.1523470000    -2.5874870000    -3.7568830000
   28      H      -3.5662180000    -3.4833290000    -4.2484640000
   29      H      -2.5903830000    -1.9649720000    -4.4787630000
   30      H      -3.9596870000    -1.9629320000    -3.3295990000
   31      C       0.0000000000     0.0000000000     0.0000000000
   32      S       0.3350260000     0.7189420000     1.5805300000
   33      C       1.0271300000     2.2032260000     0.9049110000
   34      C       0.4216170000     0.9045570000    -0.9854000000
   35      C       0.9794850000     2.1011440000    -0.4935280000
   36      H       0.3220490000     0.6909780000    -2.0599340000
   37      H       1.3517180000     2.8995710000    -1.1525930000
   38      H       1.3992460000     3.0014300000     1.5560250000
   39      H       0.5906310000    -7.3615890000    -0.6912540000
   40      H      -0.7863570000    -7.3611920000     0.4631640000
   41      H       0.8276690000    -1.4788310000    -0.6938040000
 ----------------------------------------------------------------

   11   -1571.7313982143      5.75e-07  Convergence criterion met
 Total energy in the final basis set =    -1571.7313982143
        RIMP2         total energy =     -1576.3911625882 a.u.

                    Orbital Energies (a.u.)
 --------------------------------------------------------------

 Alpha MOs
 -- Occupied --
-91.9909 -20.5533 -20.5447 -20.5411 -20.5404 -15.6274 -15.6210 -11.3943
-11.3854 -11.3830 -11.3789 -11.3080 -11.3064 -11.3047 -11.3042 -11.2974
-11.2964 -11.2904 -11.2813 -11.2681 -11.2679 -11.2646 -11.2633 -11.2592
-11.2524 -11.2522 -11.2507  -8.9909  -6.6717  -6.6712  -6.6706  -1.4203
 -1.4119  -1.3978  -1.3910  -1.2626  -1.2552  -1.2311  -1.1888  -1.1518
 -1.1139  -1.0862  -1.0470  -0.9962  -0.9880  -0.9866  -0.9552  -0.9496
 -0.8968  -0.8883  -0.8765  -0.8594  -0.7958  -0.7793  -0.7708  -0.7605
 -0.7402  -0.7165  -0.7023  -0.6920  -0.6827  -0.6717  -0.6669  -0.6572
 -0.6471  -0.6456  -0.6367  -0.6321  -0.6306  -0.6277  -0.6223  -0.6045
 -0.5882  -0.5747  -0.5663  -0.5613  -0.5571  -0.5516  -0.5505  -0.5496
 -0.5475  -0.5434  -0.5188  -0.5125  -0.5099  -0.4854  -0.4761  -0.4655
 -0.4575  -0.4514  -0.4426  -0.4345  -0.4138  -0.4073  -0.3542  -0.3521
 -0.3315  -0.2812

          Ground-State Mulliken Net Atomic Charges

     Atom                 Charge (a.u.)
  ----------------------------------------
      1 C                    -0.084628
      2 C                    -0.031570
      3 C                    -0.111905
      4 C                    -0.122780
      5 H                     0.198681
      6 C                     0.021127
      7 C                     0.117061
      8 C                    -0.070424
      9 C                    -0.178843
     10 C                    -0.159813
     11 C                     0.172638
     12 H                     0.194506
     13 C                     0.341924
     14 C                     0.346795
     15 N                    -0.089696
     16 C                     0.356956
     17 C                     0.348653
     18 N                    -0.090725
     19 O                    -0.495366
     20 O                    -0.507543
     21 O                    -0.501373
     22 O                    -0.472715
     23 C                    -0.204965
     24 H                     0.139418
     25 H                     0.109262
     26 H                     0.108925
     27 C                    -0.197767
     28 H                     0.133536
     29 H                     0.110705
     30 H                     0.112372
     31 C                     0.010842
     32 S                     0.006100
     33 C                    -0.202492
     34 C                    -0.167905
     35 C                    -0.220403
     36 H                     0.189190
     37 H                     0.191329
     38 H                     0.211998
     39 H                     0.137190
     40 H                     0.137429
     41 H                     0.214279
  ----------------------------------------
  Sum of atomic charges =     0.000000

                    Cartesian Multipole Moments
 -----------------------------------------------------------------
    Charge (ESU x 10^10)
                 0.0000
    Dipole Moment (Debye)
         X       0.9159      Y       2.1003      Z      -2.2340
       Tot       3.2001
    Quadrupole Moments (Debye-Ang)
        XX    -174.3893     XY       8.8953     YY    -180.6626
        XZ     -16.2265     YZ       8.3383     ZZ    -175.6346

 Total job time:  290.01s(wall), 8851.67s(cpu)
        *  Thank you very much for using Q-Chem.  Have a nice day.  *
