 Q-Chem 5.4, Q-Chem, Inc., Pleasanton, CA (2021)
 Q-Chem 5.4.0 for Intel X86 EM64T Linux

User input:
--------------------------------------------------------------
$molecule
0 1
C	0.221766	-6.741404	-0.129743
C	1.352515	-6.155638	-0.782726
C	-0.717339	-5.791452	0.411926
C	1.593885	-4.803786	-0.921816
H	2.112819	-6.821518	-1.221908
C	-0.464360	-4.378638	0.266682
C	0.688053	-3.838032	-0.398255
C	-1.369108	-3.413062	0.789694
C	0.939002	-2.426473	-0.542349
C	-1.130409	-2.059348	0.652589
C	0.000000	-1.478216	0.000000
H	-1.891446	-1.394783	1.092453
C	-1.967519	-6.187987	1.131595
C	-2.608118	-3.798164	1.504912
N	-2.819813	-5.170003	1.625174
C	2.836188	-4.424987	-1.639129
C	2.189558	-2.036627	-1.263477
N	3.042237	-3.049156	-1.756898
O	-2.307845	-7.353131	1.324787
O	-3.407213	-2.986854	1.967354
O	3.625890	-5.248946	-2.095892
O	2.547850	-0.878829	-1.468685
C	-4.043674	-5.563799	2.330564
H	-4.083407	-6.664085	2.352178
H	-4.925490	-5.147101	1.807263
H	-4.031877	-5.148785	3.356568
C	4.247206	-2.587487	-2.452080
H	4.803187	-3.483329	-2.774302
H	4.860536	-1.964972	-1.773301
H	3.966607	-1.962932	-3.321351
C	0.000000	0.000000	0.000000
S	0.205093	0.766196	1.580530
C	0.628939	2.348114	0.904911
C	0.258137	0.964028	-0.985400
C	0.599745	2.239309	-0.493528
H	0.197169	0.736404	-2.059934
H	0.827678	3.090243	-1.152593
H	0.856796	3.198808	1.556025
H	0.578191	-7.361589	0.701693
H	-0.319578	-7.361192	-0.854838
H	0.539540	-1.478831	0.935572
$end

$rem
JOBTYPE		SP
EXCHANGE	HF
CORRELATION	pRIMP2
BASIS		cc-pvtz
METHOD		rimp2
AUX_BASIS	rimp2-cc-pvtz
SOLVENT_METHOD	PCM
PURECART	11111
SYMMETRY	false
MEM_TOTAL	110000
SCF_CONVERGENCE = 6
THRESH=10
GUI = 2
$end

$solvent
dielectric 4.90
$end
--------------------------------------------------------------

             Standard Nuclear Orientation (Angstroms)
    I     Atom           X                Y                Z
 ----------------------------------------------------------------
    1      C       0.2217660000    -6.7414040000    -0.1297430000
    2      C       1.3525150000    -6.1556380000    -0.7827260000
    3      C      -0.7173390000    -5.7914520000     0.4119260000
    4      C       1.5938850000    -4.8037860000    -0.9218160000
    5      H       2.1128190000    -6.8215180000    -1.2219080000
    6      C      -0.4643600000    -4.3786380000     0.2666820000
    7      C       0.6880530000    -3.8380320000    -0.3982550000
    8      C      -1.3691080000    -3.4130620000     0.7896940000
    9      C       0.9390020000    -2.4264730000    -0.5423490000
   10      C      -1.1304090000    -2.0593480000     0.6525890000
   11      C       0.0000000000    -1.4782160000     0.0000000000
   12      H      -1.8914460000    -1.3947830000     1.0924530000
   13      C      -1.9675190000    -6.1879870000     1.1315950000
   14      C      -2.6081180000    -3.7981640000     1.5049120000
   15      N      -2.8198130000    -5.1700030000     1.6251740000
   16      C       2.8361880000    -4.4249870000    -1.6391290000
   17      C       2.1895580000    -2.0366270000    -1.2634770000
   18      N       3.0422370000    -3.0491560000    -1.7568980000
   19      O      -2.3078450000    -7.3531310000     1.3247870000
   20      O      -3.4072130000    -2.9868540000     1.9673540000
   21      O       3.6258900000    -5.2489460000    -2.0958920000
   22      O       2.5478500000    -0.8788290000    -1.4686850000
   23      C      -4.0436740000    -5.5637990000     2.3305640000
   24      H      -4.0834070000    -6.6640850000     2.3521780000
   25      H      -4.9254900000    -5.1471010000     1.8072630000
   26      H      -4.0318770000    -5.1487850000     3.3565680000
   27      C       4.2472060000    -2.5874870000    -2.4520800000
   28      H       4.8031870000    -3.4833290000    -2.7743020000
   29      H       4.8605360000    -1.9649720000    -1.7733010000
   30      H       3.9666070000    -1.9629320000    -3.3213510000
   31      C       0.0000000000     0.0000000000     0.0000000000
   32      S       0.2050930000     0.7661960000     1.5805300000
   33      C       0.6289390000     2.3481140000     0.9049110000
   34      C       0.2581370000     0.9640280000    -0.9854000000
   35      C       0.5997450000     2.2393090000    -0.4935280000
   36      H       0.1971690000     0.7364040000    -2.0599340000
   37      H       0.8276780000     3.0902430000    -1.1525930000
   38      H       0.8567960000     3.1988080000     1.5560250000
   39      H       0.5781910000    -7.3615890000     0.7016930000
   40      H      -0.3195780000    -7.3611920000    -0.8548380000
   41      H       0.5395400000    -1.4788310000     0.9355720000
 ----------------------------------------------------------------

   11   -1571.7400587883      5.66e-07  Convergence criterion met
 Total energy in the final basis set =    -1571.7400587883
        RIMP2         total energy =     -1576.3957178452 a.u.

                    Orbital Energies (a.u.)
 --------------------------------------------------------------

 Alpha MOs
 -- Occupied --
-91.9920 -20.5506 -20.5443 -20.5414 -20.5402 -15.6266 -15.6210 -11.3927
-11.3850 -11.3833 -11.3788 -11.3083 -11.3077 -11.3048 -11.3045 -11.2963
-11.2912 -11.2883 -11.2832 -11.2688 -11.2679 -11.2643 -11.2629 -11.2592
-11.2525 -11.2524 -11.2501  -8.9918  -6.6727  -6.6722  -6.6715  -1.4189
 -1.4119  -1.3968  -1.3911  -1.2618  -1.2551  -1.2299  -1.1869  -1.1521
 -1.1137  -1.0866  -1.0464  -0.9960  -0.9876  -0.9837  -0.9548  -0.9505
 -0.8958  -0.8869  -0.8766  -0.8599  -0.7930  -0.7754  -0.7713  -0.7679
 -0.7405  -0.7152  -0.7033  -0.6909  -0.6764  -0.6712  -0.6671  -0.6570
 -0.6469  -0.6430  -0.6379  -0.6314  -0.6306  -0.6265  -0.6225  -0.6048
 -0.5852  -0.5740  -0.5657  -0.5607  -0.5565  -0.5512  -0.5496  -0.5475
 -0.5468  -0.5435  -0.5223  -0.5154  -0.5081  -0.4815  -0.4747  -0.4684
 -0.4571  -0.4509  -0.4425  -0.4345  -0.4130  -0.4073  -0.3547  -0.3520
 -0.3282  -0.2859

          Ground-State Mulliken Net Atomic Charges

     Atom                 Charge (a.u.)
  ----------------------------------------
      1 C                    -0.085078
      2 C                    -0.029670
      3 C                    -0.112352
      4 C                    -0.123931
      5 H                     0.198627
      6 C                     0.011611
      7 C                     0.123732
      8 C                    -0.068434
      9 C                    -0.143975
     10 C                    -0.176831
     11 C                     0.241797
     12 H                     0.194523
     13 C                     0.344011
     14 C                     0.349153
     15 N                    -0.089630
     16 C                     0.357208
     17 C                     0.356250
     18 N                    -0.089049
     19 O                    -0.494638
     20 O                    -0.507205
     21 O                    -0.501833
     22 O                    -0.469750
     23 C                    -0.204764
     24 H                     0.139361
     25 H                     0.109134
     26 H                     0.109119
     27 C                    -0.197433
     28 H                     0.133384
     29 H                     0.111582
     30 H                     0.110873
     31 C                    -0.090384
     32 S                     0.008894
     33 C                    -0.212923
     34 C                    -0.150748
     35 C                    -0.204259
     36 H                     0.183060
     37 H                     0.190183
     38 H                     0.212843
     39 H                     0.137370
     40 H                     0.137705
     41 H                     0.192466
  ----------------------------------------
  Sum of atomic charges =     0.000000

                    Cartesian Multipole Moments
 -----------------------------------------------------------------
    Charge (ESU x 10^10)
                 0.0000
    Dipole Moment (Debye)
         X       1.8087      Y       2.3855      Z      -0.9276
       Tot       3.1341
    Quadrupole Moments (Debye-Ang)
        XX    -186.9271     XY      -5.3395     YY    -178.5617
        XZ      14.6598     YZ       3.9318     ZZ    -164.6527

 Total job time:  294.37s(wall), 8707.71s(cpu)
        *  Thank you very much for using Q-Chem.  Have a nice day.  *
