 Q-Chem 5.4, Q-Chem, Inc., Pleasanton, CA (2021)
 Q-Chem 5.4.0 for Intel X86 EM64T Linux

User input:
--------------------------------------------------------------
$molecule
0 1
C	1.169177	-6.639243	-0.256927
C	1.067337	-6.062399	-1.562675
C	1.003773	-5.703803	0.827197
C	0.832816	-4.731044	-1.841253
H	1.182777	-6.718195	-2.440709
C	0.759135	-4.312330	0.535488
C	0.665608	-3.779876	-0.794999
C	0.592024	-3.361324	1.580529
C	0.421169	-2.389641	-1.084374
C	0.357557	-2.028070	1.305258
C	0.256690	-1.455759	0.000000
H	0.242565	-1.373530	2.184267
C	1.070820	-6.094632	2.269719
C	0.658788	-3.740595	3.011152
N	0.895334	-5.091887	3.254617
C	0.766979	-4.358010	-3.275775
C	0.354224	-2.005586	-2.527951
N	0.529086	-3.002902	-3.513104
O	1.270336	-7.242571	2.661046
O	0.518831	-2.941447	3.934410
O	0.909352	-5.169576	-4.188059
O	0.154583	-0.865129	-2.940845
C	0.962688	-5.479882	4.667206
H	1.152619	-6.563651	4.712423
H	0.009812	-5.224773	5.169231
H	1.771476	-4.915854	5.169992
C	0.449351	-2.548170	-4.904229
H	0.603867	-3.430587	-5.546833
H	1.222168	-1.779783	-5.095998
H	-0.538644	-2.088191	-5.095858
C	0.000000	0.000000	0.000000
S	0.509686	0.607733	1.580530
C	1.562368	1.862312	0.904911
C	0.641367	0.764613	-0.985400
C	1.489926	1.776040	-0.493528
H	0.489914	0.584081	-2.059934
H	2.056124	2.450920	-1.152593
H	2.128395	2.537007	1.556025
H	2.161481	-7.094026	-0.149881
H	0.391832	-7.405660	-0.150656
H	1.320388	-1.268824	0.000531
$end

$rem
JOBTYPE		SP
EXCHANGE	HF
CORRELATION	pRIMP2
BASIS		cc-pvtz
METHOD		rimp2
AUX_BASIS	rimp2-cc-pvtz
SOLVENT_METHOD	PCM
PURECART	11111
SYMMETRY	false
MEM_TOTAL	110000
SCF_CONVERGENCE = 6
THRESH=10
GUI = 2
$end

$solvent
dielectric 4.90
$end
--------------------------------------------------------------

             Standard Nuclear Orientation (Angstroms)
    I     Atom           X                Y                Z
 ----------------------------------------------------------------
    1      C       1.1691770000    -6.6392430000    -0.2569270000
    2      C       1.0673370000    -6.0623990000    -1.5626750000
    3      C       1.0037730000    -5.7038030000     0.8271970000
    4      C       0.8328160000    -4.7310440000    -1.8412530000
    5      H       1.1827770000    -6.7181950000    -2.4407090000
    6      C       0.7591350000    -4.3123300000     0.5354880000
    7      C       0.6656080000    -3.7798760000    -0.7949990000
    8      C       0.5920240000    -3.3613240000     1.5805290000
    9      C       0.4211690000    -2.3896410000    -1.0843740000
   10      C       0.3575570000    -2.0280700000     1.3052580000
   11      C       0.2566900000    -1.4557590000     0.0000000000
   12      H       0.2425650000    -1.3735300000     2.1842670000
   13      C       1.0708200000    -6.0946320000     2.2697190000
   14      C       0.6587880000    -3.7405950000     3.0111520000
   15      N       0.8953340000    -5.0918870000     3.2546170000
   16      C       0.7669790000    -4.3580100000    -3.2757750000
   17      C       0.3542240000    -2.0055860000    -2.5279510000
   18      N       0.5290860000    -3.0029020000    -3.5131040000
   19      O       1.2703360000    -7.2425710000     2.6610460000
   20      O       0.5188310000    -2.9414470000     3.9344100000
   21      O       0.9093520000    -5.1695760000    -4.1880590000
   22      O       0.1545830000    -0.8651290000    -2.9408450000
   23      C       0.9626880000    -5.4798820000     4.6672060000
   24      H       1.1526190000    -6.5636510000     4.7124230000
   25      H       0.0098120000    -5.2247730000     5.1692310000
   26      H       1.7714760000    -4.9158540000     5.1699920000
   27      C       0.4493510000    -2.5481700000    -4.9042290000
   28      H       0.6038670000    -3.4305870000    -5.5468330000
   29      H       1.2221680000    -1.7797830000    -5.0959980000
   30      H      -0.5386440000    -2.0881910000    -5.0958580000
   31      C       0.0000000000     0.0000000000     0.0000000000
   32      S       0.5096860000     0.6077330000     1.5805300000
   33      C       1.5623680000     1.8623120000     0.9049110000
   34      C       0.6413670000     0.7646130000    -0.9854000000
   35      C       1.4899260000     1.7760400000    -0.4935280000
   36      H       0.4899140000     0.5840810000    -2.0599340000
   37      H       2.0561240000     2.4509200000    -1.1525930000
   38      H       2.1283950000     2.5370070000     1.5560250000
   39      H       2.1614810000    -7.0940260000    -0.1498810000
   40      H       0.3918320000    -7.4056600000    -0.1506560000
   41      H       1.3203880000    -1.2688240000     0.0005310000
 ----------------------------------------------------------------

   11   -1571.6711121037      5.41e-07  Convergence criterion met
 Total energy in the final basis set =    -1571.6711121037
        RIMP2         total energy =     -1576.3438218650 a.u.

                    Orbital Energies (a.u.)
 --------------------------------------------------------------

 Alpha MOs
 -- Occupied --
-91.9861 -20.5542 -20.5456 -20.5400 -20.5391 -15.6296 -15.6200 -11.3989
-11.3863 -11.3820 -11.3773 -11.3078 -11.3038 -11.3031 -11.3027 -11.2966
-11.2929 -11.2872 -11.2790 -11.2681 -11.2669 -11.2646 -11.2620 -11.2586
-11.2521 -11.2483 -11.2447  -8.9877  -6.6684  -6.6676  -6.6672  -1.4261
 -1.4108  -1.4008  -1.3899  -1.2653  -1.2543  -1.2332  -1.1926  -1.1499
 -1.1130  -1.0846  -1.0475  -0.9978  -0.9903  -0.9878  -0.9550  -0.9470
 -0.8970  -0.8885  -0.8770  -0.8595  -0.7948  -0.7817  -0.7724  -0.7610
 -0.7385  -0.7259  -0.7005  -0.6902  -0.6845  -0.6734  -0.6678  -0.6572
 -0.6490  -0.6483  -0.6368  -0.6310  -0.6304  -0.6302  -0.6237  -0.6040
 -0.5941  -0.5712  -0.5701  -0.5624  -0.5582  -0.5523  -0.5514  -0.5479
 -0.5469  -0.5420  -0.5179  -0.5125  -0.5022  -0.4777  -0.4720  -0.4577
 -0.4557  -0.4477  -0.4411  -0.4346  -0.4162  -0.4070  -0.3603  -0.3449
 -0.3340  -0.2746

          Ground-State Mulliken Net Atomic Charges

     Atom                 Charge (a.u.)
  ----------------------------------------
      1 C                    -0.083883
      2 C                    -0.033070
      3 C                    -0.111364
      4 C                    -0.116354
      5 H                     0.198458
      6 C                     0.018432
      7 C                     0.119546
      8 C                    -0.045008
      9 C                    -0.218851
     10 C                    -0.155087
     11 C                     0.180729
     12 H                     0.186970
     13 C                     0.340620
     14 C                     0.343377
     15 N                    -0.089348
     16 C                     0.357206
     17 C                     0.386085
     18 N                    -0.088023
     19 O                    -0.496889
     20 O                    -0.509838
     21 O                    -0.500283
     22 O                    -0.478860
     23 C                    -0.205422
     24 H                     0.139192
     25 H                     0.109110
     26 H                     0.108790
     27 C                    -0.198955
     28 H                     0.134584
     29 H                     0.111324
     30 H                     0.112576
     31 C                    -0.048325
     32 S                     0.001683
     33 C                    -0.184367
     34 C                    -0.165992
     35 C                    -0.240871
     36 H                     0.239895
     37 H                     0.191636
     38 H                     0.215239
     39 H                     0.137130
     40 H                     0.137424
     41 H                     0.200786
  ----------------------------------------
  Sum of atomic charges =     0.000000

                    Cartesian Multipole Moments
 -----------------------------------------------------------------
    Charge (ESU x 10^10)
                 0.0000
    Dipole Moment (Debye)
         X       2.4092      Y       2.4385      Z      -2.4840
       Tot       4.2333
    Quadrupole Moments (Debye-Ang)
        XX    -158.2157     XY       9.2915     YY    -183.0153
        XZ      -1.3767     YZ      10.4356     ZZ    -188.4463

 Total job time:  305.40s(wall), 9276.49s(cpu)
        *  Thank you very much for using Q-Chem.  Have a nice day.  *
