 Q-Chem 5.4, Q-Chem, Inc., Pleasanton, CA (2021)
 Q-Chem 5.4.0 for Intel X86 EM64T Linux

User input:
--------------------------------------------------------------
$molecule
0 1
C	-0.221766	-6.741404	0.129743
C	-1.352515	-6.155638	0.782726
C	0.717339	-5.791452	-0.411926
C	-1.593885	-4.803786	0.921816
H	-2.112819	-6.821518	1.221908
C	0.464360	-4.378638	-0.266682
C	-0.688053	-3.838032	0.398255
C	1.369108	-3.413062	-0.789694
C	-0.939002	-2.426473	0.542349
C	1.130409	-2.059348	-0.652589
C	0.000000	-1.478216	0.000000
H	1.891446	-1.394783	-1.092453
C	1.967519	-6.187987	-1.131595
C	2.608118	-3.798164	-1.504912
N	2.819813	-5.170003	-1.625174
C	-2.836188	-4.424987	1.639129
C	-2.189558	-2.036627	1.263477
N	-3.042237	-3.049156	1.756898
O	2.307845	-7.353131	-1.324787
O	3.407213	-2.986854	-1.967354
O	-3.625890	-5.248946	2.095892
O	-2.547850	-0.878829	1.468685
C	4.043674	-5.563799	-2.330564
H	4.083407	-6.664085	-2.352178
H	4.925490	-5.147101	-1.807263
H	4.031877	-5.148785	-3.356568
C	-4.247206	-2.587487	2.452080
H	-4.803187	-3.483329	2.774302
H	-4.860536	-1.964972	1.773301
H	-3.966607	-1.962932	3.321351
C	0.000000	0.000000	0.000000
S	0.205093	0.766196	1.580530
C	0.628939	2.348114	0.904911
C	0.258137	0.964028	-0.985400
C	0.599745	2.239309	-0.493528
H	0.197169	0.736404	-2.059934
H	0.827678	3.090243	-1.152593
H	0.856796	3.198808	1.556025
H	-0.578191	-7.361589	-0.701693
H	0.319578	-7.361192	0.854838
H	-0.539540	-1.478831	-0.935572
$end

$rem
JOBTYPE		SP
EXCHANGE	HF
CORRELATION	pRIMP2
BASIS		cc-pvtz
METHOD		rimp2
AUX_BASIS	rimp2-cc-pvtz
SOLVENT_METHOD	PCM
PURECART	11111
SYMMETRY	false
MEM_TOTAL	110000
SCF_CONVERGENCE = 6
THRESH=10
GUI = 2
$end

$solvent
dielectric 4.90
$end
--------------------------------------------------------------

             Standard Nuclear Orientation (Angstroms)
    I     Atom           X                Y                Z
 ----------------------------------------------------------------
    1      C      -0.2217660000    -6.7414040000     0.1297430000
    2      C      -1.3525150000    -6.1556380000     0.7827260000
    3      C       0.7173390000    -5.7914520000    -0.4119260000
    4      C      -1.5938850000    -4.8037860000     0.9218160000
    5      H      -2.1128190000    -6.8215180000     1.2219080000
    6      C       0.4643600000    -4.3786380000    -0.2666820000
    7      C      -0.6880530000    -3.8380320000     0.3982550000
    8      C       1.3691080000    -3.4130620000    -0.7896940000
    9      C      -0.9390020000    -2.4264730000     0.5423490000
   10      C       1.1304090000    -2.0593480000    -0.6525890000
   11      C       0.0000000000    -1.4782160000     0.0000000000
   12      H       1.8914460000    -1.3947830000    -1.0924530000
   13      C       1.9675190000    -6.1879870000    -1.1315950000
   14      C       2.6081180000    -3.7981640000    -1.5049120000
   15      N       2.8198130000    -5.1700030000    -1.6251740000
   16      C      -2.8361880000    -4.4249870000     1.6391290000
   17      C      -2.1895580000    -2.0366270000     1.2634770000
   18      N      -3.0422370000    -3.0491560000     1.7568980000
   19      O       2.3078450000    -7.3531310000    -1.3247870000
   20      O       3.4072130000    -2.9868540000    -1.9673540000
   21      O      -3.6258900000    -5.2489460000     2.0958920000
   22      O      -2.5478500000    -0.8788290000     1.4686850000
   23      C       4.0436740000    -5.5637990000    -2.3305640000
   24      H       4.0834070000    -6.6640850000    -2.3521780000
   25      H       4.9254900000    -5.1471010000    -1.8072630000
   26      H       4.0318770000    -5.1487850000    -3.3565680000
   27      C      -4.2472060000    -2.5874870000     2.4520800000
   28      H      -4.8031870000    -3.4833290000     2.7743020000
   29      H      -4.8605360000    -1.9649720000     1.7733010000
   30      H      -3.9666070000    -1.9629320000     3.3213510000
   31      C       0.0000000000     0.0000000000     0.0000000000
   32      S       0.2050930000     0.7661960000     1.5805300000
   33      C       0.6289390000     2.3481140000     0.9049110000
   34      C       0.2581370000     0.9640280000    -0.9854000000
   35      C       0.5997450000     2.2393090000    -0.4935280000
   36      H       0.1971690000     0.7364040000    -2.0599340000
   37      H       0.8276780000     3.0902430000    -1.1525930000
   38      H       0.8567960000     3.1988080000     1.5560250000
   39      H      -0.5781910000    -7.3615890000    -0.7016930000
   40      H       0.3195780000    -7.3611920000     0.8548380000
   41      H      -0.5395400000    -1.4788310000    -0.9355720000
 ----------------------------------------------------------------

   11   -1571.7444999509      5.56e-07  Convergence criterion met
 Total energy in the final basis set =    -1571.7444999509
        RIMP2         total energy =     -1576.4005568480 a.u.

                    Orbital Energies (a.u.)
 --------------------------------------------------------------

 Alpha MOs
 -- Occupied --
-91.9848 -20.5522 -20.5445 -20.5418 -20.5407 -15.6269 -15.6215 -11.3936
-11.3852 -11.3837 -11.3794 -11.3094 -11.3093 -11.3057 -11.3049 -11.2975
-11.2969 -11.2905 -11.2801 -11.2692 -11.2683 -11.2647 -11.2627 -11.2596
-11.2571 -11.2529 -11.2496  -8.9846  -6.6654  -6.6648  -6.6643  -1.4197
 -1.4124  -1.3974  -1.3915  -1.2622  -1.2556  -1.2302  -1.1865  -1.1521
 -1.1144  -1.0867  -1.0470  -0.9953  -0.9879  -0.9832  -0.9552  -0.9508
 -0.8966  -0.8881  -0.8769  -0.8601  -0.7942  -0.7769  -0.7713  -0.7623
 -0.7405  -0.7171  -0.7040  -0.6918  -0.6808  -0.6729  -0.6668  -0.6573
 -0.6473  -0.6450  -0.6365  -0.6330  -0.6310  -0.6279  -0.6215  -0.6049
 -0.5847  -0.5753  -0.5672  -0.5617  -0.5578  -0.5514  -0.5507  -0.5480
 -0.5467  -0.5438  -0.5210  -0.5141  -0.5095  -0.4822  -0.4745  -0.4610
 -0.4570  -0.4511  -0.4429  -0.4348  -0.4133  -0.4076  -0.3533  -0.3512
 -0.3290  -0.2866

          Ground-State Mulliken Net Atomic Charges

     Atom                 Charge (a.u.)
  ----------------------------------------
      1 C                    -0.084173
      2 C                    -0.030295
      3 C                    -0.111504
      4 C                    -0.123745
      5 H                     0.199173
      6 C                     0.024308
      7 C                     0.118766
      8 C                    -0.088837
      9 C                    -0.163022
     10 C                    -0.132384
     11 C                     0.180719
     12 H                     0.198107
     13 C                     0.342656
     14 C                     0.346305
     15 N                    -0.089872
     16 C                     0.357120
     17 C                     0.341851
     18 N                    -0.091256
     19 O                    -0.494440
     20 O                    -0.507605
     21 O                    -0.501401
     22 O                    -0.469413
     23 C                    -0.204797
     24 H                     0.139529
     25 H                     0.109369
     26 H                     0.108873
     27 C                    -0.197062
     28 H                     0.133177
     29 H                     0.111535
     30 H                     0.112024
     31 C                     0.004817
     32 S                     0.027206
     33 C                    -0.213107
     34 C                    -0.221981
     35 C                    -0.202220
     36 H                     0.190691
     37 H                     0.190821
     38 H                     0.209444
     39 H                     0.137509
     40 H                     0.138076
     41 H                     0.205040
  ----------------------------------------
  Sum of atomic charges =     0.000000

                    Cartesian Multipole Moments
 -----------------------------------------------------------------
    Charge (ESU x 10^10)
                 0.0000
    Dipole Moment (Debye)
         X      -0.8256      Y       1.9851      Z      -1.2092
       Tot       2.4667
    Quadrupole Moments (Debye-Ang)
        XX    -186.8280     XY      11.1123     YY    -178.2554
        XZ      14.4679     YZ      -2.7029     ZZ    -164.6392

 Total job time:  308.49s(wall), 8897.66s(cpu)
        *  Thank you very much for using Q-Chem.  Have a nice day.  *
