 Q-Chem 5.4, Q-Chem, Inc., Pleasanton, CA (2021)
 Q-Chem 5.4.0 for Intel X86 EM64T Linux

User input:
--------------------------------------------------------------
$molecule
0 1
C	0.223244	-6.741404	0.127184
C	1.354118	-6.155638	0.779949
C	-0.715408	-5.791452	-0.415271
C	1.595259	-4.803786	0.919437
H	2.114613	-6.821518	1.218801
C	-0.463133	-4.378638	-0.268806
C	0.688925	-3.838032	0.396744
C	-1.368449	-3.413062	-0.790835
C	0.939189	-2.426473	0.542026
C	-1.130363	-2.059348	-0.652669
C	0.000000	-1.478216	0.000000
H	-1.891815	-1.394783	-1.091814
C	-1.963749	-6.187987	-1.138124
C	-2.607351	-3.798164	-1.506241
N	-2.817348	-5.170003	-1.629443
C	2.837621	-4.424987	1.636646
C	2.188982	-2.036627	1.264474
N	3.042637	-3.049156	1.756205
O	-2.301222	-7.353131	-1.336258
O	-3.407386	-2.986854	-1.967056
O	3.628041	-5.248946	2.092167
O	2.545844	-0.878829	1.472160
C	-4.040164	-5.563799	-2.336642
H	-4.078749	-6.664085	-2.360245
H	-4.027880	-5.147101	-3.361968
H	-4.922811	-5.148785	-1.813424
C	4.247167	-2.587487	2.452149
H	4.804209	-3.483329	2.772531
H	3.965991	-1.964972	3.322697
H	4.859678	-1.962932	1.774507
C	0.000000	0.000000	0.000000
S	0.068929	0.790170	1.580530
C	0.211639	2.421655	0.904911
C	0.086813	0.994207	-0.985400
C	0.201782	2.309433	-0.493528
H	0.066299	0.759454	-2.059934
H	0.278488	3.187020	-1.152593
H	0.288312	3.298992	1.556025
H	-0.318588	-7.361589	0.851574
H	0.580522	-7.361192	-0.704181
H	-0.540459	-1.478831	0.935042
$end

$rem
JOBTYPE		SP
EXCHANGE	HF
CORRELATION	pRIMP2
BASIS		cc-pvtz
METHOD		rimp2
AUX_BASIS	rimp2-cc-pvtz
SOLVENT_METHOD	PCM
PURECART	11111
SYMMETRY	false
MEM_TOTAL	110000
SCF_CONVERGENCE = 6
THRESH=10
GUI = 2
$end

$solvent
dielectric 4.90
$end
--------------------------------------------------------------

             Standard Nuclear Orientation (Angstroms)
    I     Atom           X                Y                Z
 ----------------------------------------------------------------
    1      C       0.2232440000    -6.7414040000     0.1271840000
    2      C       1.3541180000    -6.1556380000     0.7799490000
    3      C      -0.7154080000    -5.7914520000    -0.4152710000
    4      C       1.5952590000    -4.8037860000     0.9194370000
    5      H       2.1146130000    -6.8215180000     1.2188010000
    6      C      -0.4631330000    -4.3786380000    -0.2688060000
    7      C       0.6889250000    -3.8380320000     0.3967440000
    8      C      -1.3684490000    -3.4130620000    -0.7908350000
    9      C       0.9391890000    -2.4264730000     0.5420260000
   10      C      -1.1303630000    -2.0593480000    -0.6526690000
   11      C       0.0000000000    -1.4782160000     0.0000000000
   12      H      -1.8918150000    -1.3947830000    -1.0918140000
   13      C      -1.9637490000    -6.1879870000    -1.1381240000
   14      C      -2.6073510000    -3.7981640000    -1.5062410000
   15      N      -2.8173480000    -5.1700030000    -1.6294430000
   16      C       2.8376210000    -4.4249870000     1.6366460000
   17      C       2.1889820000    -2.0366270000     1.2644740000
   18      N       3.0426370000    -3.0491560000     1.7562050000
   19      O      -2.3012220000    -7.3531310000    -1.3362580000
   20      O      -3.4073860000    -2.9868540000    -1.9670560000
   21      O       3.6280410000    -5.2489460000     2.0921670000
   22      O       2.5458440000    -0.8788290000     1.4721600000
   23      C      -4.0401640000    -5.5637990000    -2.3366420000
   24      H      -4.0787490000    -6.6640850000    -2.3602450000
   25      H      -4.0278800000    -5.1471010000    -3.3619680000
   26      H      -4.9228110000    -5.1487850000    -1.8134240000
   27      C       4.2471670000    -2.5874870000     2.4521490000
   28      H       4.8042090000    -3.4833290000     2.7725310000
   29      H       3.9659910000    -1.9649720000     3.3226970000
   30      H       4.8596780000    -1.9629320000     1.7745070000
   31      C       0.0000000000     0.0000000000     0.0000000000
   32      S       0.0689290000     0.7901700000     1.5805300000
   33      C       0.2116390000     2.4216550000     0.9049110000
   34      C       0.0868130000     0.9942070000    -0.9854000000
   35      C       0.2017820000     2.3094330000    -0.4935280000
   36      H       0.0662990000     0.7594540000    -2.0599340000
   37      H       0.2784880000     3.1870200000    -1.1525930000
   38      H       0.2883120000     3.2989920000     1.5560250000
   39      H      -0.3185880000    -7.3615890000     0.8515740000
   40      H       0.5805220000    -7.3611920000    -0.7041810000
   41      H      -0.5404590000    -1.4788310000     0.9350420000
 ----------------------------------------------------------------

   11   -1571.7415358326      5.71e-07  Convergence criterion met
 Total energy in the final basis set =    -1571.7415358326
        RIMP2         total energy =     -1576.3979460628 a.u.

                    Orbital Energies (a.u.)
 --------------------------------------------------------------

 Alpha MOs
 -- Occupied --
-91.9865 -20.5502 -20.5442 -20.5420 -20.5408 -15.6263 -15.6214 -11.3924
-11.3848 -11.3838 -11.3793 -11.3088 -11.3085 -11.3052 -11.3048 -11.2965
-11.2938 -11.2895 -11.2808 -11.2695 -11.2681 -11.2647 -11.2625 -11.2595
-11.2530 -11.2528 -11.2481  -8.9864  -6.6671  -6.6666  -6.6661  -1.4190
 -1.4124  -1.3968  -1.3916  -1.2617  -1.2556  -1.2298  -1.1860  -1.1514
 -1.1142  -1.0865  -1.0467  -0.9948  -0.9878  -0.9824  -0.9549  -0.9507
 -0.8959  -0.8874  -0.8768  -0.8602  -0.7927  -0.7758  -0.7739  -0.7669
 -0.7347  -0.7174  -0.7034  -0.6911  -0.6785  -0.6704  -0.6676  -0.6571
 -0.6469  -0.6399  -0.6389  -0.6325  -0.6310  -0.6273  -0.6226  -0.6050
 -0.5847  -0.5745  -0.5660  -0.5614  -0.5575  -0.5512  -0.5505  -0.5480
 -0.5462  -0.5435  -0.5174  -0.5166  -0.5094  -0.4822  -0.4743  -0.4644
 -0.4563  -0.4503  -0.4428  -0.4348  -0.4129  -0.4076  -0.3528  -0.3481
 -0.3281  -0.2879

          Ground-State Mulliken Net Atomic Charges

     Atom                 Charge (a.u.)
  ----------------------------------------
      1 C                    -0.084669
      2 C                    -0.030284
      3 C                    -0.109743
      4 C                    -0.123712
      5 H                     0.198879
      6 C                     0.015165
      7 C                     0.119480
      8 C                    -0.099086
      9 C                    -0.184783
     10 C                    -0.125068
     11 C                     0.244778
     12 H                     0.194259
     13 C                     0.343275
     14 C                     0.351880
     15 N                    -0.090158
     16 C                     0.356245
     17 C                     0.364074
     18 N                    -0.090032
     19 O                    -0.493978
     20 O                    -0.507390
     21 O                    -0.501835
     22 O                    -0.466720
     23 C                    -0.204646
     24 H                     0.139496
     25 H                     0.109111
     26 H                     0.109163
     27 C                    -0.197339
     28 H                     0.133108
     29 H                     0.111238
     30 H                     0.111741
     31 C                    -0.079665
     32 S                     0.028487
     33 C                    -0.213941
     34 C                    -0.177616
     35 C                    -0.207784
     36 H                     0.190996
     37 H                     0.190114
     38 H                     0.211102
     39 H                     0.137767
     40 H                     0.137728
     41 H                     0.190365
  ----------------------------------------
  Sum of atomic charges =     0.000000

                    Cartesian Multipole Moments
 -----------------------------------------------------------------
    Charge (ESU x 10^10)
                 0.0000
    Dipole Moment (Debye)
         X       0.7359      Y       2.1215      Z       0.3030
       Tot       2.2659
    Quadrupole Moments (Debye-Ang)
        XX    -187.5847     XY      -5.6848     YY    -177.6815
        XZ     -13.9569     YZ      -4.6555     ZZ    -164.3441

 Total job time:  292.31s(wall), 8902.76s(cpu)
        *  Thank you very much for using Q-Chem.  Have a nice day.  *
