 Q-Chem 5.4, Q-Chem, Inc., Pleasanton, CA (2021)
 Q-Chem 5.4.0 for Intel X86 EM64T Linux

User input:
--------------------------------------------------------------
$molecule
0 1
C	-0.252767	-6.741404	0.046070
C	-1.538656	-6.155638	0.272935
C	0.814966	-5.791452	-0.141739
C	-1.813042	-4.803786	0.321083
H	-2.403318	-6.821518	0.425592
C	0.527566	-4.378638	-0.091779
C	-0.782769	-3.838032	0.138909
C	1.556632	-3.413062	-0.273808
C	-1.067868	-2.426473	0.188483
C	1.285436	-2.059348	-0.226610
C	0.000000	-1.478216	0.000000
H	2.151019	-1.394783	-0.379657
C	2.235891	-6.187987	-0.390420
C	2.965540	-3.798164	-0.522125
N	3.205600	-5.170003	-0.562731
C	-3.225760	-4.424987	0.570244
C	-2.489646	-2.036627	0.438407
N	-3.459662	-3.049156	0.610438
O	2.621768	-7.353131	-0.455563
O	3.874608	-2.986854	-0.683373
O	-4.124059	-5.248946	0.729367
O	-2.896516	-0.878829	0.508697
C	4.596910	-5.563799	-0.806996
H	4.641640	-6.664085	-0.813717
H	5.246567	-5.147101	-0.013655
H	4.936739	-5.148785	-1.775159
C	-4.829729	-2.587487	0.851572
H	-5.462387	-3.483329	0.964204
H	-5.173914	-1.964972	0.003956
H	-4.863360	-1.962932	1.764390
C	0.000000	0.000000	0.000000
S	0.396411	0.687007	1.580530
C	1.215245	2.105322	0.904911
C	0.498850	0.864369	-0.985400
C	1.158885	2.007781	-0.493528
H	0.381046	0.660280	-2.059934
H	1.599289	2.770727	-1.152593
H	1.655514	2.868056	1.556025
H	-0.303328	-7.361589	-0.857128
H	0.007933	-7.361192	0.912587
H	-0.187017	-1.478831	-1.063684
$end

$rem
JOBTYPE		SP
EXCHANGE	HF
CORRELATION	pRIMP2
BASIS		cc-pvtz
METHOD		rimp2
AUX_BASIS	rimp2-cc-pvtz
SOLVENT_METHOD	PCM
PURECART	11111
SYMMETRY	false
MEM_TOTAL	110000
SCF_CONVERGENCE = 6
THRESH=10
GUI = 2
$end

$solvent
dielectric 4.90
$end
--------------------------------------------------------------

             Standard Nuclear Orientation (Angstroms)
    I     Atom           X                Y                Z
 ----------------------------------------------------------------
    1      C      -0.2527670000    -6.7414040000     0.0460700000
    2      C      -1.5386560000    -6.1556380000     0.2729350000
    3      C       0.8149660000    -5.7914520000    -0.1417390000
    4      C      -1.8130420000    -4.8037860000     0.3210830000
    5      H      -2.4033180000    -6.8215180000     0.4255920000
    6      C       0.5275660000    -4.3786380000    -0.0917790000
    7      C      -0.7827690000    -3.8380320000     0.1389090000
    8      C       1.5566320000    -3.4130620000    -0.2738080000
    9      C      -1.0678680000    -2.4264730000     0.1884830000
   10      C       1.2854360000    -2.0593480000    -0.2266100000
   11      C       0.0000000000    -1.4782160000     0.0000000000
   12      H       2.1510190000    -1.3947830000    -0.3796570000
   13      C       2.2358910000    -6.1879870000    -0.3904200000
   14      C       2.9655400000    -3.7981640000    -0.5221250000
   15      N       3.2056000000    -5.1700030000    -0.5627310000
   16      C      -3.2257600000    -4.4249870000     0.5702440000
   17      C      -2.4896460000    -2.0366270000     0.4384070000
   18      N      -3.4596620000    -3.0491560000     0.6104380000
   19      O       2.6217680000    -7.3531310000    -0.4555630000
   20      O       3.8746080000    -2.9868540000    -0.6833730000
   21      O      -4.1240590000    -5.2489460000     0.7293670000
   22      O      -2.8965160000    -0.8788290000     0.5086970000
   23      C       4.5969100000    -5.5637990000    -0.8069960000
   24      H       4.6416400000    -6.6640850000    -0.8137170000
   25      H       5.2465670000    -5.1471010000    -0.0136550000
   26      H       4.9367390000    -5.1487850000    -1.7751590000
   27      C      -4.8297290000    -2.5874870000     0.8515720000
   28      H      -5.4623870000    -3.4833290000     0.9642040000
   29      H      -5.1739140000    -1.9649720000     0.0039560000
   30      H      -4.8633600000    -1.9629320000     1.7643900000
   31      C       0.0000000000     0.0000000000     0.0000000000
   32      S       0.3964110000     0.6870070000     1.5805300000
   33      C       1.2152450000     2.1053220000     0.9049110000
   34      C       0.4988500000     0.8643690000    -0.9854000000
   35      C       1.1588850000     2.0077810000    -0.4935280000
   36      H       0.3810460000     0.6602800000    -2.0599340000
   37      H       1.5992890000     2.7707270000    -1.1525930000
   38      H       1.6555140000     2.8680560000     1.5560250000
   39      H      -0.3033280000    -7.3615890000    -0.8571280000
   40      H       0.0079330000    -7.3611920000     0.9125870000
   41      H      -0.1870170000    -1.4788310000    -1.0636840000
 ----------------------------------------------------------------

   11   -1571.7372572579      5.41e-07  Convergence criterion met
 Total energy in the final basis set =    -1571.7372572579
        RIMP2         total energy =     -1576.3946581028 a.u.

                    Orbital Energies (a.u.)
 --------------------------------------------------------------

 Alpha MOs
 -- Occupied --
-91.9876 -20.5526 -20.5441 -20.5416 -20.5405 -15.6267 -15.6212 -11.3932
-11.3848 -11.3834 -11.3792 -11.3087 -11.3071 -11.3044 -11.3038 -11.2958
-11.2936 -11.2884 -11.2866 -11.2686 -11.2675 -11.2644 -11.2625 -11.2615
-11.2594 -11.2525 -11.2523  -8.9876  -6.6684  -6.6678  -6.6673  -1.4193
 -1.4121  -1.3970  -1.3913  -1.2618  -1.2553  -1.2298  -1.1881  -1.1529
 -1.1137  -1.0858  -1.0462  -0.9967  -0.9876  -0.9868  -0.9550  -0.9504
 -0.8963  -0.8873  -0.8760  -0.8590  -0.7946  -0.7768  -0.7705  -0.7640
 -0.7423  -0.7170  -0.7044  -0.6915  -0.6815  -0.6718  -0.6664  -0.6570
 -0.6468  -0.6436  -0.6358  -0.6332  -0.6306  -0.6272  -0.6214  -0.6047
 -0.5839  -0.5761  -0.5696  -0.5613  -0.5570  -0.5511  -0.5505  -0.5478
 -0.5464  -0.5434  -0.5225  -0.5131  -0.5066  -0.4819  -0.4751  -0.4617
 -0.4580  -0.4511  -0.4426  -0.4343  -0.4132  -0.4072  -0.3582  -0.3497
 -0.3294  -0.2892

          Ground-State Mulliken Net Atomic Charges

     Atom                 Charge (a.u.)
  ----------------------------------------
      1 C                    -0.084926
      2 C                    -0.032734
      3 C                    -0.111172
      4 C                    -0.119544
      5 H                     0.198473
      6 C                     0.020760
      7 C                     0.119556
      8 C                    -0.101291
      9 C                    -0.179543
     10 C                    -0.088393
     11 C                     0.131745
     12 H                     0.200122
     13 C                     0.343807
     14 C                     0.344292
     15 N                    -0.089823
     16 C                     0.356274
     17 C                     0.346831
     18 N                    -0.092453
     19 O                    -0.494613
     20 O                    -0.507558
     21 O                    -0.501572
     22 O                    -0.470692
     23 C                    -0.204958
     24 H                     0.139539
     25 H                     0.109313
     26 H                     0.108752
     27 C                    -0.197261
     28 H                     0.133028
     29 H                     0.111295
     30 H                     0.112017
     31 C                     0.045540
     32 S                     0.013155
     33 C                    -0.202837
     34 C                    -0.236282
     35 C                    -0.186008
     36 H                     0.188089
     37 H                     0.194041
     38 H                     0.211518
     39 H                     0.137142
     40 H                     0.137504
     41 H                     0.198867
  ----------------------------------------
  Sum of atomic charges =     0.000000

                    Cartesian Multipole Moments
 -----------------------------------------------------------------
    Charge (ESU x 10^10)
                 0.0000
    Dipole Moment (Debye)
         X       0.0950      Y       2.3121      Z      -1.6785
       Tot       2.8587
    Quadrupole Moments (Debye-Ang)
        XX    -192.2358     XY      13.8879     YY    -180.7856
        XZ       6.1144     YZ       0.3692     ZZ    -157.2112

 Total job time:  304.64s(wall), 9141.84s(cpu)
        *  Thank you very much for using Q-Chem.  Have a nice day.  *
