 Q-Chem 5.4, Q-Chem, Inc., Pleasanton, CA (2021)
 Q-Chem 5.4.0 for Intel X86 EM64T Linux

User input:
--------------------------------------------------------------
$molecule
0 1
C	-0.253280	-6.741404	-0.043160
C	-1.539213	-6.155638	-0.269777
C	0.814295	-5.791452	0.145543
C	-1.813519	-4.803786	-0.318377
H	-2.403941	-6.821518	-0.422058
C	0.527140	-4.378638	0.094194
C	-0.783072	-3.838032	-0.137191
C	1.556403	-3.413062	0.275104
C	-1.067932	-2.426473	-0.188116
C	1.285420	-2.059348	0.226701
C	0.000000	-1.478216	0.000000
H	2.151147	-1.394783	0.378931
C	2.234582	-6.187987	0.397845
C	2.965273	-3.798164	0.523637
N	3.204744	-5.170003	0.567586
C	-3.226257	-4.424987	-0.567421
C	-2.489446	-2.036627	-0.439541
N	-3.459801	-3.049156	-0.609650
O	2.619468	-7.353131	0.468608
O	3.874668	-2.986854	0.683034
O	-4.124806	-5.248946	-0.725131
O	-2.895819	-0.878829	-0.512648
C	4.595691	-5.563799	0.813908
H	4.640022	-6.664085	0.822891
H	4.934830	-5.147101	1.781600
H	5.246157	-5.148785	0.020360
C	-4.829716	-2.587487	-0.851649
H	-5.462742	-3.483329	-0.962191
H	-4.863242	-1.964972	-1.765865
H	-5.173521	-1.962932	-0.005383
C	0.000000	0.000000	0.000000
S	0.205093	0.766196	1.580530
C	0.628939	2.348114	0.904911
C	0.258137	0.964028	-0.985400
C	0.599745	2.239309	-0.493528
H	0.197169	0.736404	-2.059934
H	0.827678	3.090243	-1.152593
H	0.856796	3.198808	1.556025
H	0.008120	-7.361589	-0.909181
H	-0.304668	-7.361192	0.860264
H	0.188062	-1.478831	-1.063500
$end

$rem
JOBTYPE		SP
EXCHANGE	HF
CORRELATION	pRIMP2
BASIS		cc-pvtz
METHOD		rimp2
AUX_BASIS	rimp2-cc-pvtz
SOLVENT_METHOD	PCM
PURECART	11111
SYMMETRY	false
MEM_TOTAL	110000
SCF_CONVERGENCE = 6
THRESH=10
GUI = 2
$end

$solvent
dielectric 4.90
$end
--------------------------------------------------------------

             Standard Nuclear Orientation (Angstroms)
    I     Atom           X                Y                Z
 ----------------------------------------------------------------
    1      C      -0.2532800000    -6.7414040000    -0.0431600000
    2      C      -1.5392130000    -6.1556380000    -0.2697770000
    3      C       0.8142950000    -5.7914520000     0.1455430000
    4      C      -1.8135190000    -4.8037860000    -0.3183770000
    5      H      -2.4039410000    -6.8215180000    -0.4220580000
    6      C       0.5271400000    -4.3786380000     0.0941940000
    7      C      -0.7830720000    -3.8380320000    -0.1371910000
    8      C       1.5564030000    -3.4130620000     0.2751040000
    9      C      -1.0679320000    -2.4264730000    -0.1881160000
   10      C       1.2854200000    -2.0593480000     0.2267010000
   11      C       0.0000000000    -1.4782160000     0.0000000000
   12      H       2.1511470000    -1.3947830000     0.3789310000
   13      C       2.2345820000    -6.1879870000     0.3978450000
   14      C       2.9652730000    -3.7981640000     0.5236370000
   15      N       3.2047440000    -5.1700030000     0.5675860000
   16      C      -3.2262570000    -4.4249870000    -0.5674210000
   17      C      -2.4894460000    -2.0366270000    -0.4395410000
   18      N      -3.4598010000    -3.0491560000    -0.6096500000
   19      O       2.6194680000    -7.3531310000     0.4686080000
   20      O       3.8746680000    -2.9868540000     0.6830340000
   21      O      -4.1248060000    -5.2489460000    -0.7251310000
   22      O      -2.8958190000    -0.8788290000    -0.5126480000
   23      C       4.5956910000    -5.5637990000     0.8139080000
   24      H       4.6400220000    -6.6640850000     0.8228910000
   25      H       4.9348300000    -5.1471010000     1.7816000000
   26      H       5.2461570000    -5.1487850000     0.0203600000
   27      C      -4.8297160000    -2.5874870000    -0.8516490000
   28      H      -5.4627420000    -3.4833290000    -0.9621910000
   29      H      -4.8632420000    -1.9649720000    -1.7658650000
   30      H      -5.1735210000    -1.9629320000    -0.0053830000
   31      C       0.0000000000     0.0000000000     0.0000000000
   32      S       0.2050930000     0.7661960000     1.5805300000
   33      C       0.6289390000     2.3481140000     0.9049110000
   34      C       0.2581370000     0.9640280000    -0.9854000000
   35      C       0.5997450000     2.2393090000    -0.4935280000
   36      H       0.1971690000     0.7364040000    -2.0599340000
   37      H       0.8276780000     3.0902430000    -1.1525930000
   38      H       0.8567960000     3.1988080000     1.5560250000
   39      H       0.0081200000    -7.3615890000    -0.9091810000
   40      H      -0.3046680000    -7.3611920000     0.8602640000
   41      H       0.1880620000    -1.4788310000    -1.0635000000
 ----------------------------------------------------------------

   11   -1571.7475500860      5.45e-07  Convergence criterion met
 Total energy in the final basis set =    -1571.7475500860
        RIMP2         total energy =     -1576.4019563819 a.u.

                    Orbital Energies (a.u.)
 --------------------------------------------------------------

 Alpha MOs
 -- Occupied --
-91.9886 -20.5525 -20.5444 -20.5420 -20.5409 -15.6269 -15.6215 -11.3934
-11.3851 -11.3839 -11.3795 -11.3095 -11.3079 -11.3049 -11.3047 -11.2976
-11.2962 -11.2896 -11.2823 -11.2695 -11.2679 -11.2654 -11.2627 -11.2595
-11.2577 -11.2528 -11.2514  -8.9883  -6.6692  -6.6686  -6.6681  -1.4194
 -1.4125  -1.3972  -1.3916  -1.2620  -1.2556  -1.2299  -1.1870  -1.1528
 -1.1142  -1.0865  -1.0467  -0.9958  -0.9878  -0.9855  -0.9552  -0.9511
 -0.8966  -0.8877  -0.8765  -0.8598  -0.7954  -0.7773  -0.7708  -0.7623
 -0.7428  -0.7174  -0.7045  -0.6918  -0.6812  -0.6718  -0.6666  -0.6573
 -0.6471  -0.6438  -0.6360  -0.6331  -0.6309  -0.6277  -0.6221  -0.6046
 -0.5848  -0.5758  -0.5672  -0.5614  -0.5569  -0.5513  -0.5506  -0.5481
 -0.5473  -0.5436  -0.5197  -0.5164  -0.5087  -0.4831  -0.4754  -0.4626
 -0.4586  -0.4513  -0.4430  -0.4348  -0.4134  -0.4075  -0.3577  -0.3499
 -0.3283  -0.2901

          Ground-State Mulliken Net Atomic Charges

     Atom                 Charge (a.u.)
  ----------------------------------------
      1 C                    -0.084351
      2 C                    -0.031719
      3 C                    -0.111003
      4 C                    -0.121830
      5 H                     0.198615
      6 C                     0.016057
      7 C                     0.119540
      8 C                    -0.087779
      9 C                    -0.180684
     10 C                    -0.103102
     11 C                     0.159567
     12 H                     0.199980
     13 C                     0.343736
     14 C                     0.345697
     15 N                    -0.090284
     16 C                     0.357639
     17 C                     0.345845
     18 N                    -0.093008
     19 O                    -0.493822
     20 O                    -0.506562
     21 O                    -0.501611
     22 O                    -0.471936
     23 C                    -0.204752
     24 H                     0.139532
     25 H                     0.109378
     26 H                     0.109000
     27 C                    -0.196886
     28 H                     0.133101
     29 H                     0.111080
     30 H                     0.112210
     31 C                     0.015859
     32 S                     0.012794
     33 C                    -0.211826
     34 C                    -0.200500
     35 C                    -0.200711
     36 H                     0.184107
     37 H                     0.192703
     38 H                     0.210546
     39 H                     0.137488
     40 H                     0.137766
     41 H                     0.200129
  ----------------------------------------
  Sum of atomic charges =     0.000000

                    Cartesian Multipole Moments
 -----------------------------------------------------------------
    Charge (ESU x 10^10)
                 0.0000
    Dipole Moment (Debye)
         X      -0.1554      Y       2.1644      Z      -1.9838
       Tot       2.9401
    Quadrupole Moments (Debye-Ang)
        XX    -194.2271     XY      10.9763     YY    -178.0716
        XZ      -5.5147     YZ       3.3647     ZZ    -157.2679

 Total job time:  304.75s(wall), 8734.80s(cpu)
        *  Thank you very much for using Q-Chem.  Have a nice day.  *
