 Q-Chem 5.4, Q-Chem, Inc., Pleasanton, CA (2021)
 Q-Chem 5.4.0 for Intel X86 EM64T Linux

User input:
--------------------------------------------------------------
$molecule
0 1
C	-0.223244	-6.741404	-0.127184
C	-1.354118	-6.155638	-0.779949
C	0.715408	-5.791452	0.415271
C	-1.595259	-4.803786	-0.919437
H	-2.114613	-6.821518	-1.218801
C	0.463133	-4.378638	0.268806
C	-0.688925	-3.838032	-0.396744
C	1.368449	-3.413062	0.790835
C	-0.939189	-2.426473	-0.542026
C	1.130363	-2.059348	0.652669
C	-0.000000	-1.478216	-0.000000
H	1.891815	-1.394783	1.091814
C	1.963749	-6.187987	1.138124
C	2.607351	-3.798164	1.506241
N	2.817348	-5.170003	1.629443
C	-2.837621	-4.424987	-1.636646
C	-2.188982	-2.036627	-1.264474
N	-3.042637	-3.049156	-1.756205
O	2.301222	-7.353131	1.336258
O	3.407386	-2.986854	1.967056
O	-3.628041	-5.248946	-2.092167
O	-2.545844	-0.878829	-1.472160
C	4.040164	-5.563799	2.336642
H	4.078749	-6.664085	2.360245
H	4.027880	-5.147101	3.361968
H	4.922811	-5.148785	1.813424
C	-4.247167	-2.587487	-2.452149
H	-4.804209	-3.483329	-2.772531
H	-3.965991	-1.964972	-3.322697
H	-4.859678	-1.962932	-1.774507
C	0.000000	0.000000	0.000000
S	-0.000201	0.793171	1.580530
C	-0.000228	2.430885	0.904911
C	-0.000168	0.997990	-0.985400
C	-0.000267	2.318231	-0.493528
H	-0.000145	0.762343	-2.059934
H	-0.000339	3.199164	-1.152593
H	-0.000311	3.311566	1.556025
H	0.318588	-7.361589	-0.851574
H	-0.580522	-7.361192	0.704181
H	0.540459	-1.478831	-0.935042
$end

$rem
JOBTYPE		SP
EXCHANGE	HF
CORRELATION	pRIMP2
BASIS		cc-pvtz
METHOD		rimp2
AUX_BASIS	rimp2-cc-pvtz
SOLVENT_METHOD	PCM
PURECART	11111
SYMMETRY	false
MEM_TOTAL	110000
SCF_CONVERGENCE = 6
THRESH=10
GUI = 2
$end

$solvent
dielectric 4.90
$end
--------------------------------------------------------------

             Standard Nuclear Orientation (Angstroms)
    I     Atom           X                Y                Z
 ----------------------------------------------------------------
    1      C      -0.2232440000    -6.7414040000    -0.1271840000
    2      C      -1.3541180000    -6.1556380000    -0.7799490000
    3      C       0.7154080000    -5.7914520000     0.4152710000
    4      C      -1.5952590000    -4.8037860000    -0.9194370000
    5      H      -2.1146130000    -6.8215180000    -1.2188010000
    6      C       0.4631330000    -4.3786380000     0.2688060000
    7      C      -0.6889250000    -3.8380320000    -0.3967440000
    8      C       1.3684490000    -3.4130620000     0.7908350000
    9      C      -0.9391890000    -2.4264730000    -0.5420260000
   10      C       1.1303630000    -2.0593480000     0.6526690000
   11      C       0.0000000000    -1.4782160000     0.0000000000
   12      H       1.8918150000    -1.3947830000     1.0918140000
   13      C       1.9637490000    -6.1879870000     1.1381240000
   14      C       2.6073510000    -3.7981640000     1.5062410000
   15      N       2.8173480000    -5.1700030000     1.6294430000
   16      C      -2.8376210000    -4.4249870000    -1.6366460000
   17      C      -2.1889820000    -2.0366270000    -1.2644740000
   18      N      -3.0426370000    -3.0491560000    -1.7562050000
   19      O       2.3012220000    -7.3531310000     1.3362580000
   20      O       3.4073860000    -2.9868540000     1.9670560000
   21      O      -3.6280410000    -5.2489460000    -2.0921670000
   22      O      -2.5458440000    -0.8788290000    -1.4721600000
   23      C       4.0401640000    -5.5637990000     2.3366420000
   24      H       4.0787490000    -6.6640850000     2.3602450000
   25      H       4.0278800000    -5.1471010000     3.3619680000
   26      H       4.9228110000    -5.1487850000     1.8134240000
   27      C      -4.2471670000    -2.5874870000    -2.4521490000
   28      H      -4.8042090000    -3.4833290000    -2.7725310000
   29      H      -3.9659910000    -1.9649720000    -3.3226970000
   30      H      -4.8596780000    -1.9629320000    -1.7745070000
   31      C       0.0000000000     0.0000000000     0.0000000000
   32      S      -0.0002010000     0.7931710000     1.5805300000
   33      C      -0.0002280000     2.4308850000     0.9049110000
   34      C      -0.0001680000     0.9979900000    -0.9854000000
   35      C      -0.0002670000     2.3182310000    -0.4935280000
   36      H      -0.0001450000     0.7623430000    -2.0599340000
   37      H      -0.0003390000     3.1991640000    -1.1525930000
   38      H      -0.0003110000     3.3115660000     1.5560250000
   39      H       0.3185880000    -7.3615890000    -0.8515740000
   40      H      -0.5805220000    -7.3611920000     0.7041810000
   41      H       0.5404590000    -1.4788310000    -0.9350420000
 ----------------------------------------------------------------

   11   -1571.7483107431      5.58e-07  Convergence criterion met
 Total energy in the final basis set =    -1571.7483107431
        RIMP2         total energy =     -1576.4031618850 a.u.

                    Orbital Energies (a.u.)
 --------------------------------------------------------------

 Alpha MOs
 -- Occupied --
-91.9893 -20.5518 -20.5445 -20.5419 -20.5409 -15.6269 -15.6214 -11.3933
-11.3851 -11.3837 -11.3795 -11.3092 -11.3083 -11.3054 -11.3048 -11.2967
-11.2964 -11.2901 -11.2802 -11.2694 -11.2681 -11.2657 -11.2630 -11.2594
-11.2541 -11.2528 -11.2503  -8.9889  -6.6698  -6.6693  -6.6687  -1.4194
 -1.4124  -1.3971  -1.3916  -1.2621  -1.2556  -1.2299  -1.1862  -1.1523
 -1.1143  -1.0867  -1.0469  -0.9950  -0.9879  -0.9840  -0.9552  -0.9511
 -0.8966  -0.8879  -0.8769  -0.8602  -0.7954  -0.7774  -0.7709  -0.7605
 -0.7419  -0.7169  -0.7038  -0.6916  -0.6805  -0.6717  -0.6666  -0.6573
 -0.6470  -0.6439  -0.6369  -0.6325  -0.6309  -0.6277  -0.6224  -0.6044
 -0.5858  -0.5747  -0.5655  -0.5611  -0.5567  -0.5513  -0.5505  -0.5485
 -0.5477  -0.5437  -0.5197  -0.5160  -0.5098  -0.4833  -0.4753  -0.4635
 -0.4580  -0.4513  -0.4430  -0.4348  -0.4133  -0.4075  -0.3550  -0.3512
 -0.3286  -0.2868

          Ground-State Mulliken Net Atomic Charges

     Atom                 Charge (a.u.)
  ----------------------------------------
      1 C                    -0.085293
      2 C                    -0.030017
      3 C                    -0.110225
      4 C                    -0.125306
      5 H                     0.198780
      6 C                     0.014578
      7 C                     0.116763
      8 C                    -0.093860
      9 C                    -0.177215
     10 C                    -0.129692
     11 C                     0.221303
     12 H                     0.198233
     13 C                     0.343513
     14 C                     0.350571
     15 N                    -0.090146
     16 C                     0.357671
     17 C                     0.348662
     18 N                    -0.090051
     19 O                    -0.493989
     20 O                    -0.506579
     21 O                    -0.501650
     22 O                    -0.469046
     23 C                    -0.204622
     24 H                     0.139453
     25 H                     0.109434
     26 H                     0.109048
     27 C                    -0.197229
     28 H                     0.133334
     29 H                     0.110675
     30 H                     0.112217
     31 C                    -0.043193
     32 S                     0.015286
     33 C                    -0.213817
     34 C                    -0.171182
     35 C                    -0.209326
     36 H                     0.182390
     37 H                     0.190811
     38 H                     0.210680
     39 H                     0.137533
     40 H                     0.137710
     41 H                     0.203790
  ----------------------------------------
  Sum of atomic charges =     0.000000

                    Cartesian Multipole Moments
 -----------------------------------------------------------------
    Charge (ESU x 10^10)
                 0.0000
    Dipole Moment (Debye)
         X      -0.3502      Y       2.1296      Z      -2.2446
       Tot       3.1139
    Quadrupole Moments (Debye-Ang)
        XX    -187.6426     XY       6.6590     YY    -177.4991
        XZ     -14.4141     YZ       6.0061     ZZ    -164.6319

 Total job time:  303.86s(wall), 8686.18s(cpu)
        *  Thank you very much for using Q-Chem.  Have a nice day.  *
