 Q-Chem 5.4, Q-Chem, Inc., Pleasanton, CA (2021)
 Q-Chem 5.4.0 for Intel X86 EM64T Linux

User input:
--------------------------------------------------------------
$molecule
0 1
C	-0.256927	-6.741404	0.001478
C	-1.562675	-6.155638	0.001603
C	0.827197	-5.791452	0.001931
C	-1.841253	-4.803786	0.001374
H	-2.440709	-6.821518	0.001794
C	0.535488	-4.378638	0.001227
C	-0.794999	-3.838032	0.000872
C	1.580529	-3.413062	0.000658
C	-1.084374	-2.426473	0.000186
C	1.305258	-2.059348	0.000046
C	-0.000000	-1.478216	-0.000000
H	2.184267	-1.394783	-0.000369
C	2.269719	-6.187987	0.003770
C	3.011152	-3.798164	0.000767
N	3.254617	-5.170003	0.002465
C	-3.275775	-4.424987	0.001433
C	-2.527951	-2.036627	-0.000576
N	-3.513104	-3.049156	0.000400
O	2.661046	-7.353131	0.006623
O	3.934410	-2.986854	-0.000172
O	-4.188059	-5.248946	0.002151
O	-2.940845	-0.878829	-0.002006
C	4.667206	-5.563799	0.003509
H	4.712423	-6.664085	0.004658
H	5.169231	-5.147101	0.897610
H	5.169992	-5.148785	-0.890935
C	-4.904229	-2.587487	-0.000039
H	-5.546833	-3.483329	0.001022
H	-5.095998	-1.964972	-0.894545
H	-5.095858	-1.962932	0.893071
C	0.000000	0.000000	0.000000
S	0.335026	0.718942	1.580530
C	1.027130	2.203226	0.904911
C	0.421617	0.904557	-0.985400
C	0.979485	2.101144	-0.493528
H	0.322049	0.690978	-2.059934
H	1.351718	2.899571	-1.152593
H	1.399246	3.001430	1.556025
H	-0.149881	-7.361589	-0.896779
H	-0.150656	-7.361192	0.900100
H	0.000531	-1.478831	-1.080000
$end

$rem
JOBTYPE		SP
EXCHANGE	HF
CORRELATION	pRIMP2
BASIS		cc-pvtz
METHOD		rimp2
AUX_BASIS	rimp2-cc-pvtz
SOLVENT_METHOD	PCM
PURECART	11111
SYMMETRY	false
MEM_TOTAL	110000
SCF_CONVERGENCE = 6
THRESH=10
GUI = 2
$end

$solvent
dielectric 4.90
$end
--------------------------------------------------------------

             Standard Nuclear Orientation (Angstroms)
    I     Atom           X                Y                Z
 ----------------------------------------------------------------
    1      C      -0.2569270000    -6.7414040000     0.0014780000
    2      C      -1.5626750000    -6.1556380000     0.0016030000
    3      C       0.8271970000    -5.7914520000     0.0019310000
    4      C      -1.8412530000    -4.8037860000     0.0013740000
    5      H      -2.4407090000    -6.8215180000     0.0017940000
    6      C       0.5354880000    -4.3786380000     0.0012270000
    7      C      -0.7949990000    -3.8380320000     0.0008720000
    8      C       1.5805290000    -3.4130620000     0.0006580000
    9      C      -1.0843740000    -2.4264730000     0.0001860000
   10      C       1.3052580000    -2.0593480000     0.0000460000
   11      C       0.0000000000    -1.4782160000     0.0000000000
   12      H       2.1842670000    -1.3947830000    -0.0003690000
   13      C       2.2697190000    -6.1879870000     0.0037700000
   14      C       3.0111520000    -3.7981640000     0.0007670000
   15      N       3.2546170000    -5.1700030000     0.0024650000
   16      C      -3.2757750000    -4.4249870000     0.0014330000
   17      C      -2.5279510000    -2.0366270000    -0.0005760000
   18      N      -3.5131040000    -3.0491560000     0.0004000000
   19      O       2.6610460000    -7.3531310000     0.0066230000
   20      O       3.9344100000    -2.9868540000    -0.0001720000
   21      O      -4.1880590000    -5.2489460000     0.0021510000
   22      O      -2.9408450000    -0.8788290000    -0.0020060000
   23      C       4.6672060000    -5.5637990000     0.0035090000
   24      H       4.7124230000    -6.6640850000     0.0046580000
   25      H       5.1692310000    -5.1471010000     0.8976100000
   26      H       5.1699920000    -5.1487850000    -0.8909350000
   27      C      -4.9042290000    -2.5874870000    -0.0000390000
   28      H      -5.5468330000    -3.4833290000     0.0010220000
   29      H      -5.0959980000    -1.9649720000    -0.8945450000
   30      H      -5.0958580000    -1.9629320000     0.8930710000
   31      C       0.0000000000     0.0000000000     0.0000000000
   32      S       0.3350260000     0.7189420000     1.5805300000
   33      C       1.0271300000     2.2032260000     0.9049110000
   34      C       0.4216170000     0.9045570000    -0.9854000000
   35      C       0.9794850000     2.1011440000    -0.4935280000
   36      H       0.3220490000     0.6909780000    -2.0599340000
   37      H       1.3517180000     2.8995710000    -1.1525930000
   38      H       1.3992460000     3.0014300000     1.5560250000
   39      H      -0.1498810000    -7.3615890000    -0.8967790000
   40      H      -0.1506560000    -7.3611920000     0.9001000000
   41      H       0.0005310000    -1.4788310000    -1.0800000000
 ----------------------------------------------------------------

   11   -1571.7418568844      5.40e-07  Convergence criterion met
 Total energy in the final basis set =    -1571.7418568844
        RIMP2         total energy =     -1576.3978104823 a.u.

                    Orbital Energies (a.u.)
 --------------------------------------------------------------

 Alpha MOs
 -- Occupied --
-91.9881 -20.5525 -20.5442 -20.5418 -20.5407 -15.6267 -15.6213 -11.3932
-11.3848 -11.3836 -11.3793 -11.3090 -11.3071 -11.3045 -11.3039 -11.2957
-11.2955 -11.2888 -11.2849 -11.2690 -11.2676 -11.2649 -11.2626 -11.2600
-11.2595 -11.2524 -11.2522  -8.9880  -6.6688  -6.6683  -6.6677  -1.4193
 -1.4123  -1.3970  -1.3915  -1.2618  -1.2554  -1.2298  -1.1877  -1.1529
 -1.1138  -1.0859  -1.0462  -0.9963  -0.9875  -0.9864  -0.9551  -0.9506
 -0.8964  -0.8873  -0.8761  -0.8592  -0.7949  -0.7770  -0.7705  -0.7633
 -0.7426  -0.7172  -0.7044  -0.6915  -0.6814  -0.6717  -0.6664  -0.6571
 -0.6468  -0.6436  -0.6357  -0.6332  -0.6307  -0.6274  -0.6216  -0.6046
 -0.5842  -0.5760  -0.5686  -0.5613  -0.5569  -0.5512  -0.5505  -0.5479
 -0.5468  -0.5435  -0.5213  -0.5143  -0.5073  -0.4825  -0.4752  -0.4620
 -0.4585  -0.4512  -0.4428  -0.4344  -0.4132  -0.4073  -0.3585  -0.3493
 -0.3288  -0.2900

          Ground-State Mulliken Net Atomic Charges

     Atom                 Charge (a.u.)
  ----------------------------------------
      1 C                    -0.084710
      2 C                    -0.032845
      3 C                    -0.110988
      4 C                    -0.119618
      5 H                     0.198524
      6 C                     0.019162
      7 C                     0.119760
      8 C                    -0.096218
      9 C                    -0.179312
     10 C                    -0.089745
     11 C                     0.133348
     12 H                     0.201105
     13 C                     0.343981
     14 C                     0.343725
     15 N                    -0.090011
     16 C                     0.356823
     17 C                     0.346413
     18 N                    -0.092936
     19 O                    -0.494393
     20 O                    -0.506923
     21 O                    -0.501528
     22 O                    -0.470941
     23 C                    -0.204860
     24 H                     0.139504
     25 H                     0.109340
     26 H                     0.108869
     27 C                    -0.197107
     28 H                     0.133208
     29 H                     0.111082
     30 H                     0.112013
     31 C                     0.038927
     32 S                     0.011496
     33 C                    -0.207323
     34 C                    -0.220084
     35 C                    -0.191926
     36 H                     0.185549
     37 H                     0.193747
     38 H                     0.211077
     39 H                     0.137239
     40 H                     0.137565
     41 H                     0.199010
  ----------------------------------------
  Sum of atomic charges =     0.000000

                    Cartesian Multipole Moments
 -----------------------------------------------------------------
    Charge (ESU x 10^10)
                 0.0000
    Dipole Moment (Debye)
         X       0.0521      Y       2.2570      Z      -1.8429
       Tot       2.9143
    Quadrupole Moments (Debye-Ang)
        XX    -194.0716     XY      13.0231     YY    -179.7472
        XZ       0.3185     YZ       1.8993     ZZ    -156.2171

 Total job time:  305.04s(wall), 9576.08s(cpu)
        *  Thank you very much for using Q-Chem.  Have a nice day.  *
