 Q-Chem 5.4, Q-Chem, Inc., Pleasanton, CA (2021)
 Q-Chem 5.4.0 for Intel X86 EM64T Linux

User input:
--------------------------------------------------------------
$molecule
0 1
C	-0.129743	-6.741404	-0.221766
C	-0.782726	-6.155638	-1.352515
C	0.411926	-5.791452	0.717339
C	-0.921816	-4.803786	-1.593885
H	-1.221908	-6.821518	-2.112819
C	0.266682	-4.378638	0.464360
C	-0.398255	-3.838032	-0.688053
C	0.789694	-3.413062	1.369108
C	-0.542349	-2.426473	-0.939002
C	0.652589	-2.059348	1.130409
C	-0.000000	-1.478216	-0.000000
H	1.092453	-1.394783	1.891446
C	1.131595	-6.187987	1.967519
C	1.504912	-3.798164	2.608118
N	1.625174	-5.170003	2.819813
C	-1.639129	-4.424987	-2.836188
C	-1.263477	-2.036627	-2.189558
N	-1.756898	-3.049156	-3.042237
O	1.324787	-7.353131	2.307845
O	1.967354	-2.986854	3.407213
O	-2.095892	-5.248946	-3.625890
O	-1.468685	-0.878829	-2.547850
C	2.330564	-5.563799	4.043674
H	2.352178	-6.664085	4.083407
H	1.807263	-5.147101	4.925490
H	3.356568	-5.148785	4.031877
C	-2.452080	-2.587487	-4.247206
H	-2.774302	-3.483329	-4.803187
H	-1.773301	-1.964972	-4.860536
H	-3.321351	-1.962932	-3.966607
C	0.000000	0.000000	0.000000
S	0.335026	0.718942	1.580530
C	1.027130	2.203226	0.904911
C	0.421617	0.904557	-0.985400
C	0.979485	2.101144	-0.493528
H	0.322049	0.690978	-2.059934
H	1.351718	2.899571	-1.152593
H	1.399246	3.001430	1.556025
H	0.701693	-7.361589	-0.578191
H	-0.854838	-7.361192	0.319578
H	0.935572	-1.478831	-0.539540
$end

$rem
JOBTYPE		SP
EXCHANGE	HF
CORRELATION	pRIMP2
BASIS		cc-pvtz
METHOD		rimp2
AUX_BASIS	rimp2-cc-pvtz
SOLVENT_METHOD	PCM
PURECART	11111
SYMMETRY	false
MEM_TOTAL	110000
SCF_CONVERGENCE = 6
THRESH=10
GUI = 2
$end

$solvent
dielectric 4.90
$end
--------------------------------------------------------------

             Standard Nuclear Orientation (Angstroms)
    I     Atom           X                Y                Z
 ----------------------------------------------------------------
    1      C      -0.1297430000    -6.7414040000    -0.2217660000
    2      C      -0.7827260000    -6.1556380000    -1.3525150000
    3      C       0.4119260000    -5.7914520000     0.7173390000
    4      C      -0.9218160000    -4.8037860000    -1.5938850000
    5      H      -1.2219080000    -6.8215180000    -2.1128190000
    6      C       0.2666820000    -4.3786380000     0.4643600000
    7      C      -0.3982550000    -3.8380320000    -0.6880530000
    8      C       0.7896940000    -3.4130620000     1.3691080000
    9      C      -0.5423490000    -2.4264730000    -0.9390020000
   10      C       0.6525890000    -2.0593480000     1.1304090000
   11      C       0.0000000000    -1.4782160000     0.0000000000
   12      H       1.0924530000    -1.3947830000     1.8914460000
   13      C       1.1315950000    -6.1879870000     1.9675190000
   14      C       1.5049120000    -3.7981640000     2.6081180000
   15      N       1.6251740000    -5.1700030000     2.8198130000
   16      C      -1.6391290000    -4.4249870000    -2.8361880000
   17      C      -1.2634770000    -2.0366270000    -2.1895580000
   18      N      -1.7568980000    -3.0491560000    -3.0422370000
   19      O       1.3247870000    -7.3531310000     2.3078450000
   20      O       1.9673540000    -2.9868540000     3.4072130000
   21      O      -2.0958920000    -5.2489460000    -3.6258900000
   22      O      -1.4686850000    -0.8788290000    -2.5478500000
   23      C       2.3305640000    -5.5637990000     4.0436740000
   24      H       2.3521780000    -6.6640850000     4.0834070000
   25      H       1.8072630000    -5.1471010000     4.9254900000
   26      H       3.3565680000    -5.1487850000     4.0318770000
   27      C      -2.4520800000    -2.5874870000    -4.2472060000
   28      H      -2.7743020000    -3.4833290000    -4.8031870000
   29      H      -1.7733010000    -1.9649720000    -4.8605360000
   30      H      -3.3213510000    -1.9629320000    -3.9666070000
   31      C       0.0000000000     0.0000000000     0.0000000000
   32      S       0.3350260000     0.7189420000     1.5805300000
   33      C       1.0271300000     2.2032260000     0.9049110000
   34      C       0.4216170000     0.9045570000    -0.9854000000
   35      C       0.9794850000     2.1011440000    -0.4935280000
   36      H       0.3220490000     0.6909780000    -2.0599340000
   37      H       1.3517180000     2.8995710000    -1.1525930000
   38      H       1.3992460000     3.0014300000     1.5560250000
   39      H       0.7016930000    -7.3615890000    -0.5781910000
   40      H      -0.8548380000    -7.3611920000     0.3195780000
   41      H       0.9355720000    -1.4788310000    -0.5395400000
 ----------------------------------------------------------------

   11   -1571.7286169990      5.80e-07  Convergence criterion met
 Total energy in the final basis set =    -1571.7286169990
        RIMP2         total energy =     -1576.3892278116 a.u.

                    Orbital Energies (a.u.)
 --------------------------------------------------------------

 Alpha MOs
 -- Occupied --
-91.9908 -20.5535 -20.5449 -20.5412 -20.5404 -15.6278 -15.6211 -11.3949
-11.3856 -11.3831 -11.3789 -11.3086 -11.3058 -11.3049 -11.3042 -11.2976
-11.2968 -11.2911 -11.2802 -11.2684 -11.2682 -11.2647 -11.2635 -11.2592
-11.2526 -11.2503 -11.2487  -8.9910  -6.6718  -6.6713  -6.6707  -1.4210
 -1.4119  -1.3982  -1.3911  -1.2630  -1.2553  -1.2315  -1.1891  -1.1515
 -1.1141  -1.0865  -1.0474  -0.9962  -0.9881  -0.9863  -0.9552  -0.9493
 -0.8971  -0.8888  -0.8769  -0.8598  -0.7958  -0.7801  -0.7711  -0.7598
 -0.7396  -0.7164  -0.7017  -0.6920  -0.6832  -0.6721  -0.6673  -0.6573
 -0.6476  -0.6464  -0.6371  -0.6318  -0.6308  -0.6281  -0.6226  -0.6046
 -0.5901  -0.5741  -0.5660  -0.5611  -0.5579  -0.5519  -0.5503  -0.5496
 -0.5476  -0.5433  -0.5182  -0.5134  -0.5094  -0.4860  -0.4760  -0.4640
 -0.4574  -0.4516  -0.4427  -0.4347  -0.4141  -0.4075  -0.3543  -0.3520
 -0.3321  -0.2794

          Ground-State Mulliken Net Atomic Charges

     Atom                 Charge (a.u.)
  ----------------------------------------
      1 C                    -0.084554
      2 C                    -0.031220
      3 C                    -0.109825
      4 C                    -0.123367
      5 H                     0.198896
      6 C                     0.021479
      7 C                     0.119830
      8 C                    -0.056504
      9 C                    -0.189393
     10 C                    -0.172111
     11 C                     0.171083
     12 H                     0.189409
     13 C                     0.341251
     14 C                     0.346419
     15 N                    -0.089683
     16 C                     0.357119
     17 C                     0.355744
     18 N                    -0.090233
     19 O                    -0.495147
     20 O                    -0.507802
     21 O                    -0.501161
     22 O                    -0.475486
     23 C                    -0.205027
     24 H                     0.139416
     25 H                     0.109367
     26 H                     0.109026
     27 C                    -0.198032
     28 H                     0.133777
     29 H                     0.110813
     30 H                     0.112365
     31 C                     0.011137
     32 S                     0.004480
     33 C                    -0.201214
     34 C                    -0.161041
     35 C                    -0.229816
     36 H                     0.194746
     37 H                     0.190803
     38 H                     0.212970
     39 H                     0.137368
     40 H                     0.137647
     41 H                     0.216474
  ----------------------------------------
  Sum of atomic charges =     0.000000

                    Cartesian Multipole Moments
 -----------------------------------------------------------------
    Charge (ESU x 10^10)
                 0.0000
    Dipole Moment (Debye)
         X       1.1028      Y       1.9494      Z      -2.2481
       Tot       3.1734
    Quadrupole Moments (Debye-Ang)
        XX    -168.8990     XY       7.4261     YY    -180.1715
        XZ     -14.2092     YZ       9.0938     ZZ    -180.9873

 Total job time:  292.65s(wall), 9018.58s(cpu)
        *  Thank you very much for using Q-Chem.  Have a nice day.  *
