 Q-Chem 5.4, Q-Chem, Inc., Pleasanton, CA (2021)
 Q-Chem 5.4.0 for Intel X86 EM64T Linux

User input:
--------------------------------------------------------------
$molecule
0 1
C	0.001478	-6.741404	0.256927
C	0.001603	-6.155638	1.562675
C	0.001931	-5.791452	-0.827197
C	0.001374	-4.803786	1.841253
H	0.001794	-6.821518	2.440709
C	0.001227	-4.378638	-0.535488
C	0.000872	-3.838032	0.794999
C	0.000658	-3.413062	-1.580529
C	0.000186	-2.426473	1.084374
C	0.000046	-2.059348	-1.305258
C	0.000000	-1.478216	0.000000
H	-0.000369	-1.394783	-2.184267
C	0.003770	-6.187987	-2.269719
C	0.000767	-3.798164	-3.011152
N	0.002465	-5.170003	-3.254617
C	0.001433	-4.424987	3.275775
C	-0.000576	-2.036627	2.527951
N	0.000400	-3.049156	3.513104
O	0.006623	-7.353131	-2.661046
O	-0.000172	-2.986854	-3.934410
O	0.002151	-5.248946	4.188059
O	-0.002006	-0.878829	2.940845
C	0.003509	-5.563799	-4.667206
H	0.004658	-6.664085	-4.712423
H	0.897610	-5.147101	-5.169231
H	-0.890935	-5.148785	-5.169992
C	-0.000039	-2.587487	4.904229
H	0.001022	-3.483329	5.546833
H	-0.894545	-1.964972	5.095998
H	0.893071	-1.962932	5.095858
C	0.000000	0.000000	0.000000
S	0.068929	0.790170	1.580530
C	0.211639	2.421655	0.904911
C	0.086813	0.994207	-0.985400
C	0.201782	2.309433	-0.493528
H	0.066299	0.759454	-2.059934
H	0.278488	3.187020	-1.152593
H	0.288312	3.298992	1.556025
H	-0.896779	-7.361589	0.149881
H	0.900100	-7.361192	0.150656
H	-1.080000	-1.478831	-0.000531
$end

$rem
JOBTYPE		SP
EXCHANGE	HF
CORRELATION	pRIMP2
BASIS		cc-pvtz
METHOD		rimp2
AUX_BASIS	rimp2-cc-pvtz
SOLVENT_METHOD	PCM
PURECART	11111
SYMMETRY	false
MEM_TOTAL	110000
SCF_CONVERGENCE = 6
THRESH=10
GUI = 2
$end

$solvent
dielectric 4.90
$end
--------------------------------------------------------------

             Standard Nuclear Orientation (Angstroms)
    I     Atom           X                Y                Z
 ----------------------------------------------------------------
    1      C       0.0014780000    -6.7414040000     0.2569270000
    2      C       0.0016030000    -6.1556380000     1.5626750000
    3      C       0.0019310000    -5.7914520000    -0.8271970000
    4      C       0.0013740000    -4.8037860000     1.8412530000
    5      H       0.0017940000    -6.8215180000     2.4407090000
    6      C       0.0012270000    -4.3786380000    -0.5354880000
    7      C       0.0008720000    -3.8380320000     0.7949990000
    8      C       0.0006580000    -3.4130620000    -1.5805290000
    9      C       0.0001860000    -2.4264730000     1.0843740000
   10      C       0.0000460000    -2.0593480000    -1.3052580000
   11      C       0.0000000000    -1.4782160000     0.0000000000
   12      H      -0.0003690000    -1.3947830000    -2.1842670000
   13      C       0.0037700000    -6.1879870000    -2.2697190000
   14      C       0.0007670000    -3.7981640000    -3.0111520000
   15      N       0.0024650000    -5.1700030000    -3.2546170000
   16      C       0.0014330000    -4.4249870000     3.2757750000
   17      C      -0.0005760000    -2.0366270000     2.5279510000
   18      N       0.0004000000    -3.0491560000     3.5131040000
   19      O       0.0066230000    -7.3531310000    -2.6610460000
   20      O      -0.0001720000    -2.9868540000    -3.9344100000
   21      O       0.0021510000    -5.2489460000     4.1880590000
   22      O      -0.0020060000    -0.8788290000     2.9408450000
   23      C       0.0035090000    -5.5637990000    -4.6672060000
   24      H       0.0046580000    -6.6640850000    -4.7124230000
   25      H       0.8976100000    -5.1471010000    -5.1692310000
   26      H      -0.8909350000    -5.1487850000    -5.1699920000
   27      C      -0.0000390000    -2.5874870000     4.9042290000
   28      H       0.0010220000    -3.4833290000     5.5468330000
   29      H      -0.8945450000    -1.9649720000     5.0959980000
   30      H       0.8930710000    -1.9629320000     5.0958580000
   31      C       0.0000000000     0.0000000000     0.0000000000
   32      S       0.0689290000     0.7901700000     1.5805300000
   33      C       0.2116390000     2.4216550000     0.9049110000
   34      C       0.0868130000     0.9942070000    -0.9854000000
   35      C       0.2017820000     2.3094330000    -0.4935280000
   36      H       0.0662990000     0.7594540000    -2.0599340000
   37      H       0.2784880000     3.1870200000    -1.1525930000
   38      H       0.2883120000     3.2989920000     1.5560250000
   39      H      -0.8967790000    -7.3615890000     0.1498810000
   40      H       0.9001000000    -7.3611920000     0.1506560000
   41      H      -1.0800000000    -1.4788310000    -0.0005310000
 ----------------------------------------------------------------

   11   -1571.6937201504      6.00e-07  Convergence criterion met
 Total energy in the final basis set =    -1571.6937201504
        RIMP2         total energy =     -1576.3619648649 a.u.

                    Orbital Energies (a.u.)
 --------------------------------------------------------------

 Alpha MOs
 -- Occupied --
-91.9677 -20.5581 -20.5474 -20.5431 -20.5421 -15.6320 -15.6227 -11.4025
-11.3882 -11.3851 -11.3807 -11.3135 -11.3104 -11.3098 -11.3067 -11.3000
-11.2950 -11.2925 -11.2716 -11.2709 -11.2675 -11.2656 -11.2603 -11.2548
-11.2514 -11.2451 -11.2361  -8.9677  -6.6483  -6.6468  -6.6458  -1.4345
 -1.4136  -1.4042  -1.3928  -1.2690  -1.2571  -1.2323  -1.1857  -1.1453
 -1.1167  -1.0871  -1.0501  -0.9950  -0.9899  -0.9741  -0.9571  -0.9475
 -0.8996  -0.8920  -0.8806  -0.8639  -0.7927  -0.7829  -0.7766  -0.7578
 -0.7318  -0.7277  -0.7017  -0.6900  -0.6889  -0.6771  -0.6694  -0.6598
 -0.6524  -0.6469  -0.6383  -0.6347  -0.6336  -0.6328  -0.6237  -0.6067
 -0.5907  -0.5720  -0.5676  -0.5637  -0.5558  -0.5540  -0.5532  -0.5506
 -0.5490  -0.5461  -0.5214  -0.5140  -0.5127  -0.4881  -0.4808  -0.4649
 -0.4567  -0.4453  -0.4387  -0.4201  -0.4090  -0.3795  -0.3563  -0.3393
 -0.3264  -0.2765

          Ground-State Mulliken Net Atomic Charges

     Atom                 Charge (a.u.)
  ----------------------------------------
      1 C                    -0.084383
      2 C                    -0.029126
      3 C                    -0.104839
      4 C                    -0.119703
      5 H                     0.200117
      6 C                     0.024168
      7 C                     0.128322
      8 C                    -0.097452
      9 C                    -0.184673
     10 C                    -0.151766
     11 C                     0.212863
     12 H                     0.194104
     13 C                     0.342555
     14 C                     0.350219
     15 N                    -0.090387
     16 C                     0.358838
     17 C                     0.381026
     18 N                    -0.087015
     19 O                    -0.493280
     20 O                    -0.506891
     21 O                    -0.498541
     22 O                    -0.442524
     23 C                    -0.204712
     24 H                     0.139757
     25 H                     0.109719
     26 H                     0.109439
     27 C                    -0.199190
     28 H                     0.135436
     29 H                     0.112985
     30 H                     0.113599
     31 C                    -0.051606
     32 S                     0.075137
     33 C                    -0.269563
     34 C                    -0.179343
     35 C                    -0.247638
     36 H                     0.179654
     37 H                     0.178741
     38 H                     0.200481
     39 H                     0.138966
     40 H                     0.139409
     41 H                     0.217098
  ----------------------------------------
  Sum of atomic charges =     0.000000

                    Cartesian Multipole Moments
 -----------------------------------------------------------------
    Charge (ESU x 10^10)
                 0.0000
    Dipole Moment (Debye)
         X      -0.8365      Y      -0.2039      Z       1.2533
       Tot       1.5206
    Quadrupole Moments (Debye-Ang)
        XX    -162.5813     XY       2.0535     YY    -176.9710
        XZ       0.0242     YZ      -9.9440     ZZ    -185.8951

 Total job time:  300.49s(wall), 9337.41s(cpu)
        *  Thank you very much for using Q-Chem.  Have a nice day.  *
