 Q-Chem 5.4, Q-Chem, Inc., Pleasanton, CA (2021)
 Q-Chem 5.4.0 for Intel X86 EM64T Linux

User input:
--------------------------------------------------------------
$molecule
0 1
C	0.221766	-6.741404	-0.129743
C	1.352515	-6.155638	-0.782726
C	-0.717339	-5.791452	0.411926
C	1.593885	-4.803786	-0.921816
H	2.112819	-6.821518	-1.221908
C	-0.464360	-4.378638	0.266682
C	0.688053	-3.838032	-0.398255
C	-1.369108	-3.413062	0.789694
C	0.939002	-2.426473	-0.542349
C	-1.130409	-2.059348	0.652589
C	-0.000000	-1.478216	-0.000000
H	-1.891446	-1.394783	1.092453
C	-1.967519	-6.187987	1.131595
C	-2.608118	-3.798164	1.504912
N	-2.819813	-5.170003	1.625174
C	2.836188	-4.424987	-1.639129
C	2.189558	-2.036627	-1.263477
N	3.042237	-3.049156	-1.756898
O	-2.307845	-7.353131	1.324787
O	-3.407213	-2.986854	1.967354
O	3.625890	-5.248946	-2.095892
O	2.547850	-0.878829	-1.468685
C	-4.043674	-5.563799	2.330564
H	-4.083407	-6.664085	2.352178
H	-4.925490	-5.147101	1.807263
H	-4.031877	-5.148785	3.356568
C	4.247206	-2.587487	-2.452080
H	4.803187	-3.483329	-2.774302
H	4.860536	-1.964972	-1.773301
H	3.966607	-1.962932	-3.321351
C	0.000000	0.000000	0.000000
S	0.335026	0.718942	1.580530
C	1.027130	2.203226	0.904911
C	0.421617	0.904557	-0.985400
C	0.979485	2.101144	-0.493528
H	0.322049	0.690978	-2.059934
H	1.351718	2.899571	-1.152593
H	1.399246	3.001430	1.556025
H	0.578191	-7.361589	0.701693
H	-0.319578	-7.361192	-0.854838
H	0.539540	-1.478831	0.935572
$end

$rem
JOBTYPE		SP
EXCHANGE	HF
CORRELATION	pRIMP2
BASIS		cc-pvtz
METHOD		rimp2
AUX_BASIS	rimp2-cc-pvtz
SOLVENT_METHOD	PCM
PURECART	11111
SYMMETRY	false
MEM_TOTAL	110000
SCF_CONVERGENCE = 6
THRESH=10
GUI = 2
$end

$solvent
dielectric 4.90
$end
--------------------------------------------------------------

             Standard Nuclear Orientation (Angstroms)
    I     Atom           X                Y                Z
 ----------------------------------------------------------------
    1      C       0.2217660000    -6.7414040000    -0.1297430000
    2      C       1.3525150000    -6.1556380000    -0.7827260000
    3      C      -0.7173390000    -5.7914520000     0.4119260000
    4      C       1.5938850000    -4.8037860000    -0.9218160000
    5      H       2.1128190000    -6.8215180000    -1.2219080000
    6      C      -0.4643600000    -4.3786380000     0.2666820000
    7      C       0.6880530000    -3.8380320000    -0.3982550000
    8      C      -1.3691080000    -3.4130620000     0.7896940000
    9      C       0.9390020000    -2.4264730000    -0.5423490000
   10      C      -1.1304090000    -2.0593480000     0.6525890000
   11      C       0.0000000000    -1.4782160000     0.0000000000
   12      H      -1.8914460000    -1.3947830000     1.0924530000
   13      C      -1.9675190000    -6.1879870000     1.1315950000
   14      C      -2.6081180000    -3.7981640000     1.5049120000
   15      N      -2.8198130000    -5.1700030000     1.6251740000
   16      C       2.8361880000    -4.4249870000    -1.6391290000
   17      C       2.1895580000    -2.0366270000    -1.2634770000
   18      N       3.0422370000    -3.0491560000    -1.7568980000
   19      O      -2.3078450000    -7.3531310000     1.3247870000
   20      O      -3.4072130000    -2.9868540000     1.9673540000
   21      O       3.6258900000    -5.2489460000    -2.0958920000
   22      O       2.5478500000    -0.8788290000    -1.4686850000
   23      C      -4.0436740000    -5.5637990000     2.3305640000
   24      H      -4.0834070000    -6.6640850000     2.3521780000
   25      H      -4.9254900000    -5.1471010000     1.8072630000
   26      H      -4.0318770000    -5.1487850000     3.3565680000
   27      C       4.2472060000    -2.5874870000    -2.4520800000
   28      H       4.8031870000    -3.4833290000    -2.7743020000
   29      H       4.8605360000    -1.9649720000    -1.7733010000
   30      H       3.9666070000    -1.9629320000    -3.3213510000
   31      C       0.0000000000     0.0000000000     0.0000000000
   32      S       0.3350260000     0.7189420000     1.5805300000
   33      C       1.0271300000     2.2032260000     0.9049110000
   34      C       0.4216170000     0.9045570000    -0.9854000000
   35      C       0.9794850000     2.1011440000    -0.4935280000
   36      H       0.3220490000     0.6909780000    -2.0599340000
   37      H       1.3517180000     2.8995710000    -1.1525930000
   38      H       1.3992460000     3.0014300000     1.5560250000
   39      H       0.5781910000    -7.3615890000     0.7016930000
   40      H      -0.3195780000    -7.3611920000    -0.8548380000
   41      H       0.5395400000    -1.4788310000     0.9355720000
 ----------------------------------------------------------------

   11   -1571.7306194213      5.69e-07  Convergence criterion met
 Total energy in the final basis set =    -1571.7306194213
        RIMP2         total energy =     -1576.3885509705 a.u.

                    Orbital Energies (a.u.)
 --------------------------------------------------------------

 Alpha MOs
 -- Occupied --
-91.9903 -20.5502 -20.5442 -20.5407 -20.5396 -15.6265 -15.6204 -11.3926
-11.3848 -11.3826 -11.3781 -11.3076 -11.3062 -11.3044 -11.3039 -11.2959
-11.2863 -11.2862 -11.2854 -11.2677 -11.2676 -11.2631 -11.2630 -11.2589
-11.2554 -11.2520 -11.2498  -8.9904  -6.6712  -6.6707  -6.6701  -1.4190
 -1.4114  -1.3968  -1.3905  -1.2617  -1.2546  -1.2293  -1.1870  -1.1518
 -1.1130  -1.0857  -1.0457  -0.9957  -0.9873  -0.9844  -0.9545  -0.9501
 -0.8951  -0.8858  -0.8762  -0.8594  -0.7919  -0.7750  -0.7714  -0.7681
 -0.7399  -0.7154  -0.7030  -0.6903  -0.6760  -0.6708  -0.6666  -0.6566
 -0.6465  -0.6429  -0.6373  -0.6309  -0.6302  -0.6263  -0.6223  -0.6043
 -0.5846  -0.5734  -0.5667  -0.5606  -0.5561  -0.5509  -0.5492  -0.5471
 -0.5469  -0.5434  -0.5227  -0.5138  -0.5066  -0.4804  -0.4739  -0.4679
 -0.4562  -0.4506  -0.4421  -0.4339  -0.4130  -0.4068  -0.3534  -0.3515
 -0.3285  -0.2844

          Ground-State Mulliken Net Atomic Charges

     Atom                 Charge (a.u.)
  ----------------------------------------
      1 C                    -0.084986
      2 C                    -0.030125
      3 C                    -0.114785
      4 C                    -0.123060
      5 H                     0.198351
      6 C                     0.009857
      7 C                     0.122983
      8 C                    -0.062460
      9 C                    -0.146528
     10 C                    -0.176656
     11 C                     0.223638
     12 H                     0.193915
     13 C                     0.343661
     14 C                     0.347347
     15 N                    -0.089314
     16 C                     0.357022
     17 C                     0.364664
     18 N                    -0.089087
     19 O                    -0.495600
     20 O                    -0.507829
     21 O                    -0.502005
     22 O                    -0.472021
     23 C                    -0.204936
     24 H                     0.139269
     25 H                     0.108977
     26 H                     0.108979
     27 C                    -0.197590
     28 H                     0.133503
     29 H                     0.111504
     30 H                     0.110616
     31 C                    -0.081700
     32 S                     0.006251
     33 C                    -0.205884
     34 C                    -0.152772
     35 C                    -0.195767
     36 H                     0.182182
     37 H                     0.189412
     38 H                     0.213457
     39 H                     0.136985
     40 H                     0.137283
     41 H                     0.193247
  ----------------------------------------
  Sum of atomic charges =     0.000000

                    Cartesian Multipole Moments
 -----------------------------------------------------------------
    Charge (ESU x 10^10)
                 0.0000
    Dipole Moment (Debye)
         X       2.3402      Y       2.6027      Z      -1.0520
       Tot       3.6548
    Quadrupole Moments (Debye-Ang)
        XX    -185.7171     XY      -3.9044     YY    -180.8922
        XZ      14.8101     YZ       4.0337     ZZ    -164.6284

 Total job time:  296.37s(wall), 9001.36s(cpu)
        *  Thank you very much for using Q-Chem.  Have a nice day.  *
