 Q-Chem 5.4, Q-Chem, Inc., Pleasanton, CA (2021)
 Q-Chem 5.4.0 for Intel X86 EM64T Linux

User input:
--------------------------------------------------------------
$molecule
0 1
C	0.240927	-6.741404	-0.089263
C	1.467886	-6.155638	-0.535973
C	-0.777972	-5.791452	0.281103
C	1.729742	-4.803786	-0.631036
H	2.292903	-6.821518	-0.836458
C	-0.503614	-4.378638	0.181995
C	0.746756	-3.838032	-0.272725
C	-1.485437	-3.413062	0.539954
C	1.018915	-2.426473	-0.371053
C	-1.226557	-2.059348	0.446381
C	-0.000000	-1.478216	-0.000000
H	-2.052413	-1.394783	0.747410
C	-2.134128	-6.187987	0.772747
C	-2.829820	-3.798164	1.029154
N	-3.059182	-5.170003	1.110828
C	3.077731	-4.424987	-1.121728
C	2.375694	-2.036627	-0.864069
N	3.301101	-3.049156	-1.201928
O	-2.502830	-7.353131	0.903908
O	-3.697078	-2.986854	1.345809
O	3.934752	-5.248946	-1.434422
O	2.764177	-0.878829	-1.003943
C	-4.386939	-5.563799	1.592981
H	-4.429822	-6.664085	1.607367
H	-5.164489	-5.147101	0.924504
H	-4.553486	-5.148785	2.605446
C	4.608481	-2.587487	-1.677308
H	5.211969	-3.483329	-1.898089
H	5.094624	-1.964972	-0.902337
H	4.483092	-1.962932	-2.582098
C	0.000000	0.000000	0.000000
S	-0.000201	0.793171	1.580530
C	-0.000228	2.430885	0.904911
C	-0.000168	0.997990	-0.985400
C	-0.000267	2.318231	-0.493528
H	-0.000145	0.762343	-2.059934
H	-0.000339	3.199164	-1.152593
H	-0.000311	3.311566	1.556025
H	0.447559	-7.361589	0.791434
H	-0.166282	-7.361192	-0.897345
H	0.368883	-1.478831	1.015049
$end

$rem
JOBTYPE		SP
EXCHANGE	HF
CORRELATION	pRIMP2
BASIS		cc-pvtz
METHOD		rimp2
AUX_BASIS	rimp2-cc-pvtz
SOLVENT_METHOD	PCM
PURECART	11111
SYMMETRY	false
MEM_TOTAL	110000
SCF_CONVERGENCE = 6
THRESH=10
GUI = 2
$end

$solvent
dielectric 4.90
$end
--------------------------------------------------------------

             Standard Nuclear Orientation (Angstroms)
    I     Atom           X                Y                Z
 ----------------------------------------------------------------
    1      C       0.2409270000    -6.7414040000    -0.0892630000
    2      C       1.4678860000    -6.1556380000    -0.5359730000
    3      C      -0.7779720000    -5.7914520000     0.2811030000
    4      C       1.7297420000    -4.8037860000    -0.6310360000
    5      H       2.2929030000    -6.8215180000    -0.8364580000
    6      C      -0.5036140000    -4.3786380000     0.1819950000
    7      C       0.7467560000    -3.8380320000    -0.2727250000
    8      C      -1.4854370000    -3.4130620000     0.5399540000
    9      C       1.0189150000    -2.4264730000    -0.3710530000
   10      C      -1.2265570000    -2.0593480000     0.4463810000
   11      C       0.0000000000    -1.4782160000     0.0000000000
   12      H      -2.0524130000    -1.3947830000     0.7474100000
   13      C      -2.1341280000    -6.1879870000     0.7727470000
   14      C      -2.8298200000    -3.7981640000     1.0291540000
   15      N      -3.0591820000    -5.1700030000     1.1108280000
   16      C       3.0777310000    -4.4249870000    -1.1217280000
   17      C       2.3756940000    -2.0366270000    -0.8640690000
   18      N       3.3011010000    -3.0491560000    -1.2019280000
   19      O      -2.5028300000    -7.3531310000     0.9039080000
   20      O      -3.6970780000    -2.9868540000     1.3458090000
   21      O       3.9347520000    -5.2489460000    -1.4344220000
   22      O       2.7641770000    -0.8788290000    -1.0039430000
   23      C      -4.3869390000    -5.5637990000     1.5929810000
   24      H      -4.4298220000    -6.6640850000     1.6073670000
   25      H      -5.1644890000    -5.1471010000     0.9245040000
   26      H      -4.5534860000    -5.1487850000     2.6054460000
   27      C       4.6084810000    -2.5874870000    -1.6773080000
   28      H       5.2119690000    -3.4833290000    -1.8980890000
   29      H       5.0946240000    -1.9649720000    -0.9023370000
   30      H       4.4830920000    -1.9629320000    -2.5820980000
   31      C       0.0000000000     0.0000000000     0.0000000000
   32      S      -0.0002010000     0.7931710000     1.5805300000
   33      C      -0.0002280000     2.4308850000     0.9049110000
   34      C      -0.0001680000     0.9979900000    -0.9854000000
   35      C      -0.0002670000     2.3182310000    -0.4935280000
   36      H      -0.0001450000     0.7623430000    -2.0599340000
   37      H      -0.0003390000     3.1991640000    -1.1525930000
   38      H      -0.0003110000     3.3115660000     1.5560250000
   39      H       0.4475590000    -7.3615890000     0.7914340000
   40      H      -0.1662820000    -7.3611920000    -0.8973450000
   41      H       0.3688830000    -1.4788310000     1.0150490000
 ----------------------------------------------------------------

   11   -1571.7465475022      5.59e-07  Convergence criterion met
 Total energy in the final basis set =    -1571.7465475022
        RIMP2         total energy =     -1576.4003975446 a.u.

                    Orbital Energies (a.u.)
 --------------------------------------------------------------

 Alpha MOs
 -- Occupied --
-91.9940 -20.5516 -20.5444 -20.5420 -20.5406 -15.6267 -15.6214 -11.3930
-11.3851 -11.3838 -11.3793 -11.3089 -11.3085 -11.3049 -11.3047 -11.2965
-11.2953 -11.2898 -11.2818 -11.2696 -11.2681 -11.2649 -11.2628 -11.2594
-11.2529 -11.2518 -11.2507  -8.9936  -6.6744  -6.6740  -6.6733  -1.4191
 -1.4124  -1.3970  -1.3915  -1.2619  -1.2555  -1.2303  -1.1872  -1.1526
 -1.1142  -1.0871  -1.0467  -0.9964  -0.9877  -0.9842  -0.9551  -0.9509
 -0.8964  -0.8876  -0.8767  -0.8601  -0.7939  -0.7756  -0.7723  -0.7686
 -0.7403  -0.7156  -0.7040  -0.6914  -0.6772  -0.6709  -0.6675  -0.6572
 -0.6471  -0.6420  -0.6383  -0.6319  -0.6310  -0.6268  -0.6227  -0.6053
 -0.5851  -0.5751  -0.5657  -0.5611  -0.5568  -0.5512  -0.5501  -0.5479
 -0.5464  -0.5437  -0.5208  -0.5180  -0.5090  -0.4816  -0.4751  -0.4694
 -0.4580  -0.4512  -0.4429  -0.4349  -0.4132  -0.4075  -0.3571  -0.3513
 -0.3277  -0.2893

          Ground-State Mulliken Net Atomic Charges

     Atom                 Charge (a.u.)
  ----------------------------------------
      1 C                    -0.084774
      2 C                    -0.029804
      3 C                    -0.110674
      4 C                    -0.122832
      5 H                     0.198825
      6 C                     0.013490
      7 C                     0.123190
      8 C                    -0.083353
      9 C                    -0.163434
     10 C                    -0.143353
     11 C                     0.239063
     12 H                     0.196682
     13 C                     0.343615
     14 C                     0.349818
     15 N                    -0.090339
     16 C                     0.357559
     17 C                     0.344809
     18 N                    -0.090852
     19 O                    -0.493846
     20 O                    -0.506907
     21 O                    -0.501764
     22 O                    -0.469686
     23 C                    -0.204693
     24 H                     0.139400
     25 H                     0.109280
     26 H                     0.109191
     27 C                    -0.197029
     28 H                     0.133153
     29 H                     0.111728
     30 H                     0.111265
     31 C                    -0.071134
     32 S                     0.011486
     33 C                    -0.218005
     34 C                    -0.159392
     35 C                    -0.205120
     36 H                     0.186709
     37 H                     0.191247
     38 H                     0.212678
     39 H                     0.137681
     40 H                     0.137947
     41 H                     0.188175
  ----------------------------------------
  Sum of atomic charges =     0.000000

                    Cartesian Multipole Moments
 -----------------------------------------------------------------
    Charge (ESU x 10^10)
                 0.0000
    Dipole Moment (Debye)
         X       1.0880      Y       2.2579      Z      -0.5947
       Tot       2.5760
    Quadrupole Moments (Debye-Ang)
        XX    -192.0569     XY      -8.5210     YY    -176.9574
        XZ      10.7865     YZ       2.4790     ZZ    -160.1507

 Total job time:  298.44s(wall), 8903.15s(cpu)
        *  Thank you very much for using Q-Chem.  Have a nice day.  *
