 Q-Chem 5.4, Q-Chem, Inc., Pleasanton, CA (2021)
 Q-Chem 5.4.0 for Intel X86 EM64T Linux

User input:
--------------------------------------------------------------
$molecule
0 1
C	0.046070	-6.741404	0.252767
C	0.272935	-6.155638	1.538656
C	-0.141739	-5.791452	-0.814966
C	0.321083	-4.803786	1.813042
H	0.425592	-6.821518	2.403318
C	-0.091779	-4.378638	-0.527566
C	0.138909	-3.838032	0.782769
C	-0.273808	-3.413062	-1.556632
C	0.188483	-2.426473	1.067868
C	-0.226610	-2.059348	-1.285436
C	0.000000	-1.478216	0.000000
H	-0.379657	-1.394783	-2.151019
C	-0.390420	-6.187987	-2.235891
C	-0.522125	-3.798164	-2.965540
N	-0.562731	-5.170003	-3.205600
C	0.570244	-4.424987	3.225760
C	0.438407	-2.036627	2.489646
N	0.610438	-3.049156	3.459662
O	-0.455563	-7.353131	-2.621768
O	-0.683373	-2.986854	-3.874608
O	0.729367	-5.248946	4.124059
O	0.508697	-0.878829	2.896516
C	-0.806996	-5.563799	-4.596910
H	-0.813717	-6.664085	-4.641640
H	-0.013655	-5.147101	-5.246567
H	-1.775159	-5.148785	-4.936739
C	0.851572	-2.587487	4.829729
H	0.964204	-3.483329	5.462387
H	0.003956	-1.964972	5.173914
H	1.764390	-1.962932	4.863360
C	0.000000	0.000000	0.000000
S	0.068929	0.790170	1.580530
C	0.211639	2.421655	0.904911
C	0.086813	0.994207	-0.985400
C	0.201782	2.309433	-0.493528
H	0.066299	0.759454	-2.059934
H	0.278488	3.187020	-1.152593
H	0.288312	3.298992	1.556025
H	-0.857128	-7.361589	0.303328
H	0.912587	-7.361192	-0.007933
H	-1.063684	-1.478831	0.187017
$end

$rem
JOBTYPE		SP
EXCHANGE	HF
CORRELATION	pRIMP2
BASIS		cc-pvtz
METHOD		rimp2
AUX_BASIS	rimp2-cc-pvtz
SOLVENT_METHOD	PCM
PURECART	11111
SYMMETRY	false
MEM_TOTAL	110000
SCF_CONVERGENCE = 6
THRESH=10
GUI = 2
$end

$solvent
dielectric 4.90
$end
--------------------------------------------------------------

             Standard Nuclear Orientation (Angstroms)
    I     Atom           X                Y                Z
 ----------------------------------------------------------------
    1      C       0.0460700000    -6.7414040000     0.2527670000
    2      C       0.2729350000    -6.1556380000     1.5386560000
    3      C      -0.1417390000    -5.7914520000    -0.8149660000
    4      C       0.3210830000    -4.8037860000     1.8130420000
    5      H       0.4255920000    -6.8215180000     2.4033180000
    6      C      -0.0917790000    -4.3786380000    -0.5275660000
    7      C       0.1389090000    -3.8380320000     0.7827690000
    8      C      -0.2738080000    -3.4130620000    -1.5566320000
    9      C       0.1884830000    -2.4264730000     1.0678680000
   10      C      -0.2266100000    -2.0593480000    -1.2854360000
   11      C       0.0000000000    -1.4782160000     0.0000000000
   12      H      -0.3796570000    -1.3947830000    -2.1510190000
   13      C      -0.3904200000    -6.1879870000    -2.2358910000
   14      C      -0.5221250000    -3.7981640000    -2.9655400000
   15      N      -0.5627310000    -5.1700030000    -3.2056000000
   16      C       0.5702440000    -4.4249870000     3.2257600000
   17      C       0.4384070000    -2.0366270000     2.4896460000
   18      N       0.6104380000    -3.0491560000     3.4596620000
   19      O      -0.4555630000    -7.3531310000    -2.6217680000
   20      O      -0.6833730000    -2.9868540000    -3.8746080000
   21      O       0.7293670000    -5.2489460000     4.1240590000
   22      O       0.5086970000    -0.8788290000     2.8965160000
   23      C      -0.8069960000    -5.5637990000    -4.5969100000
   24      H      -0.8137170000    -6.6640850000    -4.6416400000
   25      H      -0.0136550000    -5.1471010000    -5.2465670000
   26      H      -1.7751590000    -5.1487850000    -4.9367390000
   27      C       0.8515720000    -2.5874870000     4.8297290000
   28      H       0.9642040000    -3.4833290000     5.4623870000
   29      H       0.0039560000    -1.9649720000     5.1739140000
   30      H       1.7643900000    -1.9629320000     4.8633600000
   31      C       0.0000000000     0.0000000000     0.0000000000
   32      S       0.0689290000     0.7901700000     1.5805300000
   33      C       0.2116390000     2.4216550000     0.9049110000
   34      C       0.0868130000     0.9942070000    -0.9854000000
   35      C       0.2017820000     2.3094330000    -0.4935280000
   36      H       0.0662990000     0.7594540000    -2.0599340000
   37      H       0.2784880000     3.1870200000    -1.1525930000
   38      H       0.2883120000     3.2989920000     1.5560250000
   39      H      -0.8571280000    -7.3615890000     0.3033280000
   40      H       0.9125870000    -7.3611920000    -0.0079330000
   41      H      -1.0636840000    -1.4788310000     0.1870170000
 ----------------------------------------------------------------

   11   -1571.6944679556      6.00e-07  Convergence criterion met
 Total energy in the final basis set =    -1571.6944679556
        RIMP2         total energy =     -1576.3628985312 a.u.

                    Orbital Energies (a.u.)
 --------------------------------------------------------------

 Alpha MOs
 -- Occupied --
-91.9689 -20.5570 -20.5472 -20.5430 -20.5420 -15.6316 -15.6226 -11.4019
-11.3880 -11.3850 -11.3805 -11.3133 -11.3103 -11.3095 -11.3066 -11.2999
-11.2939 -11.2921 -11.2716 -11.2708 -11.2673 -11.2654 -11.2602 -11.2548
-11.2542 -11.2451 -11.2358  -8.9690  -6.6496  -6.6482  -6.6472  -1.4334
 -1.4135  -1.4039  -1.3927  -1.2686  -1.2570  -1.2322  -1.1856  -1.1454
 -1.1165  -1.0870  -1.0500  -0.9949  -0.9899  -0.9743  -0.9570  -0.9476
 -0.8993  -0.8917  -0.8804  -0.8637  -0.7925  -0.7824  -0.7764  -0.7586
 -0.7313  -0.7268  -0.7014  -0.6904  -0.6891  -0.6757  -0.6694  -0.6596
 -0.6521  -0.6461  -0.6386  -0.6339  -0.6335  -0.6327  -0.6240  -0.6066
 -0.5904  -0.5723  -0.5670  -0.5635  -0.5556  -0.5538  -0.5534  -0.5502
 -0.5489  -0.5459  -0.5208  -0.5142  -0.5126  -0.4879  -0.4811  -0.4647
 -0.4566  -0.4452  -0.4386  -0.4203  -0.4089  -0.3875  -0.3560  -0.3338
 -0.3265  -0.2770

          Ground-State Mulliken Net Atomic Charges

     Atom                 Charge (a.u.)
  ----------------------------------------
      1 C                    -0.084436
      2 C                    -0.028410
      3 C                    -0.105870
      4 C                    -0.121638
      5 H                     0.199998
      6 C                     0.025382
      7 C                     0.124280
      8 C                    -0.106031
      9 C                    -0.199662
     10 C                    -0.135441
     11 C                     0.222916
     12 H                     0.194545
     13 C                     0.343013
     14 C                     0.350865
     15 N                    -0.090377
     16 C                     0.359179
     17 C                     0.386939
     18 N                    -0.088259
     19 O                    -0.493171
     20 O                    -0.506969
     21 O                    -0.498867
     22 O                    -0.443170
     23 C                    -0.204695
     24 H                     0.139760
     25 H                     0.109668
     26 H                     0.109390
     27 C                    -0.199173
     28 H                     0.135128
     29 H                     0.112953
     30 H                     0.113554
     31 C                    -0.066917
     32 S                     0.065838
     33 C                    -0.257476
     34 C                    -0.166593
     35 C                    -0.250312
     36 H                     0.180108
     37 H                     0.179042
     38 H                     0.201421
     39 H                     0.138999
     40 H                     0.139319
     41 H                     0.215168
  ----------------------------------------
  Sum of atomic charges =     0.000000

                    Cartesian Multipole Moments
 -----------------------------------------------------------------
    Charge (ESU x 10^10)
                 0.0000
    Dipole Moment (Debye)
         X      -0.3795      Y      -0.0586      Z       1.3883
       Tot       1.4405
    Quadrupole Moments (Debye-Ang)
        XX    -163.4870     XY       0.3572     YY    -177.0399
        XZ      -4.8275     YZ      -9.7921     ZZ    -185.0691

 Total job time:  300.16s(wall), 9194.38s(cpu)
        *  Thank you very much for using Q-Chem.  Have a nice day.  *
