 Q-Chem 5.4, Q-Chem, Inc., Pleasanton, CA (2021)
 Q-Chem 5.4.0 for Intel X86 EM64T Linux

User input:
--------------------------------------------------------------
$molecule
0 1
C	-0.240927	-6.741404	0.089263
C	-1.467886	-6.155638	0.535973
C	0.777972	-5.791452	-0.281103
C	-1.729742	-4.803786	0.631036
H	-2.292903	-6.821518	0.836458
C	0.503614	-4.378638	-0.181995
C	-0.746756	-3.838032	0.272725
C	1.485437	-3.413062	-0.539954
C	-1.018915	-2.426473	0.371053
C	1.226557	-2.059348	-0.446381
C	-0.000000	-1.478216	-0.000000
H	2.052413	-1.394783	-0.747410
C	2.134128	-6.187987	-0.772747
C	2.829820	-3.798164	-1.029154
N	3.059182	-5.170003	-1.110828
C	-3.077731	-4.424987	1.121728
C	-2.375694	-2.036627	0.864069
N	-3.301101	-3.049156	1.201928
O	2.502830	-7.353131	-0.903908
O	3.697078	-2.986854	-1.345809
O	-3.934752	-5.248946	1.434422
O	-2.764177	-0.878829	1.003943
C	4.386939	-5.563799	-1.592981
H	4.429822	-6.664085	-1.607367
H	5.164489	-5.147101	-0.924504
H	4.553486	-5.148785	-2.605446
C	-4.608481	-2.587487	1.677308
H	-5.211969	-3.483329	1.898089
H	-5.094624	-1.964972	0.902337
H	-4.483092	-1.962932	2.582098
C	0.000000	0.000000	0.000000
S	0.335026	0.718942	1.580530
C	1.027130	2.203226	0.904911
C	0.421617	0.904557	-0.985400
C	0.979485	2.101144	-0.493528
H	0.322049	0.690978	-2.059934
H	1.351718	2.899571	-1.152593
H	1.399246	3.001430	1.556025
H	-0.447559	-7.361589	-0.791434
H	0.166282	-7.361192	0.897345
H	-0.368883	-1.478831	-1.015049
$end

$rem
JOBTYPE		SP
EXCHANGE	HF
CORRELATION	pRIMP2
BASIS		cc-pvtz
METHOD		rimp2
AUX_BASIS	rimp2-cc-pvtz
SOLVENT_METHOD	PCM
PURECART	11111
SYMMETRY	false
MEM_TOTAL	110000
SCF_CONVERGENCE = 6
THRESH=10
GUI = 2
$end

$solvent
dielectric 4.90
$end
--------------------------------------------------------------

             Standard Nuclear Orientation (Angstroms)
    I     Atom           X                Y                Z
 ----------------------------------------------------------------
    1      C      -0.2409270000    -6.7414040000     0.0892630000
    2      C      -1.4678860000    -6.1556380000     0.5359730000
    3      C       0.7779720000    -5.7914520000    -0.2811030000
    4      C      -1.7297420000    -4.8037860000     0.6310360000
    5      H      -2.2929030000    -6.8215180000     0.8364580000
    6      C       0.5036140000    -4.3786380000    -0.1819950000
    7      C      -0.7467560000    -3.8380320000     0.2727250000
    8      C       1.4854370000    -3.4130620000    -0.5399540000
    9      C      -1.0189150000    -2.4264730000     0.3710530000
   10      C       1.2265570000    -2.0593480000    -0.4463810000
   11      C       0.0000000000    -1.4782160000     0.0000000000
   12      H       2.0524130000    -1.3947830000    -0.7474100000
   13      C       2.1341280000    -6.1879870000    -0.7727470000
   14      C       2.8298200000    -3.7981640000    -1.0291540000
   15      N       3.0591820000    -5.1700030000    -1.1108280000
   16      C      -3.0777310000    -4.4249870000     1.1217280000
   17      C      -2.3756940000    -2.0366270000     0.8640690000
   18      N      -3.3011010000    -3.0491560000     1.2019280000
   19      O       2.5028300000    -7.3531310000    -0.9039080000
   20      O       3.6970780000    -2.9868540000    -1.3458090000
   21      O      -3.9347520000    -5.2489460000     1.4344220000
   22      O      -2.7641770000    -0.8788290000     1.0039430000
   23      C       4.3869390000    -5.5637990000    -1.5929810000
   24      H       4.4298220000    -6.6640850000    -1.6073670000
   25      H       5.1644890000    -5.1471010000    -0.9245040000
   26      H       4.5534860000    -5.1487850000    -2.6054460000
   27      C      -4.6084810000    -2.5874870000     1.6773080000
   28      H      -5.2119690000    -3.4833290000     1.8980890000
   29      H      -5.0946240000    -1.9649720000     0.9023370000
   30      H      -4.4830920000    -1.9629320000     2.5820980000
   31      C       0.0000000000     0.0000000000     0.0000000000
   32      S       0.3350260000     0.7189420000     1.5805300000
   33      C       1.0271300000     2.2032260000     0.9049110000
   34      C       0.4216170000     0.9045570000    -0.9854000000
   35      C       0.9794850000     2.1011440000    -0.4935280000
   36      H       0.3220490000     0.6909780000    -2.0599340000
   37      H       1.3517180000     2.8995710000    -1.1525930000
   38      H       1.3992460000     3.0014300000     1.5560250000
   39      H      -0.4475590000    -7.3615890000    -0.7914340000
   40      H       0.1662820000    -7.3611920000     0.8973450000
   41      H      -0.3688830000    -1.4788310000    -1.0150490000
 ----------------------------------------------------------------

   11   -1571.7407531789      5.46e-07  Convergence criterion met
 Total energy in the final basis set =    -1571.7407531789
        RIMP2         total energy =     -1576.3974340299 a.u.

                    Orbital Energies (a.u.)
 --------------------------------------------------------------

 Alpha MOs
 -- Occupied --
-91.9865 -20.5526 -20.5443 -20.5416 -20.5405 -15.6268 -15.6213 -11.3934
-11.3850 -11.3834 -11.3792 -11.3089 -11.3081 -11.3047 -11.3045 -11.2963
-11.2953 -11.2893 -11.2842 -11.2688 -11.2679 -11.2644 -11.2626 -11.2600
-11.2595 -11.2526 -11.2516  -8.9864  -6.6673  -6.6667  -6.6662  -1.4195
 -1.4122  -1.3972  -1.3913  -1.2620  -1.2554  -1.2299  -1.1874  -1.1528
 -1.1140  -1.0861  -1.0465  -0.9961  -0.9877  -0.9854  -0.9551  -0.9506
 -0.8965  -0.8876  -0.8764  -0.8594  -0.7943  -0.7767  -0.7709  -0.7636
 -0.7415  -0.7170  -0.7043  -0.6917  -0.6812  -0.6723  -0.6666  -0.6572
 -0.6470  -0.6441  -0.6362  -0.6331  -0.6308  -0.6275  -0.6215  -0.6048
 -0.5842  -0.5758  -0.5690  -0.5614  -0.5574  -0.5513  -0.5506  -0.5479
 -0.5463  -0.5436  -0.5225  -0.5134  -0.5079  -0.4816  -0.4749  -0.4617
 -0.4574  -0.4512  -0.4427  -0.4345  -0.4133  -0.4073  -0.3558  -0.3510
 -0.3294  -0.2882

          Ground-State Mulliken Net Atomic Charges

     Atom                 Charge (a.u.)
  ----------------------------------------
      1 C                    -0.084428
      2 C                    -0.031676
      3 C                    -0.111658
      4 C                    -0.120579
      5 H                     0.198827
      6 C                     0.022256
      7 C                     0.118416
      8 C                    -0.093862
      9 C                    -0.168973
     10 C                    -0.107033
     11 C                     0.147352
     12 H                     0.199456
     13 C                     0.343054
     14 C                     0.345311
     15 N                    -0.089900
     16 C                     0.356531
     17 C                     0.342747
     18 N                    -0.092239
     19 O                    -0.494669
     20 O                    -0.507670
     21 O                    -0.501411
     22 O                    -0.471378
     23 C                    -0.204888
     24 H                     0.139479
     25 H                     0.109375
     26 H                     0.108783
     27 C                    -0.197119
     28 H                     0.133069
     29 H                     0.111455
     30 H                     0.112030
     31 C                     0.038861
     32 S                     0.016900
     33 C                    -0.206923
     34 C                    -0.240507
     35 C                    -0.189713
     36 H                     0.190240
     37 H                     0.192939
     38 H                     0.210751
     39 H                     0.137278
     40 H                     0.137740
     41 H                     0.201776
  ----------------------------------------
  Sum of atomic charges =     0.000000

                    Cartesian Multipole Moments
 -----------------------------------------------------------------
    Charge (ESU x 10^10)
                 0.0000
    Dipole Moment (Debye)
         X      -0.2769      Y       2.1980      Z      -1.4853
       Tot       2.6672
    Quadrupole Moments (Debye-Ang)
        XX    -190.0973     XY      13.1792     YY    -179.7565
        XZ      11.0308     YZ      -1.2038     ZZ    -160.1995

 Total job time:  295.96s(wall), 8947.94s(cpu)
        *  Thank you very much for using Q-Chem.  Have a nice day.  *
