 Q-Chem 5.4, Q-Chem, Inc., Pleasanton, CA (2021)
 Q-Chem 5.4.0 for Intel X86 EM64T Linux

User input:
--------------------------------------------------------------
$molecule
0 1
C	-0.241938	-6.741404	-0.086486
C	-1.468983	-6.155638	-0.532960
C	0.776651	-5.791452	0.284733
C	-1.730681	-4.803786	-0.628455
H	-2.294130	-6.821518	-0.833086
C	0.502775	-4.378638	0.184300
C	-0.747353	-3.838032	-0.271086
C	1.484986	-3.413062	0.541191
C	-1.019042	-2.426473	-0.370703
C	1.226525	-2.059348	0.446468
C	-0.000000	-1.478216	-0.000000
H	2.052666	-1.394783	0.746717
C	2.131549	-6.187987	0.779832
C	2.829295	-3.798164	1.030596
N	3.057496	-5.170003	1.115461
C	-3.078712	-4.424987	-1.119034
C	-2.375300	-2.036627	-0.865151
N	-3.301374	-3.049156	-1.201176
O	2.498300	-7.353131	0.916355
O	3.697195	-2.986854	1.345486
O	-3.936224	-5.248946	-1.430379
O	-2.762805	-0.878829	-1.007714
C	4.384539	-5.563799	1.599576
H	4.426636	-6.664085	1.616121
H	4.550487	-5.147101	2.611458
H	5.162921	-5.148785	0.931037
C	-4.608454	-2.587487	-1.677382
H	-5.212668	-3.483329	-1.896168
H	-4.482719	-1.964972	-2.583531
H	-5.093988	-1.962932	-0.903674
C	0.000000	0.000000	0.000000
S	0.271091	0.745405	1.580530
C	0.831198	2.284363	0.904911
C	0.341175	0.937861	-0.985400
C	0.792631	2.178516	-0.493528
H	0.260601	0.716417	-2.059934
H	1.093860	3.006347	-1.152593
H	1.132330	3.111961	1.556025
H	0.165874	-7.361589	-0.893959
H	-0.449423	-7.361192	0.794290
H	0.369880	-1.478831	-1.014686
$end

$rem
JOBTYPE		SP
EXCHANGE	HF
CORRELATION	pRIMP2
BASIS		cc-pvtz
METHOD		rimp2
AUX_BASIS	rimp2-cc-pvtz
SOLVENT_METHOD	PCM
PURECART	11111
SYMMETRY	false
MEM_TOTAL	110000
SCF_CONVERGENCE = 6
THRESH=10
GUI = 2
$end

$solvent
dielectric 4.90
$end
--------------------------------------------------------------

             Standard Nuclear Orientation (Angstroms)
    I     Atom           X                Y                Z
 ----------------------------------------------------------------
    1      C      -0.2419380000    -6.7414040000    -0.0864860000
    2      C      -1.4689830000    -6.1556380000    -0.5329600000
    3      C       0.7766510000    -5.7914520000     0.2847330000
    4      C      -1.7306810000    -4.8037860000    -0.6284550000
    5      H      -2.2941300000    -6.8215180000    -0.8330860000
    6      C       0.5027750000    -4.3786380000     0.1843000000
    7      C      -0.7473530000    -3.8380320000    -0.2710860000
    8      C       1.4849860000    -3.4130620000     0.5411910000
    9      C      -1.0190420000    -2.4264730000    -0.3707030000
   10      C       1.2265250000    -2.0593480000     0.4464680000
   11      C       0.0000000000    -1.4782160000     0.0000000000
   12      H       2.0526660000    -1.3947830000     0.7467170000
   13      C       2.1315490000    -6.1879870000     0.7798320000
   14      C       2.8292950000    -3.7981640000     1.0305960000
   15      N       3.0574960000    -5.1700030000     1.1154610000
   16      C      -3.0787120000    -4.4249870000    -1.1190340000
   17      C      -2.3753000000    -2.0366270000    -0.8651510000
   18      N      -3.3013740000    -3.0491560000    -1.2011760000
   19      O       2.4983000000    -7.3531310000     0.9163550000
   20      O       3.6971950000    -2.9868540000     1.3454860000
   21      O      -3.9362240000    -5.2489460000    -1.4303790000
   22      O      -2.7628050000    -0.8788290000    -1.0077140000
   23      C       4.3845390000    -5.5637990000     1.5995760000
   24      H       4.4266360000    -6.6640850000     1.6161210000
   25      H       4.5504870000    -5.1471010000     2.6114580000
   26      H       5.1629210000    -5.1487850000     0.9310370000
   27      C      -4.6084540000    -2.5874870000    -1.6773820000
   28      H      -5.2126680000    -3.4833290000    -1.8961680000
   29      H      -4.4827190000    -1.9649720000    -2.5835310000
   30      H      -5.0939880000    -1.9629320000    -0.9036740000
   31      C       0.0000000000     0.0000000000     0.0000000000
   32      S       0.2710910000     0.7454050000     1.5805300000
   33      C       0.8311980000     2.2843630000     0.9049110000
   34      C       0.3411750000     0.9378610000    -0.9854000000
   35      C       0.7926310000     2.1785160000    -0.4935280000
   36      H       0.2606010000     0.7164170000    -2.0599340000
   37      H       1.0938600000     3.0063470000    -1.1525930000
   38      H       1.1323300000     3.1119610000     1.5560250000
   39      H       0.1658740000    -7.3615890000    -0.8939590000
   40      H      -0.4494230000    -7.3611920000     0.7942900000
   41      H       0.3698800000    -1.4788310000    -1.0146860000
 ----------------------------------------------------------------

   11   -1571.7435241721      5.51e-07  Convergence criterion met
 Total energy in the final basis set =    -1571.7435241721
        RIMP2         total energy =     -1576.3992244039 a.u.

                    Orbital Energies (a.u.)
 --------------------------------------------------------------

 Alpha MOs
 -- Occupied --
-91.9894 -20.5527 -20.5443 -20.5418 -20.5407 -15.6269 -15.6213 -11.3935
-11.3850 -11.3836 -11.3794 -11.3091 -11.3073 -11.3046 -11.3043 -11.2972
-11.2959 -11.2893 -11.2827 -11.2690 -11.2677 -11.2653 -11.2628 -11.2594
-11.2572 -11.2525 -11.2517  -8.9892  -6.6700  -6.6695  -6.6690  -1.4195
 -1.4123  -1.3972  -1.3915  -1.2620  -1.2555  -1.2301  -1.1875  -1.1527
 -1.1140  -1.0862  -1.0465  -0.9960  -0.9877  -0.9861  -0.9551  -0.9506
 -0.8966  -0.8876  -0.8764  -0.8595  -0.7955  -0.7776  -0.7706  -0.7621
 -0.7423  -0.7172  -0.7041  -0.6917  -0.6815  -0.6717  -0.6665  -0.6572
 -0.6469  -0.6438  -0.6360  -0.6330  -0.6307  -0.6276  -0.6220  -0.6045
 -0.5850  -0.5757  -0.5672  -0.5613  -0.5566  -0.5512  -0.5506  -0.5483
 -0.5476  -0.5435  -0.5195  -0.5155  -0.5085  -0.4836  -0.4755  -0.4638
 -0.4584  -0.4513  -0.4428  -0.4346  -0.4134  -0.4074  -0.3581  -0.3495
 -0.3290  -0.2883

          Ground-State Mulliken Net Atomic Charges

     Atom                 Charge (a.u.)
  ----------------------------------------
      1 C                    -0.084361
      2 C                    -0.032242
      3 C                    -0.111609
      4 C                    -0.121786
      5 H                     0.198524
      6 C                     0.018510
      7 C                     0.116848
      8 C                    -0.089230
      9 C                    -0.177129
     10 C                    -0.111424
     11 C                     0.158502
     12 H                     0.202161
     13 C                     0.343419
     14 C                     0.345049
     15 N                    -0.090183
     16 C                     0.357593
     17 C                     0.344927
     18 N                    -0.092389
     19 O                    -0.494213
     20 O                    -0.506514
     21 O                    -0.501582
     22 O                    -0.472208
     23 C                    -0.204774
     24 H                     0.139443
     25 H                     0.109346
     26 H                     0.109004
     27 C                    -0.197050
     28 H                     0.133172
     29 H                     0.110905
     30 H                     0.112221
     31 C                     0.022873
     32 S                     0.010685
     33 C                    -0.211709
     34 C                    -0.199785
     35 C                    -0.200308
     36 H                     0.183647
     37 H                     0.192830
     38 H                     0.210666
     39 H                     0.137277
     40 H                     0.137507
     41 H                     0.203383
  ----------------------------------------
  Sum of atomic charges =     0.000000

                    Cartesian Multipole Moments
 -----------------------------------------------------------------
    Charge (ESU x 10^10)
                 0.0000
    Dipole Moment (Debye)
         X       0.1945      Y       2.2038      Z      -2.0830
       Tot       3.0386
    Quadrupole Moments (Debye-Ang)
        XX    -190.8248     XY      11.2045     YY    -179.1727
        XZ     -10.5090     YZ       4.7579     ZZ    -160.0924

 Total job time:  307.80s(wall), 8724.44s(cpu)
        *  Thank you very much for using Q-Chem.  Have a nice day.  *
