 Q-Chem 5.4, Q-Chem, Inc., Pleasanton, CA (2021)
 Q-Chem 5.4.0 for Intel X86 EM64T Linux

User input:
--------------------------------------------------------------
$molecule
0 1
C	-0.221766	-6.741404	0.129743
C	-1.352515	-6.155638	0.782726
C	0.717339	-5.791452	-0.411926
C	-1.593885	-4.803786	0.921816
H	-2.112819	-6.821518	1.221908
C	0.464360	-4.378638	-0.266682
C	-0.688053	-3.838032	0.398255
C	1.369108	-3.413062	-0.789694
C	-0.939002	-2.426473	0.542349
C	1.130409	-2.059348	-0.652589
C	0.000000	-1.478216	0.000000
H	1.891446	-1.394783	-1.092453
C	1.967519	-6.187987	-1.131595
C	2.608118	-3.798164	-1.504912
N	2.819813	-5.170003	-1.625174
C	-2.836188	-4.424987	1.639129
C	-2.189558	-2.036627	1.263477
N	-3.042237	-3.049156	1.756898
O	2.307845	-7.353131	-1.324787
O	3.407213	-2.986854	-1.967354
O	-3.625890	-5.248946	2.095892
O	-2.547850	-0.878829	1.468685
C	4.043674	-5.563799	-2.330564
H	4.083407	-6.664085	-2.352178
H	4.925490	-5.147101	-1.807263
H	4.031877	-5.148785	-3.356568
C	-4.247206	-2.587487	2.452080
H	-4.803187	-3.483329	2.774302
H	-4.860536	-1.964972	1.773301
H	-3.966607	-1.962932	3.321351
C	0.000000	0.000000	0.000000
S	0.396411	0.687007	1.580530
C	1.215245	2.105322	0.904911
C	0.498850	0.864369	-0.985400
C	1.158885	2.007781	-0.493528
H	0.381046	0.660280	-2.059934
H	1.599289	2.770727	-1.152593
H	1.655514	2.868056	1.556025
H	-0.578191	-7.361589	-0.701693
H	0.319578	-7.361192	0.854838
H	-0.539540	-1.478831	-0.935572
$end

$rem
JOBTYPE		SP
EXCHANGE	HF
CORRELATION	pRIMP2
BASIS		cc-pvtz
METHOD		rimp2
AUX_BASIS	rimp2-cc-pvtz
SOLVENT_METHOD	PCM
PURECART	11111
SYMMETRY	false
MEM_TOTAL	110000
SCF_CONVERGENCE = 6
THRESH=10
GUI = 2
$end

$solvent
dielectric 4.90
$end
--------------------------------------------------------------

             Standard Nuclear Orientation (Angstroms)
    I     Atom           X                Y                Z
 ----------------------------------------------------------------
    1      C      -0.2217660000    -6.7414040000     0.1297430000
    2      C      -1.3525150000    -6.1556380000     0.7827260000
    3      C       0.7173390000    -5.7914520000    -0.4119260000
    4      C      -1.5938850000    -4.8037860000     0.9218160000
    5      H      -2.1128190000    -6.8215180000     1.2219080000
    6      C       0.4643600000    -4.3786380000    -0.2666820000
    7      C      -0.6880530000    -3.8380320000     0.3982550000
    8      C       1.3691080000    -3.4130620000    -0.7896940000
    9      C      -0.9390020000    -2.4264730000     0.5423490000
   10      C       1.1304090000    -2.0593480000    -0.6525890000
   11      C       0.0000000000    -1.4782160000     0.0000000000
   12      H       1.8914460000    -1.3947830000    -1.0924530000
   13      C       1.9675190000    -6.1879870000    -1.1315950000
   14      C       2.6081180000    -3.7981640000    -1.5049120000
   15      N       2.8198130000    -5.1700030000    -1.6251740000
   16      C      -2.8361880000    -4.4249870000     1.6391290000
   17      C      -2.1895580000    -2.0366270000     1.2634770000
   18      N      -3.0422370000    -3.0491560000     1.7568980000
   19      O       2.3078450000    -7.3531310000    -1.3247870000
   20      O       3.4072130000    -2.9868540000    -1.9673540000
   21      O      -3.6258900000    -5.2489460000     2.0958920000
   22      O      -2.5478500000    -0.8788290000     1.4686850000
   23      C       4.0436740000    -5.5637990000    -2.3305640000
   24      H       4.0834070000    -6.6640850000    -2.3521780000
   25      H       4.9254900000    -5.1471010000    -1.8072630000
   26      H       4.0318770000    -5.1487850000    -3.3565680000
   27      C      -4.2472060000    -2.5874870000     2.4520800000
   28      H      -4.8031870000    -3.4833290000     2.7743020000
   29      H      -4.8605360000    -1.9649720000     1.7733010000
   30      H      -3.9666070000    -1.9629320000     3.3213510000
   31      C       0.0000000000     0.0000000000     0.0000000000
   32      S       0.3964110000     0.6870070000     1.5805300000
   33      C       1.2152450000     2.1053220000     0.9049110000
   34      C       0.4988500000     0.8643690000    -0.9854000000
   35      C       1.1588850000     2.0077810000    -0.4935280000
   36      H       0.3810460000     0.6602800000    -2.0599340000
   37      H       1.5992890000     2.7707270000    -1.1525930000
   38      H       1.6555140000     2.8680560000     1.5560250000
   39      H      -0.5781910000    -7.3615890000    -0.7016930000
   40      H       0.3195780000    -7.3611920000     0.8548380000
   41      H      -0.5395400000    -1.4788310000    -0.9355720000
 ----------------------------------------------------------------

   11   -1571.7343767386      5.55e-07  Convergence criterion met
 Total energy in the final basis set =    -1571.7343767386
        RIMP2         total energy =     -1576.3932839154 a.u.

                    Orbital Energies (a.u.)
 --------------------------------------------------------------

 Alpha MOs
 -- Occupied --
-91.9859 -20.5528 -20.5443 -20.5412 -20.5403 -15.6269 -15.6211 -11.3936
-11.3850 -11.3831 -11.3790 -11.3085 -11.3083 -11.3047 -11.3044 -11.2963
-11.2933 -11.2890 -11.2851 -11.2681 -11.2678 -11.2638 -11.2626 -11.2606
-11.2594 -11.2523 -11.2515  -8.9858  -6.6666  -6.6660  -6.6655  -1.4198
 -1.4119  -1.3973  -1.3911  -1.2621  -1.2552  -1.2301  -1.1878  -1.1526
 -1.1138  -1.0859  -1.0464  -0.9963  -0.9877  -0.9855  -0.9551  -0.9503
 -0.8964  -0.8876  -0.8763  -0.8593  -0.7938  -0.7766  -0.7711  -0.7641
 -0.7402  -0.7168  -0.7040  -0.6917  -0.6813  -0.6725  -0.6667  -0.6571
 -0.6469  -0.6443  -0.6365  -0.6329  -0.6306  -0.6274  -0.6212  -0.6049
 -0.5843  -0.5755  -0.5697  -0.5615  -0.5575  -0.5513  -0.5505  -0.5477
 -0.5462  -0.5436  -0.5236  -0.5121  -0.5075  -0.4810  -0.4745  -0.4614
 -0.4568  -0.4510  -0.4425  -0.4343  -0.4133  -0.4072  -0.3542  -0.3520
 -0.3303  -0.2857

          Ground-State Mulliken Net Atomic Charges

     Atom                 Charge (a.u.)
  ----------------------------------------
      1 C                    -0.084646
      2 C                    -0.031486
      3 C                    -0.111608
      4 C                    -0.121616
      5 H                     0.198819
      6 C                     0.023380
      7 C                     0.118322
      8 C                    -0.096554
      9 C                    -0.173814
     10 C                    -0.126253
     11 C                     0.173189
     12 H                     0.199189
     13 C                     0.342173
     14 C                     0.346626
     15 N                    -0.089627
     16 C                     0.356482
     17 C                     0.344195
     18 N                    -0.091104
     19 O                    -0.495306
     20 O                    -0.508444
     21 O                    -0.501309
     22 O                    -0.471799
     23 C                    -0.205024
     24 H                     0.139506
     25 H                     0.109241
     26 H                     0.108738
     27 C                    -0.197428
     28 H                     0.133193
     29 H                     0.111566
     30 H                     0.112033
     31 C                     0.026599
     32 S                     0.025947
     33 C                    -0.203805
     34 C                    -0.247437
     35 C                    -0.188292
     36 H                     0.194149
     37 H                     0.192661
     38 H                     0.210682
     39 H                     0.137081
     40 H                     0.137622
     41 H                     0.204157
  ----------------------------------------
  Sum of atomic charges =     0.000000

                    Cartesian Multipole Moments
 -----------------------------------------------------------------
    Charge (ESU x 10^10)
                 0.0000
    Dipole Moment (Debye)
         X      -0.2260      Y       2.2244      Z      -1.2368
       Tot       2.5552
    Quadrupole Moments (Debye-Ang)
        XX    -184.8461     XY      13.5229     YY    -181.0192
        XZ      14.8260     YZ      -2.8134     ZZ    -164.6112

 Total job time:  293.09s(wall), 8940.07s(cpu)
        *  Thank you very much for using Q-Chem.  Have a nice day.  *
