 Q-Chem 5.4, Q-Chem, Inc., Pleasanton, CA (2021)
 Q-Chem 5.4.0 for Intel X86 EM64T Linux

User input:
--------------------------------------------------------------
$molecule
0 1
C	-0.164018	-6.741404	0.197767
C	-1.003240	-6.155638	1.198109
C	0.533192	-5.791452	-0.632428
C	-1.182482	-4.803786	1.411364
H	-1.567483	-6.821518	1.870845
C	0.345145	-4.378638	-0.409419
C	-0.510347	-3.838032	0.609565
C	1.016449	-3.413062	-1.210332
C	-0.696879	-2.426473	0.830799
C	0.839039	-2.059348	-0.999856
C	-0.000000	-1.478216	-0.000000
H	1.403737	-1.394783	-1.673483
C	1.461835	-6.187987	-1.736282
C	1.936119	-3.798164	-2.306183
N	2.093916	-5.170003	-2.491597
C	-2.104529	-4.424987	2.510310
C	-1.625377	-2.036627	1.936153
N	-2.257873	-3.049156	2.691451
O	1.715561	-7.353131	-2.034222
O	2.528858	-2.986854	-3.014044
O	-2.690385	-5.248946	3.209622
O	-1.891876	-0.878829	2.251529
C	3.002711	-5.563799	-3.573032
H	3.032655	-6.664085	-3.606932
H	4.010326	-5.147101	-3.382888
H	2.640711	-5.148785	-4.533125
C	-3.152408	-2.587487	3.756832
H	-3.564653	-3.483329	4.249778
H	-3.960905	-1.964972	3.328759
H	-2.591422	-1.962932	4.477709
C	0.000000	0.000000	0.000000
S	0.335026	0.718942	1.580530
C	1.027130	2.203226	0.904911
C	0.421617	0.904557	-0.985400
C	0.979485	2.101144	-0.493528
H	0.322049	0.690978	-2.059934
H	1.351718	2.899571	-1.152593
H	1.399246	3.001430	1.556025
H	-0.783314	-7.361589	-0.461623
H	0.592677	-7.361192	0.693983
H	-0.826987	-1.478831	-0.694617
$end

$rem
JOBTYPE		SP
EXCHANGE	HF
CORRELATION	pRIMP2
BASIS		cc-pvtz
METHOD		rimp2
AUX_BASIS	rimp2-cc-pvtz
SOLVENT_METHOD	PCM
PURECART	11111
SYMMETRY	false
MEM_TOTAL	110000
SCF_CONVERGENCE = 6
THRESH=10
GUI = 2
$end

$solvent
dielectric 4.90
$end
--------------------------------------------------------------

             Standard Nuclear Orientation (Angstroms)
    I     Atom           X                Y                Z
 ----------------------------------------------------------------
    1      C      -0.1640180000    -6.7414040000     0.1977670000
    2      C      -1.0032400000    -6.1556380000     1.1981090000
    3      C       0.5331920000    -5.7914520000    -0.6324280000
    4      C      -1.1824820000    -4.8037860000     1.4113640000
    5      H      -1.5674830000    -6.8215180000     1.8708450000
    6      C       0.3451450000    -4.3786380000    -0.4094190000
    7      C      -0.5103470000    -3.8380320000     0.6095650000
    8      C       1.0164490000    -3.4130620000    -1.2103320000
    9      C      -0.6968790000    -2.4264730000     0.8307990000
   10      C       0.8390390000    -2.0593480000    -0.9998560000
   11      C       0.0000000000    -1.4782160000     0.0000000000
   12      H       1.4037370000    -1.3947830000    -1.6734830000
   13      C       1.4618350000    -6.1879870000    -1.7362820000
   14      C       1.9361190000    -3.7981640000    -2.3061830000
   15      N       2.0939160000    -5.1700030000    -2.4915970000
   16      C      -2.1045290000    -4.4249870000     2.5103100000
   17      C      -1.6253770000    -2.0366270000     1.9361530000
   18      N      -2.2578730000    -3.0491560000     2.6914510000
   19      O       1.7155610000    -7.3531310000    -2.0342220000
   20      O       2.5288580000    -2.9868540000    -3.0140440000
   21      O      -2.6903850000    -5.2489460000     3.2096220000
   22      O      -1.8918760000    -0.8788290000     2.2515290000
   23      C       3.0027110000    -5.5637990000    -3.5730320000
   24      H       3.0326550000    -6.6640850000    -3.6069320000
   25      H       4.0103260000    -5.1471010000    -3.3828880000
   26      H       2.6407110000    -5.1487850000    -4.5331250000
   27      C      -3.1524080000    -2.5874870000     3.7568320000
   28      H      -3.5646530000    -3.4833290000     4.2497780000
   29      H      -3.9609050000    -1.9649720000     3.3287590000
   30      H      -2.5914220000    -1.9629320000     4.4777090000
   31      C       0.0000000000     0.0000000000     0.0000000000
   32      S       0.3350260000     0.7189420000     1.5805300000
   33      C       1.0271300000     2.2032260000     0.9049110000
   34      C       0.4216170000     0.9045570000    -0.9854000000
   35      C       0.9794850000     2.1011440000    -0.4935280000
   36      H       0.3220490000     0.6909780000    -2.0599340000
   37      H       1.3517180000     2.8995710000    -1.1525930000
   38      H       1.3992460000     3.0014300000     1.5560250000
   39      H      -0.7833140000    -7.3615890000    -0.4616230000
   40      H       0.5926770000    -7.3611920000     0.6939830000
   41      H      -0.8269870000    -1.4788310000    -0.6946170000
 ----------------------------------------------------------------

   11   -1571.7310022435      5.75e-07  Convergence criterion met
 Total energy in the final basis set =    -1571.7310022435
        RIMP2         total energy =     -1576.3920902636 a.u.

                    Orbital Energies (a.u.)
 --------------------------------------------------------------

 Alpha MOs
 -- Occupied --
-91.9823 -20.5532 -20.5448 -20.5414 -20.5406 -15.6276 -15.6214 -11.3948
-11.3856 -11.3833 -11.3793 -11.3098 -11.3090 -11.3063 -11.3048 -11.2972
-11.2942 -11.2900 -11.2782 -11.2686 -11.2686 -11.2644 -11.2631 -11.2596
-11.2563 -11.2528 -11.2480  -8.9821  -6.6628  -6.6621  -6.6616  -1.4214
 -1.4122  -1.3984  -1.3914  -1.2630  -1.2555  -1.2305  -1.1868  -1.1511
 -1.1145  -1.0863  -1.0473  -0.9952  -0.9882  -0.9822  -0.9553  -0.9500
 -0.8968  -0.8886  -0.8773  -0.8603  -0.7931  -0.7776  -0.7721  -0.7625
 -0.7366  -0.7171  -0.7032  -0.6919  -0.6818  -0.6740  -0.6672  -0.6575
 -0.6476  -0.6455  -0.6369  -0.6328  -0.6310  -0.6287  -0.6212  -0.6054
 -0.5858  -0.5748  -0.5665  -0.5623  -0.5586  -0.5518  -0.5510  -0.5479
 -0.5475  -0.5441  -0.5228  -0.5117  -0.5093  -0.4823  -0.4741  -0.4596
 -0.4563  -0.4483  -0.4422  -0.4345  -0.4131  -0.4076  -0.3542  -0.3480
 -0.3301  -0.2814

          Ground-State Mulliken Net Atomic Charges

     Atom                 Charge (a.u.)
  ----------------------------------------
      1 C                    -0.084640
      2 C                    -0.030114
      3 C                    -0.110404
      4 C                    -0.125293
      5 H                     0.199257
      6 C                     0.025410
      7 C                     0.122076
      8 C                    -0.094489
      9 C                    -0.169529
     10 C                    -0.154110
     11 C                     0.205557
     12 H                     0.195422
     13 C                     0.341569
     14 C                     0.348705
     15 N                    -0.089778
     16 C                     0.357053
     17 C                     0.355193
     18 N                    -0.090801
     19 O                    -0.495229
     20 O                    -0.508766
     21 O                    -0.501104
     22 O                    -0.472930
     23 C                    -0.204963
     24 H                     0.139583
     25 H                     0.109312
     26 H                     0.108791
     27 C                    -0.197435
     28 H                     0.133519
     29 H                     0.111753
     30 H                     0.112179
     31 C                    -0.005763
     32 S                     0.053155
     33 C                    -0.224587
     34 C                    -0.238904
     35 C                    -0.193453
     36 H                     0.188046
     37 H                     0.190256
     38 H                     0.208385
     39 H                     0.137495
     40 H                     0.138057
     41 H                     0.211516
  ----------------------------------------
  Sum of atomic charges =     0.000000

                    Cartesian Multipole Moments
 -----------------------------------------------------------------
    Charge (ESU x 10^10)
                 0.0000
    Dipole Moment (Debye)
         X      -0.7188      Y       1.8379      Z      -0.5575
       Tot       2.0507
    Quadrupole Moments (Debye-Ang)
        XX    -174.3184     XY      11.0469     YY    -180.1631
        XZ      16.3599     YZ      -5.6702     ZZ    -175.5190

 Total job time:  294.76s(wall), 9165.58s(cpu)
        *  Thank you very much for using Q-Chem.  Have a nice day.  *
