 Q-Chem 5.4, Q-Chem, Inc., Pleasanton, CA (2021)
 Q-Chem 5.4.0 for Intel X86 EM64T Linux

User input:
--------------------------------------------------------------
$molecule
0 1
C	-0.195868	-6.741404	0.166281
C	-1.196048	-6.155638	1.005696
C	0.634911	-5.791452	-0.530233
C	-1.409599	-4.803786	1.184587
H	-1.868538	-6.821518	1.570232
C	0.410996	-4.378638	-0.343266
C	-0.608444	-3.838032	0.511683
C	1.211179	-3.413062	-1.015440
C	-0.830559	-2.426473	0.697165
C	0.999915	-2.059348	-0.838968
C	-0.000000	-1.478216	-0.000000
H	1.673009	-1.394783	-1.404302
C	1.741129	-6.187987	-1.456059
C	2.307170	-3.798164	-1.934944
N	2.494766	-5.170003	-2.090139
C	-2.508468	-4.424987	2.106725
C	-1.936893	-2.036627	1.624494
N	-2.690936	-3.049156	2.258486
O	2.042736	-7.353131	-1.705414
O	3.013823	-2.986854	-2.529122
O	-3.206857	-5.248946	2.693680
O	-2.254108	-0.878829	1.888802
C	3.577543	-5.563799	-2.997334
H	3.612920	-6.664085	-3.025519
H	4.536833	-5.147101	-2.635109
H	3.387762	-5.148785	-4.005702
C	-3.756883	-2.587487	3.152347
H	-4.248464	-3.483329	3.566218
H	-4.478763	-1.964972	2.590383
H	-3.329599	-1.962932	3.959687
C	0.000000	0.000000	0.000000
S	0.686805	0.396760	1.580530
C	2.105095	1.215640	0.904911
C	0.864201	0.499140	-0.985400
C	2.007514	1.159347	-0.493528
H	0.660136	0.381296	-2.059934
H	2.770388	1.599875	-1.152593
H	2.867745	1.656053	1.556025
H	-0.691254	-7.361589	-0.590631
H	0.463164	-7.361192	0.786357
H	-0.693804	-1.478831	-0.827669
$end

$rem
JOBTYPE		SP
EXCHANGE	HF
CORRELATION	pRIMP2
BASIS		cc-pvtz
METHOD		rimp2
AUX_BASIS	rimp2-cc-pvtz
SOLVENT_METHOD	PCM
PURECART	11111
SYMMETRY	false
MEM_TOTAL	110000
SCF_CONVERGENCE = 6
THRESH=10
GUI = 2
$end

$solvent
dielectric 4.90
$end
--------------------------------------------------------------

             Standard Nuclear Orientation (Angstroms)
    I     Atom           X                Y                Z
 ----------------------------------------------------------------
    1      C      -0.1958680000    -6.7414040000     0.1662810000
    2      C      -1.1960480000    -6.1556380000     1.0056960000
    3      C       0.6349110000    -5.7914520000    -0.5302330000
    4      C      -1.4095990000    -4.8037860000     1.1845870000
    5      H      -1.8685380000    -6.8215180000     1.5702320000
    6      C       0.4109960000    -4.3786380000    -0.3432660000
    7      C      -0.6084440000    -3.8380320000     0.5116830000
    8      C       1.2111790000    -3.4130620000    -1.0154400000
    9      C      -0.8305590000    -2.4264730000     0.6971650000
   10      C       0.9999150000    -2.0593480000    -0.8389680000
   11      C       0.0000000000    -1.4782160000     0.0000000000
   12      H       1.6730090000    -1.3947830000    -1.4043020000
   13      C       1.7411290000    -6.1879870000    -1.4560590000
   14      C       2.3071700000    -3.7981640000    -1.9349440000
   15      N       2.4947660000    -5.1700030000    -2.0901390000
   16      C      -2.5084680000    -4.4249870000     2.1067250000
   17      C      -1.9368930000    -2.0366270000     1.6244940000
   18      N      -2.6909360000    -3.0491560000     2.2584860000
   19      O       2.0427360000    -7.3531310000    -1.7054140000
   20      O       3.0138230000    -2.9868540000    -2.5291220000
   21      O      -3.2068570000    -5.2489460000     2.6936800000
   22      O      -2.2541080000    -0.8788290000     1.8888020000
   23      C       3.5775430000    -5.5637990000    -2.9973340000
   24      H       3.6129200000    -6.6640850000    -3.0255190000
   25      H       4.5368330000    -5.1471010000    -2.6351090000
   26      H       3.3877620000    -5.1487850000    -4.0057020000
   27      C      -3.7568830000    -2.5874870000     3.1523470000
   28      H      -4.2484640000    -3.4833290000     3.5662180000
   29      H      -4.4787630000    -1.9649720000     2.5903830000
   30      H      -3.3295990000    -1.9629320000     3.9596870000
   31      C       0.0000000000     0.0000000000     0.0000000000
   32      S       0.6868050000     0.3967600000     1.5805300000
   33      C       2.1050950000     1.2156400000     0.9049110000
   34      C       0.8642010000     0.4991400000    -0.9854000000
   35      C       2.0075140000     1.1593470000    -0.4935280000
   36      H       0.6601360000     0.3812960000    -2.0599340000
   37      H       2.7703880000     1.5998750000    -1.1525930000
   38      H       2.8677450000     1.6560530000     1.5560250000
   39      H      -0.6912540000    -7.3615890000    -0.5906310000
   40      H       0.4631640000    -7.3611920000     0.7863570000
   41      H      -0.6938040000    -1.4788310000    -0.8276690000
 ----------------------------------------------------------------

   11   -1571.6766230178      6.27e-07  Convergence criterion met
 Total energy in the final basis set =    -1571.6766230178
        RIMP2         total energy =     -1576.3492461897 a.u.

                    Orbital Energies (a.u.)
 --------------------------------------------------------------

 Alpha MOs
 -- Occupied --
-91.9879 -20.5528 -20.5435 -20.5388 -20.5383 -15.6262 -15.6195 -11.3930
-11.3840 -11.3803 -11.3771 -11.3065 -11.3050 -11.3041 -11.3021 -11.3019
-11.2943 -11.2842 -11.2766 -11.2693 -11.2661 -11.2632 -11.2621 -11.2597
-11.2586 -11.2564 -11.2501  -8.9884  -6.6690  -6.6681  -6.6679  -1.4194
 -1.4101  -1.3967  -1.3892  -1.2613  -1.2535  -1.2325  -1.1939  -1.1522
 -1.1115  -1.0837  -1.0450  -1.0006  -0.9947  -0.9862  -0.9541  -0.9481
 -0.8951  -0.8857  -0.8745  -0.8568  -0.7931  -0.7769  -0.7747  -0.7667
 -0.7395  -0.7163  -0.7033  -0.6916  -0.6829  -0.6716  -0.6658  -0.6559
 -0.6454  -0.6428  -0.6388  -0.6321  -0.6288  -0.6257  -0.6200  -0.6048
 -0.5884  -0.5784  -0.5713  -0.5608  -0.5568  -0.5506  -0.5496  -0.5461
 -0.5450  -0.5428  -0.5284  -0.5068  -0.5004  -0.4790  -0.4726  -0.4580
 -0.4521  -0.4497  -0.4407  -0.4322  -0.4125  -0.4059  -0.3561  -0.3500
 -0.3363  -0.2789

          Ground-State Mulliken Net Atomic Charges

     Atom                 Charge (a.u.)
  ----------------------------------------
      1 C                    -0.084613
      2 C                    -0.033998
      3 C                    -0.115995
      4 C                    -0.118935
      5 H                     0.197802
      6 C                     0.021963
      7 C                     0.106743
      8 C                    -0.073568
      9 C                    -0.203716
     10 C                    -0.207408
     11 C                     0.258986
     12 H                     0.190263
     13 C                     0.339097
     14 C                     0.344477
     15 N                    -0.088323
     16 C                     0.355681
     17 C                     0.356201
     18 N                    -0.089863
     19 O                    -0.499687
     20 O                    -0.513921
     21 O                    -0.502155
     22 O                    -0.472598
     23 C                    -0.205661
     24 H                     0.139422
     25 H                     0.108379
     26 H                     0.108121
     27 C                    -0.198620
     28 H                     0.133088
     29 H                     0.111544
     30 H                     0.111902
     31 C                    -0.141873
     32 S                     0.041196
     33 C                    -0.142095
     34 C                    -0.083380
     35 C                    -0.234255
     36 H                     0.199451
     37 H                     0.194968
     38 H                     0.216215
     39 H                     0.135304
     40 H                     0.135646
     41 H                     0.204218
  ----------------------------------------
  Sum of atomic charges =     0.000000

                    Cartesian Multipole Moments
 -----------------------------------------------------------------
    Charge (ESU x 10^10)
                 0.0000
    Dipole Moment (Debye)
         X       1.3429      Y       2.9017      Z      -0.8463
       Tot       3.3075
    Quadrupole Moments (Debye-Ang)
        XX    -172.8906     XY      14.5826     YY    -191.5357
        XZ      17.9662     YZ      -5.0052     ZZ    -169.7139

 Total job time:  302.45s(wall), 9220.82s(cpu)
        *  Thank you very much for using Q-Chem.  Have a nice day.  *
