 Q-Chem 5.4, Q-Chem, Inc., Pleasanton, CA (2021)
 Q-Chem 5.4.0 for Intel X86 EM64T Linux

User input:
--------------------------------------------------------------
$molecule
0 1
C	0.252767	-6.741404	-0.046070
C	1.538656	-6.155638	-0.272935
C	-0.814966	-5.791452	0.141739
C	1.813042	-4.803786	-0.321083
H	2.403318	-6.821518	-0.425592
C	-0.527566	-4.378638	0.091779
C	0.782769	-3.838032	-0.138909
C	-1.556632	-3.413062	0.273808
C	1.067868	-2.426473	-0.188483
C	-1.285436	-2.059348	0.226610
C	-0.000000	-1.478216	-0.000000
H	-2.151019	-1.394783	0.379657
C	-2.235891	-6.187987	0.390420
C	-2.965540	-3.798164	0.522125
N	-3.205600	-5.170003	0.562731
C	3.225760	-4.424987	-0.570244
C	2.489646	-2.036627	-0.438407
N	3.459662	-3.049156	-0.610438
O	-2.621768	-7.353131	0.455563
O	-3.874608	-2.986854	0.683373
O	4.124059	-5.248946	-0.729367
O	2.896516	-0.878829	-0.508697
C	-4.596910	-5.563799	0.806996
H	-4.641640	-6.664085	0.813717
H	-5.246567	-5.147101	0.013655
H	-4.936739	-5.148785	1.775159
C	4.829729	-2.587487	-0.851572
H	5.462387	-3.483329	-0.964204
H	5.173914	-1.964972	-0.003956
H	4.863360	-1.962932	-1.764390
C	0.000000	0.000000	0.000000
S	0.335026	0.718942	1.580530
C	1.027130	2.203226	0.904911
C	0.421617	0.904557	-0.985400
C	0.979485	2.101144	-0.493528
H	0.322049	0.690978	-2.059934
H	1.351718	2.899571	-1.152593
H	1.399246	3.001430	1.556025
H	0.303328	-7.361589	0.857128
H	-0.007933	-7.361192	-0.912587
H	0.187017	-1.478831	1.063684
$end

$rem
JOBTYPE		SP
EXCHANGE	HF
CORRELATION	pRIMP2
BASIS		cc-pvtz
METHOD		rimp2
AUX_BASIS	rimp2-cc-pvtz
SOLVENT_METHOD	PCM
PURECART	11111
SYMMETRY	false
MEM_TOTAL	110000
SCF_CONVERGENCE = 6
THRESH=10
GUI = 2
$end

$solvent
dielectric 4.90
$end
--------------------------------------------------------------

             Standard Nuclear Orientation (Angstroms)
    I     Atom           X                Y                Z
 ----------------------------------------------------------------
    1      C       0.2527670000    -6.7414040000    -0.0460700000
    2      C       1.5386560000    -6.1556380000    -0.2729350000
    3      C      -0.8149660000    -5.7914520000     0.1417390000
    4      C       1.8130420000    -4.8037860000    -0.3210830000
    5      H       2.4033180000    -6.8215180000    -0.4255920000
    6      C      -0.5275660000    -4.3786380000     0.0917790000
    7      C       0.7827690000    -3.8380320000    -0.1389090000
    8      C      -1.5566320000    -3.4130620000     0.2738080000
    9      C       1.0678680000    -2.4264730000    -0.1884830000
   10      C      -1.2854360000    -2.0593480000     0.2266100000
   11      C       0.0000000000    -1.4782160000     0.0000000000
   12      H      -2.1510190000    -1.3947830000     0.3796570000
   13      C      -2.2358910000    -6.1879870000     0.3904200000
   14      C      -2.9655400000    -3.7981640000     0.5221250000
   15      N      -3.2056000000    -5.1700030000     0.5627310000
   16      C       3.2257600000    -4.4249870000    -0.5702440000
   17      C       2.4896460000    -2.0366270000    -0.4384070000
   18      N       3.4596620000    -3.0491560000    -0.6104380000
   19      O      -2.6217680000    -7.3531310000     0.4555630000
   20      O      -3.8746080000    -2.9868540000     0.6833730000
   21      O       4.1240590000    -5.2489460000    -0.7293670000
   22      O       2.8965160000    -0.8788290000    -0.5086970000
   23      C      -4.5969100000    -5.5637990000     0.8069960000
   24      H      -4.6416400000    -6.6640850000     0.8137170000
   25      H      -5.2465670000    -5.1471010000     0.0136550000
   26      H      -4.9367390000    -5.1487850000     1.7751590000
   27      C       4.8297290000    -2.5874870000    -0.8515720000
   28      H       5.4623870000    -3.4833290000    -0.9642040000
   29      H       5.1739140000    -1.9649720000    -0.0039560000
   30      H       4.8633600000    -1.9629320000    -1.7643900000
   31      C       0.0000000000     0.0000000000     0.0000000000
   32      S       0.3350260000     0.7189420000     1.5805300000
   33      C       1.0271300000     2.2032260000     0.9049110000
   34      C       0.4216170000     0.9045570000    -0.9854000000
   35      C       0.9794850000     2.1011440000    -0.4935280000
   36      H       0.3220490000     0.6909780000    -2.0599340000
   37      H       1.3517180000     2.8995710000    -1.1525930000
   38      H       1.3992460000     3.0014300000     1.5560250000
   39      H       0.3033280000    -7.3615890000     0.8571280000
   40      H      -0.0079330000    -7.3611920000    -0.9125870000
   41      H       0.1870170000    -1.4788310000     1.0636840000
 ----------------------------------------------------------------

   11   -1571.7323876924      5.62e-07  Convergence criterion met
 Total energy in the final basis set =    -1571.7323876924
        RIMP2         total energy =     -1576.3899715261 a.u.

                    Orbital Energies (a.u.)
 --------------------------------------------------------------

 Alpha MOs
 -- Occupied --
-91.9916 -20.5502 -20.5440 -20.5408 -20.5394 -15.6261 -15.6204 -11.3919
-11.3846 -11.3827 -11.3779 -11.3076 -11.3061 -11.3039 -11.3038 -11.2958
-11.2872 -11.2862 -11.2853 -11.2677 -11.2675 -11.2626 -11.2622 -11.2589
-11.2564 -11.2520 -11.2504  -8.9915  -6.6723  -6.6718  -6.6712  -1.4183
 -1.4113  -1.3963  -1.3904  -1.2612  -1.2545  -1.2289  -1.1867  -1.1520
 -1.1128  -1.0856  -1.0454  -0.9957  -0.9871  -0.9852  -0.9543  -0.9506
 -0.8949  -0.8853  -0.8760  -0.8592  -0.7916  -0.7749  -0.7734  -0.7683
 -0.7387  -0.7159  -0.7037  -0.6906  -0.6756  -0.6695  -0.6667  -0.6564
 -0.6462  -0.6409  -0.6370  -0.6309  -0.6302  -0.6258  -0.6224  -0.6042
 -0.5837  -0.5741  -0.5673  -0.5608  -0.5560  -0.5506  -0.5494  -0.5472
 -0.5460  -0.5432  -0.5215  -0.5134  -0.5065  -0.4793  -0.4731  -0.4688
 -0.4554  -0.4497  -0.4418  -0.4338  -0.4128  -0.4067  -0.3551  -0.3506
 -0.3283  -0.2884

          Ground-State Mulliken Net Atomic Charges

     Atom                 Charge (a.u.)
  ----------------------------------------
      1 C                    -0.084260
      2 C                    -0.030862
      3 C                    -0.114660
      4 C                    -0.119894
      5 H                     0.198164
      6 C                     0.007111
      7 C                     0.115267
      8 C                    -0.065631
      9 C                    -0.140520
     10 C                    -0.171464
     11 C                     0.232862
     12 H                     0.190991
     13 C                     0.343192
     14 C                     0.349667
     15 N                    -0.089705
     16 C                     0.356619
     17 C                     0.355957
     18 N                    -0.089567
     19 O                    -0.495479
     20 O                    -0.508094
     21 O                    -0.502140
     22 O                    -0.469666
     23 C                    -0.204969
     24 H                     0.139301
     25 H                     0.108922
     26 H                     0.108893
     27 C                    -0.197770
     28 H                     0.133129
     29 H                     0.111518
     30 H                     0.110836
     31 C                    -0.065437
     32 S                     0.005867
     33 C                    -0.206787
     34 C                    -0.176556
     35 C                    -0.186737
     36 H                     0.186054
     37 H                     0.189990
     38 H                     0.213544
     39 H                     0.137080
     40 H                     0.137248
     41 H                     0.187991
  ----------------------------------------
  Sum of atomic charges =     0.000000

                    Cartesian Multipole Moments
 -----------------------------------------------------------------
    Charge (ESU x 10^10)
                 0.0000
    Dipole Moment (Debye)
         X       2.1790      Y       2.7246      Z      -0.5204
       Tot       3.5274
    Quadrupole Moments (Debye-Ang)
        XX    -193.2967     XY      -4.5045     YY    -180.8700
        XZ       6.1408     YZ       1.0807     ZZ    -157.1029

 Total job time:  303.37s(wall), 9141.99s(cpu)
        *  Thank you very much for using Q-Chem.  Have a nice day.  *
