 Q-Chem 5.4, Q-Chem, Inc., Pleasanton, CA (2021)
 Q-Chem 5.4.0 for Intel X86 EM64T Linux

User input:
--------------------------------------------------------------
$molecule
0 1
C	0.001478	-6.741404	0.256927
C	0.001603	-6.155638	1.562675
C	0.001931	-5.791452	-0.827197
C	0.001374	-4.803786	1.841253
H	0.001794	-6.821518	2.440709
C	0.001227	-4.378638	-0.535488
C	0.000872	-3.838032	0.794999
C	0.000658	-3.413062	-1.580529
C	0.000186	-2.426473	1.084374
C	0.000046	-2.059348	-1.305258
C	0.000000	-1.478216	0.000000
H	-0.000369	-1.394783	-2.184267
C	0.003770	-6.187987	-2.269719
C	0.000767	-3.798164	-3.011152
N	0.002465	-5.170003	-3.254617
C	0.001433	-4.424987	3.275775
C	-0.000576	-2.036627	2.527951
N	0.000400	-3.049156	3.513104
O	0.006623	-7.353131	-2.661046
O	-0.000172	-2.986854	-3.934410
O	0.002151	-5.248946	4.188059
O	-0.002006	-0.878829	2.940845
C	0.003509	-5.563799	-4.667206
H	0.004658	-6.664085	-4.712423
H	0.897610	-5.147101	-5.169231
H	-0.890935	-5.148785	-5.169992
C	-0.000039	-2.587487	4.904229
H	0.001022	-3.483329	5.546833
H	-0.894545	-1.964972	5.095998
H	0.893071	-1.962932	5.095858
C	0.000000	0.000000	0.000000
S	0.509686	0.607733	1.580530
C	1.562368	1.862312	0.904911
C	0.641367	0.764613	-0.985400
C	1.489926	1.776040	-0.493528
H	0.489914	0.584081	-2.059934
H	2.056124	2.450920	-1.152593
H	2.128395	2.537007	1.556025
H	-0.896779	-7.361589	0.149881
H	0.900100	-7.361192	0.150656
H	-1.080000	-1.478831	-0.000531
$end

$rem
JOBTYPE		SP
EXCHANGE	HF
CORRELATION	pRIMP2
BASIS		cc-pvtz
METHOD		rimp2
AUX_BASIS	rimp2-cc-pvtz
SOLVENT_METHOD	PCM
PURECART	11111
SYMMETRY	false
MEM_TOTAL	110000
SCF_CONVERGENCE = 6
THRESH=10
GUI = 2
$end

$solvent
dielectric 4.90
$end
--------------------------------------------------------------

             Standard Nuclear Orientation (Angstroms)
    I     Atom           X                Y                Z
 ----------------------------------------------------------------
    1      C       0.0014780000    -6.7414040000     0.2569270000
    2      C       0.0016030000    -6.1556380000     1.5626750000
    3      C       0.0019310000    -5.7914520000    -0.8271970000
    4      C       0.0013740000    -4.8037860000     1.8412530000
    5      H       0.0017940000    -6.8215180000     2.4407090000
    6      C       0.0012270000    -4.3786380000    -0.5354880000
    7      C       0.0008720000    -3.8380320000     0.7949990000
    8      C       0.0006580000    -3.4130620000    -1.5805290000
    9      C       0.0001860000    -2.4264730000     1.0843740000
   10      C       0.0000460000    -2.0593480000    -1.3052580000
   11      C       0.0000000000    -1.4782160000     0.0000000000
   12      H      -0.0003690000    -1.3947830000    -2.1842670000
   13      C       0.0037700000    -6.1879870000    -2.2697190000
   14      C       0.0007670000    -3.7981640000    -3.0111520000
   15      N       0.0024650000    -5.1700030000    -3.2546170000
   16      C       0.0014330000    -4.4249870000     3.2757750000
   17      C      -0.0005760000    -2.0366270000     2.5279510000
   18      N       0.0004000000    -3.0491560000     3.5131040000
   19      O       0.0066230000    -7.3531310000    -2.6610460000
   20      O      -0.0001720000    -2.9868540000    -3.9344100000
   21      O       0.0021510000    -5.2489460000     4.1880590000
   22      O      -0.0020060000    -0.8788290000     2.9408450000
   23      C       0.0035090000    -5.5637990000    -4.6672060000
   24      H       0.0046580000    -6.6640850000    -4.7124230000
   25      H       0.8976100000    -5.1471010000    -5.1692310000
   26      H      -0.8909350000    -5.1487850000    -5.1699920000
   27      C      -0.0000390000    -2.5874870000     4.9042290000
   28      H       0.0010220000    -3.4833290000     5.5468330000
   29      H      -0.8945450000    -1.9649720000     5.0959980000
   30      H       0.8930710000    -1.9629320000     5.0958580000
   31      C       0.0000000000     0.0000000000     0.0000000000
   32      S       0.5096860000     0.6077330000     1.5805300000
   33      C       1.5623680000     1.8623120000     0.9049110000
   34      C       0.6413670000     0.7646130000    -0.9854000000
   35      C       1.4899260000     1.7760400000    -0.4935280000
   36      H       0.4899140000     0.5840810000    -2.0599340000
   37      H       2.0561240000     2.4509200000    -1.1525930000
   38      H       2.1283950000     2.5370070000     1.5560250000
   39      H      -0.8967790000    -7.3615890000     0.1498810000
   40      H       0.9001000000    -7.3611920000     0.1506560000
   41      H      -1.0800000000    -1.4788310000    -0.0005310000
 ----------------------------------------------------------------

   11   -1571.6418211897      6.15e-07  Convergence criterion met
 Total energy in the final basis set =    -1571.6418211897
        RIMP2         total energy =     -1576.3237369523 a.u.

                    Orbital Energies (a.u.)
 --------------------------------------------------------------

 Alpha MOs
 -- Occupied --
-91.9676 -20.5608 -20.5469 -20.5402 -20.5400 -15.6325 -15.6209 -11.4033
-11.3877 -11.3823 -11.3785 -11.3106 -11.3092 -11.3076 -11.3047 -11.2982
-11.2856 -11.2764 -11.2695 -11.2668 -11.2659 -11.2640 -11.2620 -11.2592
-11.2538 -11.2527 -11.2367  -8.9681  -6.6486  -6.6468  -6.6457  -1.4392
 -1.4115  -1.4046  -1.3906  -1.2699  -1.2551  -1.2304  -1.1852  -1.1459
 -1.1146  -1.0841  -1.0483  -0.9951  -0.9892  -0.9785  -0.9562  -0.9470
 -0.8993  -0.8898  -0.8794  -0.8621  -0.7899  -0.7834  -0.7763  -0.7599
 -0.7305  -0.7286  -0.7013  -0.6895  -0.6891  -0.6766  -0.6686  -0.6586
 -0.6519  -0.6439  -0.6370  -0.6333  -0.6321  -0.6311  -0.6226  -0.6062
 -0.5907  -0.5713  -0.5697  -0.5634  -0.5585  -0.5568  -0.5533  -0.5490
 -0.5474  -0.5452  -0.5247  -0.5127  -0.5095  -0.4900  -0.4683  -0.4613
 -0.4542  -0.4431  -0.4374  -0.4211  -0.4073  -0.3773  -0.3541  -0.3298
 -0.3263  -0.2727

          Ground-State Mulliken Net Atomic Charges

     Atom                 Charge (a.u.)
  ----------------------------------------
      1 C                    -0.084935
      2 C                    -0.028811
      3 C                    -0.114140
      4 C                    -0.121407
      5 H                     0.199284
      6 C                     0.022059
      7 C                     0.118354
      8 C                    -0.092920
      9 C                    -0.205743
     10 C                    -0.126801
     11 C                     0.170477
     12 H                     0.191959
     13 C                     0.341025
     14 C                     0.346926
     15 N                    -0.089487
     16 C                     0.357829
     17 C                     0.390625
     18 N                    -0.085991
     19 O                    -0.497440
     20 O                    -0.510306
     21 O                    -0.498710
     22 O                    -0.429666
     23 C                    -0.205238
     24 H                     0.139481
     25 H                     0.109041
     26 H                     0.108851
     27 C                    -0.198881
     28 H                     0.135670
     29 H                     0.112651
     30 H                     0.113483
     31 C                    -0.041571
     32 S                     0.080293
     33 C                    -0.240514
     34 C                    -0.182558
     35 C                    -0.238456
     36 H                     0.184426
     37 H                     0.179852
     38 H                     0.199865
     39 H                     0.137227
     40 H                     0.137468
     41 H                     0.216729
  ----------------------------------------
  Sum of atomic charges =     0.000000

                    Cartesian Multipole Moments
 -----------------------------------------------------------------
    Charge (ESU x 10^10)
                 0.0000
    Dipole Moment (Debye)
         X       0.0255      Y       0.8415      Z       1.6945
       Tot       1.8921
    Quadrupole Moments (Debye-Ang)
        XX    -159.0669     XY       5.4401     YY    -184.7017
        XZ       0.6195     YZ     -11.0967     ZZ    -185.7116

 Total job time:  342.88s(wall), 9918.28s(cpu)
        *  Thank you very much for using Q-Chem.  Have a nice day.  *
