 Q-Chem 5.4, Q-Chem, Inc., Pleasanton, CA (2021)
 Q-Chem 5.4.0 for Intel X86 EM64T Linux

User input:
--------------------------------------------------------------
$molecule
0 1
C	0.127184	-6.741404	-0.223244
C	0.779949	-6.155638	-1.354118
C	-0.415271	-5.791452	0.715408
C	0.919437	-4.803786	-1.595259
H	1.218801	-6.821518	-2.114613
C	-0.268806	-4.378638	0.463133
C	0.396744	-3.838032	-0.688925
C	-0.790835	-3.413062	1.368449
C	0.542026	-2.426473	-0.939189
C	-0.652669	-2.059348	1.130363
C	0.000000	-1.478216	0.000000
H	-1.091814	-1.394783	1.891815
C	-1.138124	-6.187987	1.963749
C	-1.506241	-3.798164	2.607351
N	-1.629443	-5.170003	2.817348
C	1.636646	-4.424987	-2.837621
C	1.264474	-2.036627	-2.188982
N	1.756205	-3.049156	-3.042637
O	-1.336258	-7.353131	2.301222
O	-1.967056	-2.986854	3.407386
O	2.092167	-5.248946	-3.628041
O	1.472160	-0.878829	-2.545844
C	-2.336642	-5.563799	4.040164
H	-2.360245	-6.664085	4.078749
H	-3.361968	-5.147101	4.027880
H	-1.813424	-5.148785	4.922811
C	2.452149	-2.587487	-4.247167
H	2.772531	-3.483329	-4.804209
H	3.322697	-1.964972	-3.965991
H	1.774507	-1.962932	-4.859678
C	0.000000	0.000000	0.000000
S	0.509686	0.607733	1.580530
C	1.562368	1.862312	0.904911
C	0.641367	0.764613	-0.985400
C	1.489926	1.776040	-0.493528
H	0.489914	0.584081	-2.059934
H	2.056124	2.450920	-1.152593
H	2.128395	2.537007	1.556025
H	0.851574	-7.361589	0.318588
H	-0.704181	-7.361192	-0.580522
H	0.935042	-1.478831	0.540459
$end

$rem
JOBTYPE		SP
EXCHANGE	HF
CORRELATION	pRIMP2
BASIS		cc-pvtz
METHOD		rimp2
AUX_BASIS	rimp2-cc-pvtz
SOLVENT_METHOD	PCM
PURECART	11111
SYMMETRY	false
MEM_TOTAL	110000
SCF_CONVERGENCE = 6
THRESH=10
GUI = 2
$end

$solvent
dielectric 4.90
$end
--------------------------------------------------------------

             Standard Nuclear Orientation (Angstroms)
    I     Atom           X                Y                Z
 ----------------------------------------------------------------
    1      C       0.1271840000    -6.7414040000    -0.2232440000
    2      C       0.7799490000    -6.1556380000    -1.3541180000
    3      C      -0.4152710000    -5.7914520000     0.7154080000
    4      C       0.9194370000    -4.8037860000    -1.5952590000
    5      H       1.2188010000    -6.8215180000    -2.1146130000
    6      C      -0.2688060000    -4.3786380000     0.4631330000
    7      C       0.3967440000    -3.8380320000    -0.6889250000
    8      C      -0.7908350000    -3.4130620000     1.3684490000
    9      C       0.5420260000    -2.4264730000    -0.9391890000
   10      C      -0.6526690000    -2.0593480000     1.1303630000
   11      C       0.0000000000    -1.4782160000     0.0000000000
   12      H      -1.0918140000    -1.3947830000     1.8918150000
   13      C      -1.1381240000    -6.1879870000     1.9637490000
   14      C      -1.5062410000    -3.7981640000     2.6073510000
   15      N      -1.6294430000    -5.1700030000     2.8173480000
   16      C       1.6366460000    -4.4249870000    -2.8376210000
   17      C       1.2644740000    -2.0366270000    -2.1889820000
   18      N       1.7562050000    -3.0491560000    -3.0426370000
   19      O      -1.3362580000    -7.3531310000     2.3012220000
   20      O      -1.9670560000    -2.9868540000     3.4073860000
   21      O       2.0921670000    -5.2489460000    -3.6280410000
   22      O       1.4721600000    -0.8788290000    -2.5458440000
   23      C      -2.3366420000    -5.5637990000     4.0401640000
   24      H      -2.3602450000    -6.6640850000     4.0787490000
   25      H      -3.3619680000    -5.1471010000     4.0278800000
   26      H      -1.8134240000    -5.1487850000     4.9228110000
   27      C       2.4521490000    -2.5874870000    -4.2471670000
   28      H       2.7725310000    -3.4833290000    -4.8042090000
   29      H       3.3226970000    -1.9649720000    -3.9659910000
   30      H       1.7745070000    -1.9629320000    -4.8596780000
   31      C       0.0000000000     0.0000000000     0.0000000000
   32      S       0.5096860000     0.6077330000     1.5805300000
   33      C       1.5623680000     1.8623120000     0.9049110000
   34      C       0.6413670000     0.7646130000    -0.9854000000
   35      C       1.4899260000     1.7760400000    -0.4935280000
   36      H       0.4899140000     0.5840810000    -2.0599340000
   37      H       2.0561240000     2.4509200000    -1.1525930000
   38      H       2.1283950000     2.5370070000     1.5560250000
   39      H       0.8515740000    -7.3615890000     0.3185880000
   40      H      -0.7041810000    -7.3611920000    -0.5805220000
   41      H       0.9350420000    -1.4788310000     0.5404590000
 ----------------------------------------------------------------

   11   -1571.6942574464      5.68e-07  Convergence criterion met
 Total energy in the final basis set =    -1571.6942574464
        RIMP2         total energy =     -1576.3600422813 a.u.

                    Orbital Energies (a.u.)
 --------------------------------------------------------------

 Alpha MOs
 -- Occupied --
-91.9836 -20.5507 -20.5453 -20.5407 -20.5398 -15.6290 -15.6205 -11.3973
-11.3859 -11.3826 -11.3782 -11.3072 -11.3054 -11.3051 -11.3038 -11.2961
-11.2893 -11.2849 -11.2769 -11.2679 -11.2677 -11.2644 -11.2643 -11.2588
-11.2522 -11.2488 -11.2468  -8.9846  -6.6655  -6.6649  -6.6642  -1.4244
 -1.4114  -1.4000  -1.3906  -1.2646  -1.2548  -1.2305  -1.1887  -1.1502
 -1.1132  -1.0849  -1.0466  -0.9960  -0.9881  -0.9847  -0.9551  -0.9483
 -0.8964  -0.8868  -0.8772  -0.8602  -0.7914  -0.7785  -0.7719  -0.7638
 -0.7395  -0.7245  -0.7027  -0.6877  -0.6783  -0.6743  -0.6668  -0.6574
 -0.6476  -0.6465  -0.6369  -0.6311  -0.6304  -0.6292  -0.6228  -0.6041
 -0.5887  -0.5691  -0.5684  -0.5607  -0.5569  -0.5517  -0.5507  -0.5481
 -0.5471  -0.5424  -0.5184  -0.5127  -0.5060  -0.4808  -0.4729  -0.4635
 -0.4555  -0.4476  -0.4417  -0.4344  -0.4154  -0.4070  -0.3548  -0.3468
 -0.3300  -0.2764

          Ground-State Mulliken Net Atomic Charges

     Atom                 Charge (a.u.)
  ----------------------------------------
      1 C                    -0.085052
      2 C                    -0.031357
      3 C                    -0.113663
      4 C                    -0.122160
      5 H                     0.198336
      6 C                     0.017544
      7 C                     0.129338
      8 C                    -0.075174
      9 C                    -0.192716
     10 C                    -0.147726
     11 C                     0.180196
     12 H                     0.183046
     13 C                     0.342986
     14 C                     0.346134
     15 N                    -0.089670
     16 C                     0.357636
     17 C                     0.396463
     18 N                    -0.087199
     19 O                    -0.495601
     20 O                    -0.507296
     21 O                    -0.500826
     22 O                    -0.480796
     23 C                    -0.205123
     24 H                     0.139267
     25 H                     0.109191
     26 H                     0.109051
     27 C                    -0.199185
     28 H                     0.134705
     29 H                     0.111454
     30 H                     0.111856
     31 C                    -0.059281
     32 S                    -0.010165
     33 C                    -0.197005
     34 C                    -0.147842
     35 C                    -0.209395
     36 H                     0.202580
     37 H                     0.191951
     38 H                     0.214432
     39 H                     0.136940
     40 H                     0.137342
     41 H                     0.206790
  ----------------------------------------
  Sum of atomic charges =     0.000000

                    Cartesian Multipole Moments
 -----------------------------------------------------------------
    Charge (ESU x 10^10)
                 0.0000
    Dipole Moment (Debye)
         X       3.0326      Y       2.1058      Z      -2.2000
       Tot       4.2978
    Quadrupole Moments (Debye-Ang)
        XX    -165.8041     XY       0.0265     YY    -183.2287
        XZ      14.2630     YZ       7.9474     ZZ    -180.7697

 Total job time:  435.72s(wall), 9108.25s(cpu)
        *  Thank you very much for using Q-Chem.  Have a nice day.  *
