 Q-Chem 5.4, Q-Chem, Inc., Pleasanton, CA (2021)
 Q-Chem 5.4.0 for Intel X86 EM64T Linux

User input:
--------------------------------------------------------------
$molecule
0 1
C	0.089263	-6.741404	0.240927
C	0.535973	-6.155638	1.467886
C	-0.281103	-5.791452	-0.777972
C	0.631036	-4.803786	1.729742
H	0.836458	-6.821518	2.292903
C	-0.181995	-4.378638	-0.503614
C	0.272725	-3.838032	0.746756
C	-0.539954	-3.413062	-1.485437
C	0.371053	-2.426473	1.018915
C	-0.446381	-2.059348	-1.226557
C	-0.000000	-1.478216	-0.000000
H	-0.747410	-1.394783	-2.052413
C	-0.772747	-6.187987	-2.134128
C	-1.029154	-3.798164	-2.829820
N	-1.110828	-5.170003	-3.059182
C	1.121728	-4.424987	3.077731
C	0.864069	-2.036627	2.375694
N	1.201928	-3.049156	3.301101
O	-0.903908	-7.353131	-2.502830
O	-1.345809	-2.986854	-3.697078
O	1.434422	-5.248946	3.934752
O	1.003943	-0.878829	2.764177
C	-1.592981	-5.563799	-4.386939
H	-1.607367	-6.664085	-4.429822
H	-0.924504	-5.147101	-5.164489
H	-2.605446	-5.148785	-4.553486
C	1.677308	-2.587487	4.608481
H	1.898089	-3.483329	5.211969
H	0.902337	-1.964972	5.094624
H	2.582098	-1.962932	4.483092
C	0.000000	0.000000	0.000000
S	0.271091	0.745405	1.580530
C	0.831198	2.284363	0.904911
C	0.341175	0.937861	-0.985400
C	0.792631	2.178516	-0.493528
H	0.260601	0.716417	-2.059934
H	1.093860	3.006347	-1.152593
H	1.132330	3.111961	1.556025
H	-0.791434	-7.361589	0.447559
H	0.897345	-7.361192	-0.166282
H	-1.015049	-1.478831	0.368883
$end

$rem
JOBTYPE		SP
EXCHANGE	HF
CORRELATION	pRIMP2
BASIS		cc-pvtz
METHOD		rimp2
AUX_BASIS	rimp2-cc-pvtz
SOLVENT_METHOD	PCM
PURECART	11111
SYMMETRY	false
MEM_TOTAL	110000
SCF_CONVERGENCE = 6
THRESH=10
GUI = 2
$end

$solvent
dielectric 4.90
$end
--------------------------------------------------------------

             Standard Nuclear Orientation (Angstroms)
    I     Atom           X                Y                Z
 ----------------------------------------------------------------
    1      C       0.0892630000    -6.7414040000     0.2409270000
    2      C       0.5359730000    -6.1556380000     1.4678860000
    3      C      -0.2811030000    -5.7914520000    -0.7779720000
    4      C       0.6310360000    -4.8037860000     1.7297420000
    5      H       0.8364580000    -6.8215180000     2.2929030000
    6      C      -0.1819950000    -4.3786380000    -0.5036140000
    7      C       0.2727250000    -3.8380320000     0.7467560000
    8      C      -0.5399540000    -3.4130620000    -1.4854370000
    9      C       0.3710530000    -2.4264730000     1.0189150000
   10      C      -0.4463810000    -2.0593480000    -1.2265570000
   11      C       0.0000000000    -1.4782160000     0.0000000000
   12      H      -0.7474100000    -1.3947830000    -2.0524130000
   13      C      -0.7727470000    -6.1879870000    -2.1341280000
   14      C      -1.0291540000    -3.7981640000    -2.8298200000
   15      N      -1.1108280000    -5.1700030000    -3.0591820000
   16      C       1.1217280000    -4.4249870000     3.0777310000
   17      C       0.8640690000    -2.0366270000     2.3756940000
   18      N       1.2019280000    -3.0491560000     3.3011010000
   19      O      -0.9039080000    -7.3531310000    -2.5028300000
   20      O      -1.3458090000    -2.9868540000    -3.6970780000
   21      O       1.4344220000    -5.2489460000     3.9347520000
   22      O       1.0039430000    -0.8788290000     2.7641770000
   23      C      -1.5929810000    -5.5637990000    -4.3869390000
   24      H      -1.6073670000    -6.6640850000    -4.4298220000
   25      H      -0.9245040000    -5.1471010000    -5.1644890000
   26      H      -2.6054460000    -5.1487850000    -4.5534860000
   27      C       1.6773080000    -2.5874870000     4.6084810000
   28      H       1.8980890000    -3.4833290000     5.2119690000
   29      H       0.9023370000    -1.9649720000     5.0946240000
   30      H       2.5820980000    -1.9629320000     4.4830920000
   31      C       0.0000000000     0.0000000000     0.0000000000
   32      S       0.2710910000     0.7454050000     1.5805300000
   33      C       0.8311980000     2.2843630000     0.9049110000
   34      C       0.3411750000     0.9378610000    -0.9854000000
   35      C       0.7926310000     2.1785160000    -0.4935280000
   36      H       0.2606010000     0.7164170000    -2.0599340000
   37      H       1.0938600000     3.0063470000    -1.1525930000
   38      H       1.1323300000     3.1119610000     1.5560250000
   39      H      -0.7914340000    -7.3615890000     0.4475590000
   40      H       0.8973450000    -7.3611920000    -0.1662820000
   41      H      -1.0150490000    -1.4788310000     0.3688830000
 ----------------------------------------------------------------

   11   -1571.6720828842      6.15e-07  Convergence criterion met
 Total energy in the final basis set =    -1571.6720828842
        RIMP2         total energy =     -1576.3474044522 a.u.

                    Orbital Energies (a.u.)
 --------------------------------------------------------------

 Alpha MOs
 -- Occupied --
-91.9724 -20.5551 -20.5470 -20.5419 -20.5410 -15.6316 -15.6218 -11.4021
-11.3877 -11.3839 -11.3795 -11.3123 -11.3091 -11.3090 -11.3058 -11.2993
-11.2888 -11.2847 -11.2702 -11.2698 -11.2655 -11.2655 -11.2616 -11.2597
-11.2540 -11.2446 -11.2330  -8.9728  -6.6532  -6.6519  -6.6510  -1.4340
 -1.4126  -1.4038  -1.3917  -1.2687  -1.2561  -1.2308  -1.1844  -1.1450
 -1.1155  -1.0858  -1.0490  -0.9943  -0.9894  -0.9751  -0.9566  -0.9472
 -0.8989  -0.8904  -0.8798  -0.8630  -0.7910  -0.7819  -0.7760  -0.7590
 -0.7304  -0.7266  -0.7013  -0.6906  -0.6881  -0.6737  -0.6687  -0.6591
 -0.6517  -0.6442  -0.6383  -0.6329  -0.6324  -0.6318  -0.6243  -0.6059
 -0.5893  -0.5717  -0.5663  -0.5634  -0.5562  -0.5538  -0.5533  -0.5494
 -0.5482  -0.5455  -0.5201  -0.5145  -0.5117  -0.4877  -0.4765  -0.4636
 -0.4558  -0.4443  -0.4382  -0.4219  -0.4082  -0.3987  -0.3550  -0.3261
 -0.3140  -0.2766

          Ground-State Mulliken Net Atomic Charges

     Atom                 Charge (a.u.)
  ----------------------------------------
      1 C                    -0.084284
      2 C                    -0.027312
      3 C                    -0.110777
      4 C                    -0.123527
      5 H                     0.199764
      6 C                     0.022795
      7 C                     0.124001
      8 C                    -0.103871
      9 C                    -0.222627
     10 C                    -0.133900
     11 C                     0.217808
     12 H                     0.195369
     13 C                     0.342611
     14 C                     0.349169
     15 N                    -0.090036
     16 C                     0.358467
     17 C                     0.407100
     18 N                    -0.089204
     19 O                    -0.494696
     20 O                    -0.507758
     21 O                    -0.499067
     22 O                    -0.436539
     23 C                    -0.204778
     24 H                     0.139529
     25 H                     0.109399
     26 H                     0.109196
     27 C                    -0.199479
     28 H                     0.135122
     29 H                     0.112900
     30 H                     0.113228
     31 C                    -0.078037
     32 S                     0.071711
     33 C                    -0.235358
     34 C                    -0.168194
     35 C                    -0.252972
     36 H                     0.180830
     37 H                     0.180026
     38 H                     0.202935
     39 H                     0.138415
     40 H                     0.138705
     41 H                     0.213336
  ----------------------------------------
  Sum of atomic charges =     0.000000

                    Cartesian Multipole Moments
 -----------------------------------------------------------------
    Charge (ESU x 10^10)
                 0.0000
    Dipole Moment (Debye)
         X       0.4742      Y       0.3162      Z       1.8535
       Tot       1.9391
    Quadrupole Moments (Debye-Ang)
        XX    -165.1087     XY       0.5044     YY    -179.6472
        XZ      -8.7684     YZ      -9.6319     ZZ    -182.2808

 Total job time:  447.35s(wall), 16047.59s(cpu)
        *  Thank you very much for using Q-Chem.  Have a nice day.  *
