 Q-Chem 5.4, Q-Chem, Inc., Pleasanton, CA (2021)
 Q-Chem 5.4.0 for Intel X86 EM64T Linux

User input:
--------------------------------------------------------------
$molecule
0 1
C	0.129743	-6.741404	0.221766
C	0.782726	-6.155638	1.352515
C	-0.411926	-5.791452	-0.717339
C	0.921816	-4.803786	1.593885
H	1.221908	-6.821518	2.112819
C	-0.266682	-4.378638	-0.464360
C	0.398255	-3.838032	0.688053
C	-0.789694	-3.413062	-1.369108
C	0.542349	-2.426473	0.939002
C	-0.652589	-2.059348	-1.130409
C	-0.000000	-1.478216	-0.000000
H	-1.092453	-1.394783	-1.891446
C	-1.131595	-6.187987	-1.967519
C	-1.504912	-3.798164	-2.608118
N	-1.625174	-5.170003	-2.819813
C	1.639129	-4.424987	2.836188
C	1.263477	-2.036627	2.189558
N	1.756898	-3.049156	3.042237
O	-1.324787	-7.353131	-2.307845
O	-1.967354	-2.986854	-3.407213
O	2.095892	-5.248946	3.625890
O	1.468685	-0.878829	2.547850
C	-2.330564	-5.563799	-4.043674
H	-2.352178	-6.664085	-4.083407
H	-1.807263	-5.147101	-4.925490
H	-3.356568	-5.148785	-4.031877
C	2.452080	-2.587487	4.247206
H	2.774302	-3.483329	4.803187
H	1.773301	-1.964972	4.860536
H	3.321351	-1.962932	3.966607
C	0.000000	0.000000	0.000000
S	0.271091	0.745405	1.580530
C	0.831198	2.284363	0.904911
C	0.341175	0.937861	-0.985400
C	0.792631	2.178516	-0.493528
H	0.260601	0.716417	-2.059934
H	1.093860	3.006347	-1.152593
H	1.132330	3.111961	1.556025
H	-0.701693	-7.361589	0.578191
H	0.854838	-7.361192	-0.319578
H	-0.935572	-1.478831	0.539540
$end

$rem
JOBTYPE		SP
EXCHANGE	HF
CORRELATION	pRIMP2
BASIS		cc-pvtz
METHOD		rimp2
AUX_BASIS	rimp2-cc-pvtz
SOLVENT_METHOD	PCM
PURECART	11111
SYMMETRY	false
MEM_TOTAL	110000
SCF_CONVERGENCE = 6
THRESH=10
GUI = 2
$end

$solvent
dielectric 4.90
$end
--------------------------------------------------------------

             Standard Nuclear Orientation (Angstroms)
    I     Atom           X                Y                Z
 ----------------------------------------------------------------
    1      C       0.1297430000    -6.7414040000     0.2217660000
    2      C       0.7827260000    -6.1556380000     1.3525150000
    3      C      -0.4119260000    -5.7914520000    -0.7173390000
    4      C       0.9218160000    -4.8037860000     1.5938850000
    5      H       1.2219080000    -6.8215180000     2.1128190000
    6      C      -0.2666820000    -4.3786380000    -0.4643600000
    7      C       0.3982550000    -3.8380320000     0.6880530000
    8      C      -0.7896940000    -3.4130620000    -1.3691080000
    9      C       0.5423490000    -2.4264730000     0.9390020000
   10      C      -0.6525890000    -2.0593480000    -1.1304090000
   11      C       0.0000000000    -1.4782160000     0.0000000000
   12      H      -1.0924530000    -1.3947830000    -1.8914460000
   13      C      -1.1315950000    -6.1879870000    -1.9675190000
   14      C      -1.5049120000    -3.7981640000    -2.6081180000
   15      N      -1.6251740000    -5.1700030000    -2.8198130000
   16      C       1.6391290000    -4.4249870000     2.8361880000
   17      C       1.2634770000    -2.0366270000     2.1895580000
   18      N       1.7568980000    -3.0491560000     3.0422370000
   19      O      -1.3247870000    -7.3531310000    -2.3078450000
   20      O      -1.9673540000    -2.9868540000    -3.4072130000
   21      O       2.0958920000    -5.2489460000     3.6258900000
   22      O       1.4686850000    -0.8788290000     2.5478500000
   23      C      -2.3305640000    -5.5637990000    -4.0436740000
   24      H      -2.3521780000    -6.6640850000    -4.0834070000
   25      H      -1.8072630000    -5.1471010000    -4.9254900000
   26      H      -3.3565680000    -5.1487850000    -4.0318770000
   27      C       2.4520800000    -2.5874870000     4.2472060000
   28      H       2.7743020000    -3.4833290000     4.8031870000
   29      H       1.7733010000    -1.9649720000     4.8605360000
   30      H       3.3213510000    -1.9629320000     3.9666070000
   31      C       0.0000000000     0.0000000000     0.0000000000
   32      S       0.2710910000     0.7454050000     1.5805300000
   33      C       0.8311980000     2.2843630000     0.9049110000
   34      C       0.3411750000     0.9378610000    -0.9854000000
   35      C       0.7926310000     2.1785160000    -0.4935280000
   36      H       0.2606010000     0.7164170000    -2.0599340000
   37      H       1.0938600000     3.0063470000    -1.1525930000
   38      H       1.1323300000     3.1119610000     1.5560250000
   39      H      -0.7016930000    -7.3615890000     0.5781910000
   40      H       0.8548380000    -7.3611920000    -0.3195780000
   41      H      -0.9355720000    -1.4788310000     0.5395400000
 ----------------------------------------------------------------

   11   -1571.6856942385      6.09e-07  Convergence criterion met
 Total energy in the final basis set =    -1571.6856942385
        RIMP2         total energy =     -1576.3587777636 a.u.

                    Orbital Energies (a.u.)
 --------------------------------------------------------------

 Alpha MOs
 -- Occupied --
-91.9761 -20.5515 -20.5459 -20.5418 -20.5407 -15.6296 -15.6215 -11.3985
-11.3866 -11.3837 -11.3792 -11.3111 -11.3085 -11.3075 -11.3053 -11.2984
-11.2880 -11.2840 -11.2697 -11.2695 -11.2694 -11.2648 -11.2645 -11.2596
-11.2535 -11.2456 -11.2355  -8.9765  -6.6568  -6.6561  -6.6554  -1.4285
 -1.4124  -1.4018  -1.3915  -1.2662  -1.2558  -1.2300  -1.1842  -1.1463
 -1.1148  -1.0856  -1.0481  -0.9935  -0.9888  -0.9762  -0.9559  -0.9479
 -0.8973  -0.8893  -0.8788  -0.8621  -0.7906  -0.7797  -0.7746  -0.7607
 -0.7303  -0.7228  -0.7012  -0.6900  -0.6864  -0.6717  -0.6682  -0.6583
 -0.6503  -0.6430  -0.6383  -0.6326  -0.6317  -0.6301  -0.6242  -0.6052
 -0.5878  -0.5713  -0.5653  -0.5622  -0.5576  -0.5529  -0.5525  -0.5489
 -0.5480  -0.5448  -0.5175  -0.5146  -0.5111  -0.4856  -0.4763  -0.4622
 -0.4553  -0.4442  -0.4379  -0.4269  -0.4095  -0.4076  -0.3542  -0.3274
 -0.3136  -0.2794

          Ground-State Mulliken Net Atomic Charges

     Atom                 Charge (a.u.)
  ----------------------------------------
      1 C                    -0.084380
      2 C                    -0.027909
      3 C                    -0.111282
      4 C                    -0.123183
      5 H                     0.199468
      6 C                     0.019360
      7 C                     0.122414
      8 C                    -0.100768
      9 C                    -0.222897
     10 C                    -0.141324
     11 C                     0.231332
     12 H                     0.194740
     13 C                     0.342786
     14 C                     0.349450
     15 N                    -0.089827
     16 C                     0.357396
     17 C                     0.409573
     18 N                    -0.089992
     19 O                    -0.494741
     20 O                    -0.507717
     21 O                    -0.500285
     22 O                    -0.451397
     23 C                    -0.204762
     24 H                     0.139501
     25 H                     0.109202
     26 H                     0.109173
     27 C                    -0.198691
     28 H                     0.134562
     29 H                     0.112168
     30 H                     0.112508
     31 C                    -0.090982
     32 S                     0.070801
     33 C                    -0.220936
     34 C                    -0.166491
     35 C                    -0.246910
     36 H                     0.184924
     37 H                     0.182867
     38 H                     0.206073
     39 H                     0.138140
     40 H                     0.138437
     41 H                     0.209598
  ----------------------------------------
  Sum of atomic charges =     0.000000

                    Cartesian Multipole Moments
 -----------------------------------------------------------------
    Charge (ESU x 10^10)
                 0.0000
    Dipole Moment (Debye)
         X       0.9221      Y       0.8598      Z       1.6293
       Tot       2.0602
    Quadrupole Moments (Debye-Ang)
        XX    -169.2921     XY      -0.5585     YY    -179.9356
        XZ     -12.3934     YZ      -8.3618     ZZ    -178.9216

 Total job time:  352.14s(wall), 10469.24s(cpu)
        *  Thank you very much for using Q-Chem.  Have a nice day.  *
