 Q-Chem 5.4, Q-Chem, Inc., Pleasanton, CA (2021)
 Q-Chem 5.4.0 for Intel X86 EM64T Linux

User input:
--------------------------------------------------------------
$molecule
0 1
C	0.223244	-6.741404	0.127184
C	1.354118	-6.155638	0.779949
C	-0.715408	-5.791452	-0.415271
C	1.595259	-4.803786	0.919437
H	2.114613	-6.821518	1.218801
C	-0.463133	-4.378638	-0.268806
C	0.688925	-3.838032	0.396744
C	-1.368449	-3.413062	-0.790835
C	0.939189	-2.426473	0.542026
C	-1.130363	-2.059348	-0.652669
C	0.000000	-1.478216	0.000000
H	-1.891815	-1.394783	-1.091814
C	-1.963749	-6.187987	-1.138124
C	-2.607351	-3.798164	-1.506241
N	-2.817348	-5.170003	-1.629443
C	2.837621	-4.424987	1.636646
C	2.188982	-2.036627	1.264474
N	3.042637	-3.049156	1.756205
O	-2.301222	-7.353131	-1.336258
O	-3.407386	-2.986854	-1.967056
O	3.628041	-5.248946	2.092167
O	2.545844	-0.878829	1.472160
C	-4.040164	-5.563799	-2.336642
H	-4.078749	-6.664085	-2.360245
H	-4.027880	-5.147101	-3.361968
H	-4.922811	-5.148785	-1.813424
C	4.247167	-2.587487	2.452149
H	4.804209	-3.483329	2.772531
H	3.965991	-1.964972	3.322697
H	4.859678	-1.962932	1.774507
C	0.000000	0.000000	0.000000
S	0.509686	0.607733	1.580530
C	1.562368	1.862312	0.904911
C	0.641367	0.764613	-0.985400
C	1.489926	1.776040	-0.493528
H	0.489914	0.584081	-2.059934
H	2.056124	2.450920	-1.152593
H	2.128395	2.537007	1.556025
H	-0.318588	-7.361589	0.851574
H	0.580522	-7.361192	-0.704181
H	-0.540459	-1.478831	0.935042
$end

$rem
JOBTYPE		SP
EXCHANGE	HF
CORRELATION	pRIMP2
BASIS		cc-pvtz
METHOD		rimp2
AUX_BASIS	rimp2-cc-pvtz
SOLVENT_METHOD	PCM
PURECART	11111
SYMMETRY	false
MEM_TOTAL	110000
SCF_CONVERGENCE = 6
THRESH=10
GUI = 2
$end

$solvent
dielectric 4.90
$end
--------------------------------------------------------------

             Standard Nuclear Orientation (Angstroms)
    I     Atom           X                Y                Z
 ----------------------------------------------------------------
    1      C       0.2232440000    -6.7414040000     0.1271840000
    2      C       1.3541180000    -6.1556380000     0.7799490000
    3      C      -0.7154080000    -5.7914520000    -0.4152710000
    4      C       1.5952590000    -4.8037860000     0.9194370000
    5      H       2.1146130000    -6.8215180000     1.2188010000
    6      C      -0.4631330000    -4.3786380000    -0.2688060000
    7      C       0.6889250000    -3.8380320000     0.3967440000
    8      C      -1.3684490000    -3.4130620000    -0.7908350000
    9      C       0.9391890000    -2.4264730000     0.5420260000
   10      C      -1.1303630000    -2.0593480000    -0.6526690000
   11      C       0.0000000000    -1.4782160000     0.0000000000
   12      H      -1.8918150000    -1.3947830000    -1.0918140000
   13      C      -1.9637490000    -6.1879870000    -1.1381240000
   14      C      -2.6073510000    -3.7981640000    -1.5062410000
   15      N      -2.8173480000    -5.1700030000    -1.6294430000
   16      C       2.8376210000    -4.4249870000     1.6366460000
   17      C       2.1889820000    -2.0366270000     1.2644740000
   18      N       3.0426370000    -3.0491560000     1.7562050000
   19      O      -2.3012220000    -7.3531310000    -1.3362580000
   20      O      -3.4073860000    -2.9868540000    -1.9670560000
   21      O       3.6280410000    -5.2489460000     2.0921670000
   22      O       2.5458440000    -0.8788290000     1.4721600000
   23      C      -4.0401640000    -5.5637990000    -2.3366420000
   24      H      -4.0787490000    -6.6640850000    -2.3602450000
   25      H      -4.0278800000    -5.1471010000    -3.3619680000
   26      H      -4.9228110000    -5.1487850000    -1.8134240000
   27      C       4.2471670000    -2.5874870000     2.4521490000
   28      H       4.8042090000    -3.4833290000     2.7725310000
   29      H       3.9659910000    -1.9649720000     3.3226970000
   30      H       4.8596780000    -1.9629320000     1.7745070000
   31      C       0.0000000000     0.0000000000     0.0000000000
   32      S       0.5096860000     0.6077330000     1.5805300000
   33      C       1.5623680000     1.8623120000     0.9049110000
   34      C       0.6413670000     0.7646130000    -0.9854000000
   35      C       1.4899260000     1.7760400000    -0.4935280000
   36      H       0.4899140000     0.5840810000    -2.0599340000
   37      H       2.0561240000     2.4509200000    -1.1525930000
   38      H       2.1283950000     2.5370070000     1.5560250000
   39      H      -0.3185880000    -7.3615890000     0.8515740000
   40      H       0.5805220000    -7.3611920000    -0.7041810000
   41      H      -0.5404590000    -1.4788310000     0.9350420000
 ----------------------------------------------------------------

   11   -1571.6933975387      6.08e-07  Convergence criterion met
 Total energy in the final basis set =    -1571.6933975387
        RIMP2         total energy =     -1576.3641089616 a.u.

                    Orbital Energies (a.u.)
 --------------------------------------------------------------

 Alpha MOs
 -- Occupied --
-91.9805 -20.5472 -20.5437 -20.5398 -20.5387 -15.6260 -15.6197 -11.3910
-11.3842 -11.3818 -11.3770 -11.3068 -11.3042 -11.3033 -11.3031 -11.2953
-11.2880 -11.2834 -11.2731 -11.2671 -11.2661 -11.2628 -11.2606 -11.2585
-11.2582 -11.2514 -11.2465  -8.9810  -6.6616  -6.6610  -6.6609  -1.4197
 -1.4106  -1.3972  -1.3897  -1.2615  -1.2539  -1.2276  -1.1851  -1.1498
 -1.1118  -1.0835  -1.0447  -0.9934  -0.9869  -0.9827  -0.9539  -0.9495
 -0.8940  -0.8841  -0.8758  -0.8588  -0.7878  -0.7750  -0.7733  -0.7671
 -0.7331  -0.7177  -0.7024  -0.6898  -0.6769  -0.6676  -0.6666  -0.6561
 -0.6464  -0.6403  -0.6365  -0.6306  -0.6297  -0.6264  -0.6236  -0.6025
 -0.5837  -0.5709  -0.5679  -0.5615  -0.5569  -0.5512  -0.5498  -0.5482
 -0.5467  -0.5426  -0.5156  -0.5099  -0.5040  -0.4803  -0.4691  -0.4620
 -0.4524  -0.4443  -0.4410  -0.4329  -0.4133  -0.4061  -0.3510  -0.3313
 -0.3285  -0.2854

          Ground-State Mulliken Net Atomic Charges

     Atom                 Charge (a.u.)
  ----------------------------------------
      1 C                    -0.084378
      2 C                    -0.032021
      3 C                    -0.116533
      4 C                    -0.118563
      5 H                     0.198110
      6 C                     0.011192
      7 C                     0.118651
      8 C                    -0.082644
      9 C                    -0.207852
     10 C                    -0.158729
     11 C                     0.221265
     12 H                     0.191702
     13 C                     0.342282
     14 C                     0.346259
     15 N                    -0.089339
     16 C                     0.354965
     17 C                     0.388400
     18 N                    -0.088638
     19 O                    -0.496952
     20 O                    -0.509141
     21 O                    -0.502841
     22 O                    -0.468310
     23 C                    -0.205172
     24 H                     0.139161
     25 H                     0.108635
     26 H                     0.108739
     27 C                    -0.197404
     28 H                     0.133672
     29 H                     0.110454
     30 H                     0.110780
     31 C                    -0.081849
     32 S                     0.017639
     33 C                    -0.150347
     34 C                    -0.140023
     35 C                    -0.227116
     36 H                     0.190236
     37 H                     0.188196
     38 H                     0.210097
     39 H                     0.136506
     40 H                     0.136636
     41 H                     0.194272
  ----------------------------------------
  Sum of atomic charges =     0.000000

                    Cartesian Multipole Moments
 -----------------------------------------------------------------
    Charge (ESU x 10^10)
                 0.0000
    Dipole Moment (Debye)
         X       2.8031      Y       2.5025      Z       0.6084
       Tot       3.8066
    Quadrupole Moments (Debye-Ang)
        XX    -182.6143     XY      -1.3920     YY    -185.9753
        XZ     -12.8273     YZ      -5.2642     ZZ    -164.1062

 Total job time:  313.37s(wall), 8921.24s(cpu)
        *  Thank you very much for using Q-Chem.  Have a nice day.  *
