 Q-Chem 5.4, Q-Chem, Inc., Pleasanton, CA (2021)
 Q-Chem 5.4.0 for Intel X86 EM64T Linux

User input:
--------------------------------------------------------------
$molecule
0 1
C	-0.089263	-6.741404	-0.240927
C	-0.535973	-6.155638	-1.467886
C	0.281103	-5.791452	0.777972
C	-0.631036	-4.803786	-1.729742
H	-0.836458	-6.821518	-2.292903
C	0.181995	-4.378638	0.503614
C	-0.272725	-3.838032	-0.746756
C	0.539954	-3.413062	1.485437
C	-0.371053	-2.426473	-1.018915
C	0.446381	-2.059348	1.226557
C	0.000000	-1.478216	0.000000
H	0.747410	-1.394783	2.052413
C	0.772747	-6.187987	2.134128
C	1.029154	-3.798164	2.829820
N	1.110828	-5.170003	3.059182
C	-1.121728	-4.424987	-3.077731
C	-0.864069	-2.036627	-2.375694
N	-1.201928	-3.049156	-3.301101
O	0.903908	-7.353131	2.502830
O	1.345809	-2.986854	3.697078
O	-1.434422	-5.248946	-3.934752
O	-1.003943	-0.878829	-2.764177
C	1.592981	-5.563799	4.386939
H	1.607367	-6.664085	4.429822
H	0.924504	-5.147101	5.164489
H	2.605446	-5.148785	4.553486
C	-1.677308	-2.587487	-4.608481
H	-1.898089	-3.483329	-5.211969
H	-0.902337	-1.964972	-5.094624
H	-2.582098	-1.962932	-4.483092
C	0.000000	0.000000	0.000000
S	0.137535	0.781156	1.580530
C	0.421895	2.393994	0.904911
C	0.173134	0.982857	-0.985400
C	0.402294	2.283058	-0.493528
H	0.132237	0.750786	-2.059934
H	0.555196	3.150621	-1.152593
H	0.574741	3.261310	1.556025
H	0.791434	-7.361589	-0.447559
H	-0.897345	-7.361192	0.166282
H	1.015049	-1.478831	-0.368883
$end

$rem
JOBTYPE		SP
EXCHANGE	HF
CORRELATION	pRIMP2
BASIS		cc-pvtz
METHOD		rimp2
AUX_BASIS	rimp2-cc-pvtz
SOLVENT_METHOD	PCM
PURECART	11111
SYMMETRY	false
MEM_TOTAL	110000
SCF_CONVERGENCE = 6
THRESH=10
GUI = 2
$end

$solvent
dielectric 4.90
$end
--------------------------------------------------------------

             Standard Nuclear Orientation (Angstroms)
    I     Atom           X                Y                Z
 ----------------------------------------------------------------
    1      C      -0.0892630000    -6.7414040000    -0.2409270000
    2      C      -0.5359730000    -6.1556380000    -1.4678860000
    3      C       0.2811030000    -5.7914520000     0.7779720000
    4      C      -0.6310360000    -4.8037860000    -1.7297420000
    5      H      -0.8364580000    -6.8215180000    -2.2929030000
    6      C       0.1819950000    -4.3786380000     0.5036140000
    7      C      -0.2727250000    -3.8380320000    -0.7467560000
    8      C       0.5399540000    -3.4130620000     1.4854370000
    9      C      -0.3710530000    -2.4264730000    -1.0189150000
   10      C       0.4463810000    -2.0593480000     1.2265570000
   11      C       0.0000000000    -1.4782160000     0.0000000000
   12      H       0.7474100000    -1.3947830000     2.0524130000
   13      C       0.7727470000    -6.1879870000     2.1341280000
   14      C       1.0291540000    -3.7981640000     2.8298200000
   15      N       1.1108280000    -5.1700030000     3.0591820000
   16      C      -1.1217280000    -4.4249870000    -3.0777310000
   17      C      -0.8640690000    -2.0366270000    -2.3756940000
   18      N      -1.2019280000    -3.0491560000    -3.3011010000
   19      O       0.9039080000    -7.3531310000     2.5028300000
   20      O       1.3458090000    -2.9868540000     3.6970780000
   21      O      -1.4344220000    -5.2489460000    -3.9347520000
   22      O      -1.0039430000    -0.8788290000    -2.7641770000
   23      C       1.5929810000    -5.5637990000     4.3869390000
   24      H       1.6073670000    -6.6640850000     4.4298220000
   25      H       0.9245040000    -5.1471010000     5.1644890000
   26      H       2.6054460000    -5.1487850000     4.5534860000
   27      C      -1.6773080000    -2.5874870000    -4.6084810000
   28      H      -1.8980890000    -3.4833290000    -5.2119690000
   29      H      -0.9023370000    -1.9649720000    -5.0946240000
   30      H      -2.5820980000    -1.9629320000    -4.4830920000
   31      C       0.0000000000     0.0000000000     0.0000000000
   32      S       0.1375350000     0.7811560000     1.5805300000
   33      C       0.4218950000     2.3939940000     0.9049110000
   34      C       0.1731340000     0.9828570000    -0.9854000000
   35      C       0.4022940000     2.2830580000    -0.4935280000
   36      H       0.1322370000     0.7507860000    -2.0599340000
   37      H       0.5551960000     3.1506210000    -1.1525930000
   38      H       0.5747410000     3.2613100000     1.5560250000
   39      H       0.7914340000    -7.3615890000    -0.4475590000
   40      H      -0.8973450000    -7.3611920000     0.1662820000
   41      H       1.0150490000    -1.4788310000    -0.3688830000
 ----------------------------------------------------------------

   11   -1571.7373612449      5.88e-07  Convergence criterion met
 Total energy in the final basis set =    -1571.7373612449
        RIMP2         total energy =     -1576.3956609632 a.u.

                    Orbital Energies (a.u.)
 --------------------------------------------------------------

 Alpha MOs
 -- Occupied --
-91.9904 -20.5534 -20.5455 -20.5423 -20.5413 -15.6285 -15.6218 -11.3962
-11.3862 -11.3841 -11.3799 -11.3100 -11.3089 -11.3063 -11.3053 -11.2992
-11.2976 -11.2926 -11.2754 -11.2702 -11.2690 -11.2669 -11.2640 -11.2596
-11.2535 -11.2481 -11.2416  -8.9904  -6.6712  -6.6707  -6.6701  -1.4222
 -1.4128  -1.3992  -1.3920  -1.2639  -1.2561  -1.2319  -1.1879  -1.1509
 -1.1153  -1.0875  -1.0485  -0.9957  -0.9886  -0.9831  -0.9558  -0.9498
 -0.8979  -0.8903  -0.8780  -0.8612  -0.7959  -0.7806  -0.7723  -0.7587
 -0.7399  -0.7174  -0.7019  -0.6908  -0.6837  -0.6731  -0.6683  -0.6581
 -0.6487  -0.6468  -0.6383  -0.6322  -0.6316  -0.6292  -0.6237  -0.6052
 -0.5916  -0.5726  -0.5644  -0.5604  -0.5586  -0.5524  -0.5509  -0.5496
 -0.5482  -0.5433  -0.5164  -0.5149  -0.5127  -0.4865  -0.4756  -0.4617
 -0.4581  -0.4515  -0.4434  -0.4359  -0.4149  -0.4082  -0.3564  -0.3507
 -0.3318  -0.2791

          Ground-State Mulliken Net Atomic Charges

     Atom                 Charge (a.u.)
  ----------------------------------------
      1 C                    -0.084831
      2 C                    -0.030270
      3 C                    -0.106243
      4 C                    -0.125706
      5 H                     0.199354
      6 C                     0.023360
      7 C                     0.114830
      8 C                    -0.061725
      9 C                    -0.196756
     10 C                    -0.156446
     11 C                     0.183382
     12 H                     0.180583
     13 C                     0.342107
     14 C                     0.348190
     15 N                    -0.090159
     16 C                     0.358438
     17 C                     0.372625
     18 N                    -0.089490
     19 O                    -0.493652
     20 O                    -0.506617
     21 O                    -0.500851
     22 O                    -0.480885
     23 C                    -0.204758
     24 H                     0.139493
     25 H                     0.109711
     26 H                     0.109297
     27 C                    -0.198084
     28 H                     0.134066
     29 H                     0.111209
     30 H                     0.112349
     31 C                    -0.008126
     32 S                    -0.001240
     33 C                    -0.216961
     34 C                    -0.154410
     35 C                    -0.233035
     36 H                     0.203283
     37 H                     0.189451
     38 H                     0.213319
     39 H                     0.138101
     40 H                     0.138343
     41 H                     0.218756
  ----------------------------------------
  Sum of atomic charges =     0.000000

                    Cartesian Multipole Moments
 -----------------------------------------------------------------
    Charge (ESU x 10^10)
                 0.0000
    Dipole Moment (Debye)
         X       0.7888      Y       1.5619      Z      -2.3378
       Tot       2.9201
    Quadrupole Moments (Debye-Ang)
        XX    -166.0500     XY       3.3969     YY    -176.8302
        XZ     -10.4850     YZ       9.2179     ZZ    -185.1245

 Total job time:  314.20s(wall), 9422.16s(cpu)
        *  Thank you very much for using Q-Chem.  Have a nice day.  *
