 Q-Chem 5.4, Q-Chem, Inc., Pleasanton, CA (2021)
 Q-Chem 5.4.0 for Intel X86 EM64T Linux

User input:
--------------------------------------------------------------
$molecule
0 1
C	-0.127184	-6.741404	0.223244
C	-0.779949	-6.155638	1.354118
C	0.415271	-5.791452	-0.715408
C	-0.919437	-4.803786	1.595259
H	-1.218801	-6.821518	2.114613
C	0.268806	-4.378638	-0.463133
C	-0.396744	-3.838032	0.688925
C	0.790835	-3.413062	-1.368449
C	-0.542026	-2.426473	0.939189
C	0.652669	-2.059348	-1.130363
C	-0.000000	-1.478216	-0.000000
H	1.091814	-1.394783	-1.891815
C	1.138124	-6.187987	-1.963749
C	1.506241	-3.798164	-2.607351
N	1.629443	-5.170003	-2.817348
C	-1.636646	-4.424987	2.837621
C	-1.264474	-2.036627	2.188982
N	-1.756205	-3.049156	3.042637
O	1.336258	-7.353131	-2.301222
O	1.967056	-2.986854	-3.407386
O	-2.092167	-5.248946	3.628041
O	-1.472160	-0.878829	2.545844
C	2.336642	-5.563799	-4.040164
H	2.360245	-6.664085	-4.078749
H	3.361968	-5.147101	-4.027880
H	1.813424	-5.148785	-4.922811
C	-2.452149	-2.587487	4.247167
H	-2.772531	-3.483329	4.804209
H	-3.322697	-1.964972	3.965991
H	-1.774507	-1.962932	4.859678
C	0.000000	0.000000	0.000000
S	0.607475	0.509994	1.580530
C	1.862020	1.562717	0.904911
C	0.764397	0.641624	-0.985400
C	1.775697	1.490335	-0.493528
H	0.583895	0.490135	-2.059934
H	2.450484	2.056643	-1.152593
H	2.536607	2.128872	1.556025
H	-0.851574	-7.361589	-0.318588
H	0.704181	-7.361192	0.580522
H	-0.935042	-1.478831	-0.540459
$end

$rem
JOBTYPE		SP
EXCHANGE	HF
CORRELATION	pRIMP2
BASIS		cc-pvtz
METHOD		rimp2
AUX_BASIS	rimp2-cc-pvtz
SOLVENT_METHOD	PCM
PURECART	11111
SYMMETRY	false
MEM_TOTAL	110000
SCF_CONVERGENCE = 6
THRESH=10
GUI = 2
$end

$solvent
dielectric 4.90
$end
--------------------------------------------------------------

             Standard Nuclear Orientation (Angstroms)
    I     Atom           X                Y                Z
 ----------------------------------------------------------------
    1      C      -0.1271840000    -6.7414040000     0.2232440000
    2      C      -0.7799490000    -6.1556380000     1.3541180000
    3      C       0.4152710000    -5.7914520000    -0.7154080000
    4      C      -0.9194370000    -4.8037860000     1.5952590000
    5      H      -1.2188010000    -6.8215180000     2.1146130000
    6      C       0.2688060000    -4.3786380000    -0.4631330000
    7      C      -0.3967440000    -3.8380320000     0.6889250000
    8      C       0.7908350000    -3.4130620000    -1.3684490000
    9      C      -0.5420260000    -2.4264730000     0.9391890000
   10      C       0.6526690000    -2.0593480000    -1.1303630000
   11      C       0.0000000000    -1.4782160000     0.0000000000
   12      H       1.0918140000    -1.3947830000    -1.8918150000
   13      C       1.1381240000    -6.1879870000    -1.9637490000
   14      C       1.5062410000    -3.7981640000    -2.6073510000
   15      N       1.6294430000    -5.1700030000    -2.8173480000
   16      C      -1.6366460000    -4.4249870000     2.8376210000
   17      C      -1.2644740000    -2.0366270000     2.1889820000
   18      N      -1.7562050000    -3.0491560000     3.0426370000
   19      O       1.3362580000    -7.3531310000    -2.3012220000
   20      O       1.9670560000    -2.9868540000    -3.4073860000
   21      O      -2.0921670000    -5.2489460000     3.6280410000
   22      O      -1.4721600000    -0.8788290000     2.5458440000
   23      C       2.3366420000    -5.5637990000    -4.0401640000
   24      H       2.3602450000    -6.6640850000    -4.0787490000
   25      H       3.3619680000    -5.1471010000    -4.0278800000
   26      H       1.8134240000    -5.1487850000    -4.9228110000
   27      C      -2.4521490000    -2.5874870000     4.2471670000
   28      H      -2.7725310000    -3.4833290000     4.8042090000
   29      H      -3.3226970000    -1.9649720000     3.9659910000
   30      H      -1.7745070000    -1.9629320000     4.8596780000
   31      C       0.0000000000     0.0000000000     0.0000000000
   32      S       0.6074750000     0.5099940000     1.5805300000
   33      C       1.8620200000     1.5627170000     0.9049110000
   34      C       0.7643970000     0.6416240000    -0.9854000000
   35      C       1.7756970000     1.4903350000    -0.4935280000
   36      H       0.5838950000     0.4901350000    -2.0599340000
   37      H       2.4504840000     2.0566430000    -1.1525930000
   38      H       2.5366070000     2.1288720000     1.5560250000
   39      H      -0.8515740000    -7.3615890000    -0.3185880000
   40      H       0.7041810000    -7.3611920000     0.5805220000
   41      H      -0.9350420000    -1.4788310000    -0.5404590000
 ----------------------------------------------------------------

   11   -1571.6882501791      6.06e-07  Convergence criterion met
 Total energy in the final basis set =    -1571.6882501791
        RIMP2         total energy =     -1576.3604856488 a.u.

                    Orbital Energies (a.u.)
 --------------------------------------------------------------

 Alpha MOs
 -- Occupied --
-91.9821 -20.5546 -20.5443 -20.5391 -20.5389 -15.6277 -15.6199 -11.3953
-11.3850 -11.3809 -11.3775 -11.3069 -11.3053 -11.3049 -11.3028 -11.2954
-11.2906 -11.2849 -11.2769 -11.2671 -11.2671 -11.2644 -11.2630 -11.2611
-11.2588 -11.2512 -11.2509  -8.9822  -6.6628  -6.6619  -6.6615  -1.4225
 -1.4105  -1.3987  -1.3896  -1.2630  -1.2540  -1.2303  -1.1895  -1.1512
 -1.1125  -1.0840  -1.0459  -0.9971  -0.9886  -0.9865  -0.9545  -0.9486
 -0.8957  -0.8871  -0.8761  -0.8585  -0.7909  -0.7780  -0.7736  -0.7655
 -0.7346  -0.7163  -0.7027  -0.6918  -0.6832  -0.6733  -0.6668  -0.6566
 -0.6468  -0.6436  -0.6366  -0.6320  -0.6295  -0.6277  -0.6202  -0.6055
 -0.5891  -0.5740  -0.5695  -0.5624  -0.5582  -0.5516  -0.5506  -0.5469
 -0.5464  -0.5437  -0.5270  -0.5078  -0.5047  -0.4821  -0.4678  -0.4573
 -0.4537  -0.4451  -0.4397  -0.4324  -0.4122  -0.4063  -0.3565  -0.3470
 -0.3334  -0.2757

          Ground-State Mulliken Net Atomic Charges

     Atom                 Charge (a.u.)
  ----------------------------------------
      1 C                    -0.084397
      2 C                    -0.032552
      3 C                    -0.114649
      4 C                    -0.120743
      5 H                     0.198340
      6 C                     0.017106
      7 C                     0.112189
      8 C                    -0.076968
      9 C                    -0.183864
     10 C                    -0.181972
     11 C                     0.216992
     12 H                     0.187303
     13 C                     0.338844
     14 C                     0.347731
     15 N                    -0.088932
     16 C                     0.355899
     17 C                     0.368670
     18 N                    -0.090364
     19 O                    -0.498802
     20 O                    -0.512917
     21 O                    -0.501316
     22 O                    -0.479160
     23 C                    -0.205529
     24 H                     0.139432
     25 H                     0.108659
     26 H                     0.108379
     27 C                    -0.198021
     28 H                     0.133796
     29 H                     0.111680
     30 H                     0.112194
     31 C                    -0.072734
     32 S                     0.063163
     33 C                    -0.185436
     34 C                    -0.153306
     35 C                    -0.214630
     36 H                     0.186550
     37 H                     0.192376
     38 H                     0.211675
     39 H                     0.135877
     40 H                     0.136235
     41 H                     0.213205
  ----------------------------------------
  Sum of atomic charges =     0.000000

                    Cartesian Multipole Moments
 -----------------------------------------------------------------
    Charge (ESU x 10^10)
                 0.0000
    Dipole Moment (Debye)
         X       0.4741      Y       2.5369      Z      -0.1105
       Tot       2.5832
    Quadrupole Moments (Debye-Ang)
        XX    -164.1467     XY      12.0859     YY    -188.4579
        XZ      15.1446     YZ      -7.7452     ZZ    -180.7697

 Total job time:  295.29s(wall), 9096.90s(cpu)
        *  Thank you very much for using Q-Chem.  Have a nice day.  *
