 Q-Chem 5.4, Q-Chem, Inc., Pleasanton, CA (2021)
 Q-Chem 5.4.0 for Intel X86 EM64T Linux

User input:
--------------------------------------------------------------
$molecule
0 1
C	-0.046070	-6.741404	-0.252767
C	-0.272935	-6.155638	-1.538656
C	0.141739	-5.791452	0.814966
C	-0.321083	-4.803786	-1.813042
H	-0.425592	-6.821518	-2.403318
C	0.091779	-4.378638	0.527566
C	-0.138909	-3.838032	-0.782769
C	0.273808	-3.413062	1.556632
C	-0.188483	-2.426473	-1.067868
C	0.226610	-2.059348	1.285436
C	0.000000	-1.478216	0.000000
H	0.379657	-1.394783	2.151019
C	0.390420	-6.187987	2.235891
C	0.522125	-3.798164	2.965540
N	0.562731	-5.170003	3.205600
C	-0.570244	-4.424987	-3.225760
C	-0.438407	-2.036627	-2.489646
N	-0.610438	-3.049156	-3.459662
O	0.455563	-7.353131	2.621768
O	0.683373	-2.986854	3.874608
O	-0.729367	-5.248946	-4.124059
O	-0.508697	-0.878829	-2.896516
C	0.806996	-5.563799	4.596910
H	0.813717	-6.664085	4.641640
H	0.013655	-5.147101	5.246567
H	1.775159	-5.148785	4.936739
C	-0.851572	-2.587487	-4.829729
H	-0.964204	-3.483329	-5.462387
H	-0.003956	-1.964972	-5.173914
H	-1.764390	-1.962932	-4.863360
C	0.000000	0.000000	0.000000
S	0.068929	0.790170	1.580530
C	0.211639	2.421655	0.904911
C	0.086813	0.994207	-0.985400
C	0.201782	2.309433	-0.493528
H	0.066299	0.759454	-2.059934
H	0.278488	3.187020	-1.152593
H	0.288312	3.298992	1.556025
H	0.857128	-7.361589	-0.303328
H	-0.912587	-7.361192	0.007933
H	1.063684	-1.478831	-0.187017
$end

$rem
JOBTYPE		SP
EXCHANGE	HF
CORRELATION	pRIMP2
BASIS		cc-pvtz
METHOD		rimp2
AUX_BASIS	rimp2-cc-pvtz
SOLVENT_METHOD	PCM
PURECART	11111
SYMMETRY	false
MEM_TOTAL	110000
SCF_CONVERGENCE = 6
THRESH=10
GUI = 2
$end

$solvent
dielectric 4.90
$end
--------------------------------------------------------------

             Standard Nuclear Orientation (Angstroms)
    I     Atom           X                Y                Z
 ----------------------------------------------------------------
    1      C      -0.0460700000    -6.7414040000    -0.2527670000
    2      C      -0.2729350000    -6.1556380000    -1.5386560000
    3      C       0.1417390000    -5.7914520000     0.8149660000
    4      C      -0.3210830000    -4.8037860000    -1.8130420000
    5      H      -0.4255920000    -6.8215180000    -2.4033180000
    6      C       0.0917790000    -4.3786380000     0.5275660000
    7      C      -0.1389090000    -3.8380320000    -0.7827690000
    8      C       0.2738080000    -3.4130620000     1.5566320000
    9      C      -0.1884830000    -2.4264730000    -1.0678680000
   10      C       0.2266100000    -2.0593480000     1.2854360000
   11      C       0.0000000000    -1.4782160000     0.0000000000
   12      H       0.3796570000    -1.3947830000     2.1510190000
   13      C       0.3904200000    -6.1879870000     2.2358910000
   14      C       0.5221250000    -3.7981640000     2.9655400000
   15      N       0.5627310000    -5.1700030000     3.2056000000
   16      C      -0.5702440000    -4.4249870000    -3.2257600000
   17      C      -0.4384070000    -2.0366270000    -2.4896460000
   18      N      -0.6104380000    -3.0491560000    -3.4596620000
   19      O       0.4555630000    -7.3531310000     2.6217680000
   20      O       0.6833730000    -2.9868540000     3.8746080000
   21      O      -0.7293670000    -5.2489460000    -4.1240590000
   22      O      -0.5086970000    -0.8788290000    -2.8965160000
   23      C       0.8069960000    -5.5637990000     4.5969100000
   24      H       0.8137170000    -6.6640850000     4.6416400000
   25      H       0.0136550000    -5.1471010000     5.2465670000
   26      H       1.7751590000    -5.1487850000     4.9367390000
   27      C      -0.8515720000    -2.5874870000    -4.8297290000
   28      H      -0.9642040000    -3.4833290000    -5.4623870000
   29      H      -0.0039560000    -1.9649720000    -5.1739140000
   30      H      -1.7643900000    -1.9629320000    -4.8633600000
   31      C       0.0000000000     0.0000000000     0.0000000000
   32      S       0.0689290000     0.7901700000     1.5805300000
   33      C       0.2116390000     2.4216550000     0.9049110000
   34      C       0.0868130000     0.9942070000    -0.9854000000
   35      C       0.2017820000     2.3094330000    -0.4935280000
   36      H       0.0662990000     0.7594540000    -2.0599340000
   37      H       0.2784880000     3.1870200000    -1.1525930000
   38      H       0.2883120000     3.2989920000     1.5560250000
   39      H       0.8571280000    -7.3615890000    -0.3033280000
   40      H      -0.9125870000    -7.3611920000     0.0079330000
   41      H       1.0636840000    -1.4788310000    -0.1870170000
 ----------------------------------------------------------------

   11   -1571.7350319172      5.93e-07  Convergence criterion met
 Total energy in the final basis set =    -1571.7350319172
        RIMP2         total energy =     -1576.3935346661 a.u.

                    Orbital Energies (a.u.)
 --------------------------------------------------------------

 Alpha MOs
 -- Occupied --
-91.9898 -20.5539 -20.5459 -20.5426 -20.5417 -15.6292 -15.6221 -11.3977
-11.3867 -11.3845 -11.3802 -11.3105 -11.3099 -11.3069 -11.3057 -11.2989
-11.2980 -11.2930 -11.2740 -11.2709 -11.2694 -11.2677 -11.2643 -11.2597
-11.2539 -11.2466 -11.2367  -8.9898  -6.6707  -6.6702  -6.6695  -1.4237
 -1.4131  -1.4001  -1.3923  -1.2647  -1.2564  -1.2322  -1.1878  -1.1504
 -1.1158  -1.0878  -1.0491  -0.9957  -0.9889  -0.9819  -0.9561  -0.9497
 -0.8985  -0.8912  -0.8785  -0.8618  -0.7958  -0.7813  -0.7730  -0.7584
 -0.7400  -0.7197  -0.7022  -0.6901  -0.6839  -0.6740  -0.6688  -0.6584
 -0.6494  -0.6473  -0.6388  -0.6325  -0.6319  -0.6298  -0.6243  -0.6055
 -0.5929  -0.5717  -0.5639  -0.5606  -0.5580  -0.5526  -0.5515  -0.5495
 -0.5485  -0.5431  -0.5165  -0.5152  -0.5128  -0.4868  -0.4749  -0.4599
 -0.4582  -0.4506  -0.4435  -0.4366  -0.4159  -0.4085  -0.3575  -0.3498
 -0.3319  -0.2784

          Ground-State Mulliken Net Atomic Charges

     Atom                 Charge (a.u.)
  ----------------------------------------
      1 C                    -0.084432
      2 C                    -0.030813
      3 C                    -0.104059
      4 C                    -0.123806
      5 H                     0.199333
      6 C                     0.023682
      7 C                     0.113088
      8 C                    -0.050737
      9 C                    -0.201192
     10 C                    -0.157431
     11 C                     0.180136
     12 H                     0.179861
     13 C                     0.342181
     14 C                     0.349476
     15 N                    -0.090099
     16 C                     0.358871
     17 C                     0.385424
     18 N                    -0.088037
     19 O                    -0.493182
     20 O                    -0.506290
     21 O                    -0.500497
     22 O                    -0.482233
     23 C                    -0.204717
     24 H                     0.139611
     25 H                     0.109773
     26 H                     0.109401
     27 C                    -0.198452
     28 H                     0.134375
     29 H                     0.111474
     30 H                     0.112516
     31 C                    -0.023232
     32 S                    -0.009017
     33 C                    -0.227509
     34 C                    -0.153410
     35 C                    -0.240305
     36 H                     0.219416
     37 H                     0.189247
     38 H                     0.214651
     39 H                     0.138349
     40 H                     0.138604
     41 H                     0.219984
  ----------------------------------------
  Sum of atomic charges =     0.000000

                    Cartesian Multipole Moments
 -----------------------------------------------------------------
    Charge (ESU x 10^10)
                -0.0000
    Dipole Moment (Debye)
         X       0.8357      Y       1.3609      Z      -2.3590
       Tot       2.8487
    Quadrupole Moments (Debye-Ang)
        XX    -163.4172     XY       0.9819     YY    -175.9580
        XZ      -5.5449     YZ       9.3423     ZZ    -187.6476

 Total job time:  301.33s(wall), 9168.75s(cpu)
        *  Thank you very much for using Q-Chem.  Have a nice day.  *
