 Q-Chem 5.4, Q-Chem, Inc., Pleasanton, CA (2021)
 Q-Chem 5.4.0 for Intel X86 EM64T Linux

User input:
--------------------------------------------------------------
$molecule
0 1
C	-0.166281	-6.741404	-0.195868
C	-1.005696	-6.155638	-1.196048
C	0.530233	-5.791452	0.634911
C	-1.184587	-4.803786	-1.409599
H	-1.570232	-6.821518	-1.868538
C	0.343266	-4.378638	0.410996
C	-0.511683	-3.838032	-0.608444
C	1.015440	-3.413062	1.211179
C	-0.697165	-2.426473	-0.830559
C	0.838968	-2.059348	0.999915
C	0.000000	-1.478216	0.000000
H	1.404302	-1.394783	1.673009
C	1.456059	-6.187987	1.741129
C	1.934944	-3.798164	2.307170
N	2.090139	-5.170003	2.494766
C	-2.106725	-4.424987	-2.508468
C	-1.624494	-2.036627	-1.936893
N	-2.258486	-3.049156	-2.690936
O	1.705414	-7.353131	2.042736
O	2.529122	-2.986854	3.013823
O	-2.693680	-5.248946	-3.206857
O	-1.888802	-0.878829	-2.254108
C	2.997334	-5.563799	3.577543
H	3.025519	-6.664085	3.612920
H	2.635109	-5.147101	4.536833
H	4.005702	-5.148785	3.387762
C	-3.152347	-2.587487	-3.756883
H	-3.566218	-3.483329	-4.248464
H	-2.590383	-1.964972	-4.478763
H	-3.959687	-1.962932	-3.329599
C	0.000000	0.000000	0.000000
S	0.396411	0.687007	1.580530
C	1.215245	2.105322	0.904911
C	0.498850	0.864369	-0.985400
C	1.158885	2.007781	-0.493528
H	0.381046	0.660280	-2.059934
H	1.599289	2.770727	-1.152593
H	1.655514	2.868056	1.556025
H	0.590631	-7.361589	-0.691254
H	-0.786357	-7.361192	0.463164
H	0.827669	-1.478831	-0.693804
$end

$rem
JOBTYPE		SP
EXCHANGE	HF
CORRELATION	pRIMP2
BASIS		cc-pvtz
METHOD		rimp2
AUX_BASIS	rimp2-cc-pvtz
SOLVENT_METHOD	PCM
PURECART	11111
SYMMETRY	false
MEM_TOTAL	110000
SCF_CONVERGENCE = 6
THRESH=10
GUI = 2
$end

$solvent
dielectric 4.90
$end
--------------------------------------------------------------

             Standard Nuclear Orientation (Angstroms)
    I     Atom           X                Y                Z
 ----------------------------------------------------------------
    1      C      -0.1662810000    -6.7414040000    -0.1958680000
    2      C      -1.0056960000    -6.1556380000    -1.1960480000
    3      C       0.5302330000    -5.7914520000     0.6349110000
    4      C      -1.1845870000    -4.8037860000    -1.4095990000
    5      H      -1.5702320000    -6.8215180000    -1.8685380000
    6      C       0.3432660000    -4.3786380000     0.4109960000
    7      C      -0.5116830000    -3.8380320000    -0.6084440000
    8      C       1.0154400000    -3.4130620000     1.2111790000
    9      C      -0.6971650000    -2.4264730000    -0.8305590000
   10      C       0.8389680000    -2.0593480000     0.9999150000
   11      C       0.0000000000    -1.4782160000     0.0000000000
   12      H       1.4043020000    -1.3947830000     1.6730090000
   13      C       1.4560590000    -6.1879870000     1.7411290000
   14      C       1.9349440000    -3.7981640000     2.3071700000
   15      N       2.0901390000    -5.1700030000     2.4947660000
   16      C      -2.1067250000    -4.4249870000    -2.5084680000
   17      C      -1.6244940000    -2.0366270000    -1.9368930000
   18      N      -2.2584860000    -3.0491560000    -2.6909360000
   19      O       1.7054140000    -7.3531310000     2.0427360000
   20      O       2.5291220000    -2.9868540000     3.0138230000
   21      O      -2.6936800000    -5.2489460000    -3.2068570000
   22      O      -1.8888020000    -0.8788290000    -2.2541080000
   23      C       2.9973340000    -5.5637990000     3.5775430000
   24      H       3.0255190000    -6.6640850000     3.6129200000
   25      H       2.6351090000    -5.1471010000     4.5368330000
   26      H       4.0057020000    -5.1487850000     3.3877620000
   27      C      -3.1523470000    -2.5874870000    -3.7568830000
   28      H      -3.5662180000    -3.4833290000    -4.2484640000
   29      H      -2.5903830000    -1.9649720000    -4.4787630000
   30      H      -3.9596870000    -1.9629320000    -3.3295990000
   31      C       0.0000000000     0.0000000000     0.0000000000
   32      S       0.3964110000     0.6870070000     1.5805300000
   33      C       1.2152450000     2.1053220000     0.9049110000
   34      C       0.4988500000     0.8643690000    -0.9854000000
   35      C       1.1588850000     2.0077810000    -0.4935280000
   36      H       0.3810460000     0.6602800000    -2.0599340000
   37      H       1.5992890000     2.7707270000    -1.1525930000
   38      H       1.6555140000     2.8680560000     1.5560250000
   39      H       0.5906310000    -7.3615890000    -0.6912540000
   40      H      -0.7863570000    -7.3611920000     0.4631640000
   41      H       0.8276690000    -1.4788310000    -0.6938040000
 ----------------------------------------------------------------

   11   -1571.7245307664      5.76e-07  Convergence criterion met
 Total energy in the final basis set =    -1571.7245307664
        RIMP2         total energy =     -1576.3860755302 a.u.

                    Orbital Energies (a.u.)
 --------------------------------------------------------------

 Alpha MOs
 -- Occupied --
-91.9909 -20.5534 -20.5446 -20.5407 -20.5400 -15.6274 -15.6207 -11.3943
-11.3852 -11.3826 -11.3785 -11.3075 -11.3052 -11.3043 -11.3037 -11.2961
-11.2960 -11.2898 -11.2833 -11.2677 -11.2674 -11.2638 -11.2632 -11.2591
-11.2537 -11.2520 -11.2513  -8.9911  -6.6719  -6.6713  -6.6708  -1.4203
 -1.4115  -1.3977  -1.3907  -1.2625  -1.2549  -1.2312  -1.1895  -1.1518
 -1.1135  -1.0858  -1.0466  -0.9966  -0.9885  -0.9872  -0.9550  -0.9492
 -0.8966  -0.8879  -0.8762  -0.8590  -0.7958  -0.7795  -0.7705  -0.7608
 -0.7399  -0.7167  -0.7021  -0.6921  -0.6829  -0.6715  -0.6667  -0.6570
 -0.6469  -0.6457  -0.6363  -0.6319  -0.6303  -0.6274  -0.6221  -0.6043
 -0.5883  -0.5749  -0.5672  -0.5613  -0.5570  -0.5515  -0.5504  -0.5495
 -0.5473  -0.5432  -0.5193  -0.5120  -0.5079  -0.4853  -0.4761  -0.4657
 -0.4572  -0.4513  -0.4423  -0.4341  -0.4137  -0.4071  -0.3543  -0.3515
 -0.3320  -0.2805

          Ground-State Mulliken Net Atomic Charges

     Atom                 Charge (a.u.)
  ----------------------------------------
      1 C                    -0.084654
      2 C                    -0.032094
      3 C                    -0.112447
      4 C                    -0.121635
      5 H                     0.198500
      6 C                     0.019813
      7 C                     0.116960
      8 C                    -0.069229
      9 C                    -0.180807
     10 C                    -0.161989
     11 C                     0.173048
     12 H                     0.194833
     13 C                     0.341470
     14 C                     0.346968
     15 N                    -0.089546
     16 C                     0.356870
     17 C                     0.350217
     18 N                    -0.090721
     19 O                    -0.496006
     20 O                    -0.508273
     21 O                    -0.501447
     22 O                    -0.473102
     23 C                    -0.205087
     24 H                     0.139382
     25 H                     0.109165
     26 H                     0.108815
     27 C                    -0.197859
     28 H                     0.133525
     29 H                     0.110669
     30 H                     0.112366
     31 C                     0.006378
     32 S                     0.006860
     33 C                    -0.197574
     34 C                    -0.163258
     35 C                    -0.223011
     36 H                     0.190244
     37 H                     0.191769
     38 H                     0.212413
     39 H                     0.136902
     40 H                     0.137151
     41 H                     0.214419
  ----------------------------------------
  Sum of atomic charges =     0.000000

                    Cartesian Multipole Moments
 -----------------------------------------------------------------
    Charge (ESU x 10^10)
                 0.0000
    Dipole Moment (Debye)
         X       1.1064      Y       2.2191      Z      -2.2202
       Tot       3.3283
    Quadrupole Moments (Debye-Ang)
        XX    -173.6171     XY       9.6215     YY    -182.1530
        XZ     -16.2154     YZ       8.4572     ZZ    -175.6142

 Total job time:  294.61s(wall), 8846.64s(cpu)
        *  Thank you very much for using Q-Chem.  Have a nice day.  *
