 Q-Chem 5.4, Q-Chem, Inc., Pleasanton, CA (2021)
 Q-Chem 5.4.0 for Intel X86 EM64T Linux

User input:
--------------------------------------------------------------
$molecule
0 1
C	0.223244	-6.741404	0.127184
C	1.354118	-6.155638	0.779949
C	-0.715408	-5.791452	-0.415271
C	1.595259	-4.803786	0.919437
H	2.114613	-6.821518	1.218801
C	-0.463133	-4.378638	-0.268806
C	0.688925	-3.838032	0.396744
C	-1.368449	-3.413062	-0.790835
C	0.939189	-2.426473	0.542026
C	-1.130363	-2.059348	-0.652669
C	-0.000000	-1.478216	-0.000000
H	-1.891815	-1.394783	-1.091814
C	-1.963749	-6.187987	-1.138124
C	-2.607351	-3.798164	-1.506241
N	-2.817348	-5.170003	-1.629443
C	2.837621	-4.424987	1.636646
C	2.188982	-2.036627	1.264474
N	3.042637	-3.049156	1.756205
O	-2.301222	-7.353131	-1.336258
O	-3.407386	-2.986854	-1.967056
O	3.628041	-5.248946	2.092167
O	2.545844	-0.878829	1.472160
C	-4.040164	-5.563799	-2.336642
H	-4.078749	-6.664085	-2.360245
H	-4.027880	-5.147101	-3.361968
H	-4.922811	-5.148785	-1.813424
C	4.247167	-2.587487	2.452149
H	4.804209	-3.483329	2.772531
H	3.965991	-1.964972	3.322697
H	4.859678	-1.962932	1.774507
C	0.000000	0.000000	0.000000
S	0.271091	0.745405	1.580530
C	0.831198	2.284363	0.904911
C	0.341175	0.937861	-0.985400
C	0.792631	2.178516	-0.493528
H	0.260601	0.716417	-2.059934
H	1.093860	3.006347	-1.152593
H	1.132330	3.111961	1.556025
H	-0.318588	-7.361589	0.851574
H	0.580522	-7.361192	-0.704181
H	-0.540459	-1.478831	0.935042
$end

$rem
JOBTYPE		SP
EXCHANGE	HF
CORRELATION	pRIMP2
BASIS		cc-pvtz
METHOD		rimp2
AUX_BASIS	rimp2-cc-pvtz
SOLVENT_METHOD	PCM
PURECART	11111
SYMMETRY	false
MEM_TOTAL	110000
SCF_CONVERGENCE = 6
THRESH=10
GUI = 2
$end

$solvent
dielectric 4.90
$end
--------------------------------------------------------------

             Standard Nuclear Orientation (Angstroms)
    I     Atom           X                Y                Z
 ----------------------------------------------------------------
    1      C       0.2232440000    -6.7414040000     0.1271840000
    2      C       1.3541180000    -6.1556380000     0.7799490000
    3      C      -0.7154080000    -5.7914520000    -0.4152710000
    4      C       1.5952590000    -4.8037860000     0.9194370000
    5      H       2.1146130000    -6.8215180000     1.2188010000
    6      C      -0.4631330000    -4.3786380000    -0.2688060000
    7      C       0.6889250000    -3.8380320000     0.3967440000
    8      C      -1.3684490000    -3.4130620000    -0.7908350000
    9      C       0.9391890000    -2.4264730000     0.5420260000
   10      C      -1.1303630000    -2.0593480000    -0.6526690000
   11      C       0.0000000000    -1.4782160000     0.0000000000
   12      H      -1.8918150000    -1.3947830000    -1.0918140000
   13      C      -1.9637490000    -6.1879870000    -1.1381240000
   14      C      -2.6073510000    -3.7981640000    -1.5062410000
   15      N      -2.8173480000    -5.1700030000    -1.6294430000
   16      C       2.8376210000    -4.4249870000     1.6366460000
   17      C       2.1889820000    -2.0366270000     1.2644740000
   18      N       3.0426370000    -3.0491560000     1.7562050000
   19      O      -2.3012220000    -7.3531310000    -1.3362580000
   20      O      -3.4073860000    -2.9868540000    -1.9670560000
   21      O       3.6280410000    -5.2489460000     2.0921670000
   22      O       2.5458440000    -0.8788290000     1.4721600000
   23      C      -4.0401640000    -5.5637990000    -2.3366420000
   24      H      -4.0787490000    -6.6640850000    -2.3602450000
   25      H      -4.0278800000    -5.1471010000    -3.3619680000
   26      H      -4.9228110000    -5.1487850000    -1.8134240000
   27      C       4.2471670000    -2.5874870000     2.4521490000
   28      H       4.8042090000    -3.4833290000     2.7725310000
   29      H       3.9659910000    -1.9649720000     3.3226970000
   30      H       4.8596780000    -1.9629320000     1.7745070000
   31      C       0.0000000000     0.0000000000     0.0000000000
   32      S       0.2710910000     0.7454050000     1.5805300000
   33      C       0.8311980000     2.2843630000     0.9049110000
   34      C       0.3411750000     0.9378610000    -0.9854000000
   35      C       0.7926310000     2.1785160000    -0.4935280000
   36      H       0.2606010000     0.7164170000    -2.0599340000
   37      H       1.0938600000     3.0063470000    -1.1525930000
   38      H       1.1323300000     3.1119610000     1.5560250000
   39      H      -0.3185880000    -7.3615890000     0.8515740000
   40      H       0.5805220000    -7.3611920000    -0.7041810000
   41      H      -0.5404590000    -1.4788310000     0.9350420000
 ----------------------------------------------------------------

   11   -1571.7293344065      5.71e-07  Convergence criterion met
 Total energy in the final basis set =    -1571.7293344065
        RIMP2         total energy =     -1576.3898309771 a.u.

                    Orbital Energies (a.u.)
 --------------------------------------------------------------

 Alpha MOs
 -- Occupied --
-91.9845 -20.5488 -20.5439 -20.5414 -20.5402 -15.6260 -15.6209 -11.3917
-11.3846 -11.3832 -11.3786 -11.3082 -11.3073 -11.3048 -11.3043 -11.2961
-11.2879 -11.2872 -11.2832 -11.2685 -11.2678 -11.2635 -11.2625 -11.2592
-11.2543 -11.2524 -11.2475  -8.9845  -6.6653  -6.6647  -6.6643  -1.4187
 -1.4119  -1.3966  -1.3910  -1.2614  -1.2551  -1.2289  -1.1852  -1.1509
 -1.1134  -1.0856  -1.0461  -0.9942  -0.9875  -0.9820  -0.9545  -0.9504
 -0.8951  -0.8865  -0.8765  -0.8598  -0.7912  -0.7752  -0.7737  -0.7667
 -0.7344  -0.7173  -0.7031  -0.6905  -0.6776  -0.6694  -0.6672  -0.6567
 -0.6466  -0.6391  -0.6387  -0.6318  -0.6306  -0.6266  -0.6230  -0.6043
 -0.5844  -0.5732  -0.5667  -0.5612  -0.5571  -0.5510  -0.5502  -0.5476
 -0.5473  -0.5431  -0.5172  -0.5131  -0.5084  -0.4816  -0.4729  -0.4632
 -0.4548  -0.4492  -0.4423  -0.4341  -0.4127  -0.4072  -0.3523  -0.3426
 -0.3281  -0.2876

          Ground-State Mulliken Net Atomic Charges

     Atom                 Charge (a.u.)
  ----------------------------------------
      1 C                    -0.084217
      2 C                    -0.030902
      3 C                    -0.112035
      4 C                    -0.120972
      5 H                     0.198579
      6 C                     0.009389
      7 C                     0.119702
      8 C                    -0.085633
      9 C                    -0.186386
     10 C                    -0.146383
     11 C                     0.237621
     12 H                     0.192363
     13 C                     0.343052
     14 C                     0.350144
     15 N                    -0.089885
     16 C                     0.355776
     17 C                     0.373916
     18 N                    -0.090127
     19 O                    -0.494818
     20 O                    -0.507682
     21 O                    -0.502103
     22 O                    -0.467579
     23 C                    -0.204759
     24 H                     0.139404
     25 H                     0.108965
     26 H                     0.109026
     27 C                    -0.197313
     28 H                     0.133193
     29 H                     0.110888
     30 H                     0.111460
     31 C                    -0.071978
     32 S                     0.028786
     33 C                    -0.202283
     34 C                    -0.179280
     35 C                    -0.206157
     36 H                     0.190076
     37 H                     0.189997
     38 H                     0.210861
     39 H                     0.137367
     40 H                     0.137416
     41 H                     0.192512
  ----------------------------------------
  Sum of atomic charges =     0.000000

                    Cartesian Multipole Moments
 -----------------------------------------------------------------
    Charge (ESU x 10^10)
                 0.0000
    Dipole Moment (Debye)
         X       1.4648      Y       2.2931      Z       0.4158
       Tot       2.7526
    Quadrupole Moments (Debye-Ang)
        XX    -186.4039     XY      -3.1191     YY    -180.0131
        XZ     -13.5512     YZ      -4.7519     ZZ    -164.2512

 Total job time:  414.73s(wall), 10291.77s(cpu)
        *  Thank you very much for using Q-Chem.  Have a nice day.  *
