 Q-Chem 5.4, Q-Chem, Inc., Pleasanton, CA (2021)
 Q-Chem 5.4.0 for Intel X86 EM64T Linux

User input:
--------------------------------------------------------------
$molecule
0 1
C	0.129743	-6.741404	0.221766
C	0.782726	-6.155638	1.352515
C	-0.411926	-5.791452	-0.717339
C	0.921816	-4.803786	1.593885
H	1.221908	-6.821518	2.112819
C	-0.266682	-4.378638	-0.464360
C	0.398255	-3.838032	0.688053
C	-0.789694	-3.413062	-1.369108
C	0.542349	-2.426473	0.939002
C	-0.652589	-2.059348	-1.130409
C	-0.000000	-1.478216	-0.000000
H	-1.092453	-1.394783	-1.891446
C	-1.131595	-6.187987	-1.967519
C	-1.504912	-3.798164	-2.608118
N	-1.625174	-5.170003	-2.819813
C	1.639129	-4.424987	2.836188
C	1.263477	-2.036627	2.189558
N	1.756898	-3.049156	3.042237
O	-1.324787	-7.353131	-2.307845
O	-1.967354	-2.986854	-3.407213
O	2.095892	-5.248946	3.625890
O	1.468685	-0.878829	2.547850
C	-2.330564	-5.563799	-4.043674
H	-2.352178	-6.664085	-4.083407
H	-1.807263	-5.147101	-4.925490
H	-3.356568	-5.148785	-4.031877
C	2.452080	-2.587487	4.247206
H	2.774302	-3.483329	4.803187
H	1.773301	-1.964972	4.860536
H	3.321351	-1.962932	3.966607
C	0.000000	0.000000	0.000000
S	0.686805	0.396760	1.580530
C	2.105095	1.215640	0.904911
C	0.864201	0.499140	-0.985400
C	2.007514	1.159347	-0.493528
H	0.660136	0.381296	-2.059934
H	2.770388	1.599875	-1.152593
H	2.867745	1.656053	1.556025
H	-0.701693	-7.361589	0.578191
H	0.854838	-7.361192	-0.319578
H	-0.935572	-1.478831	0.539540
$end

$rem
JOBTYPE		SP
EXCHANGE	HF
CORRELATION	pRIMP2
BASIS		cc-pvtz
METHOD		rimp2
AUX_BASIS	rimp2-cc-pvtz
SOLVENT_METHOD	PCM
PURECART	11111
SYMMETRY	false
MEM_TOTAL	110000
SCF_CONVERGENCE = 6
THRESH=10
GUI = 2
$end

$solvent
dielectric 4.90
$end
--------------------------------------------------------------

             Standard Nuclear Orientation (Angstroms)
    I     Atom           X                Y                Z
 ----------------------------------------------------------------
    1      C       0.1297430000    -6.7414040000     0.2217660000
    2      C       0.7827260000    -6.1556380000     1.3525150000
    3      C      -0.4119260000    -5.7914520000    -0.7173390000
    4      C       0.9218160000    -4.8037860000     1.5938850000
    5      H       1.2219080000    -6.8215180000     2.1128190000
    6      C      -0.2666820000    -4.3786380000    -0.4643600000
    7      C       0.3982550000    -3.8380320000     0.6880530000
    8      C      -0.7896940000    -3.4130620000    -1.3691080000
    9      C       0.5423490000    -2.4264730000     0.9390020000
   10      C      -0.6525890000    -2.0593480000    -1.1304090000
   11      C       0.0000000000    -1.4782160000     0.0000000000
   12      H      -1.0924530000    -1.3947830000    -1.8914460000
   13      C      -1.1315950000    -6.1879870000    -1.9675190000
   14      C      -1.5049120000    -3.7981640000    -2.6081180000
   15      N      -1.6251740000    -5.1700030000    -2.8198130000
   16      C       1.6391290000    -4.4249870000     2.8361880000
   17      C       1.2634770000    -2.0366270000     2.1895580000
   18      N       1.7568980000    -3.0491560000     3.0422370000
   19      O      -1.3247870000    -7.3531310000    -2.3078450000
   20      O      -1.9673540000    -2.9868540000    -3.4072130000
   21      O       2.0958920000    -5.2489460000     3.6258900000
   22      O       1.4686850000    -0.8788290000     2.5478500000
   23      C      -2.3305640000    -5.5637990000    -4.0436740000
   24      H      -2.3521780000    -6.6640850000    -4.0834070000
   25      H      -1.8072630000    -5.1471010000    -4.9254900000
   26      H      -3.3565680000    -5.1487850000    -4.0318770000
   27      C       2.4520800000    -2.5874870000     4.2472060000
   28      H       2.7743020000    -3.4833290000     4.8031870000
   29      H       1.7733010000    -1.9649720000     4.8605360000
   30      H       3.3213510000    -1.9629320000     3.9666070000
   31      C       0.0000000000     0.0000000000     0.0000000000
   32      S       0.6868050000     0.3967600000     1.5805300000
   33      C       2.1050950000     1.2156400000     0.9049110000
   34      C       0.8642010000     0.4991400000    -0.9854000000
   35      C       2.0075140000     1.1593470000    -0.4935280000
   36      H       0.6601360000     0.3812960000    -2.0599340000
   37      H       2.7703880000     1.5998750000    -1.1525930000
   38      H       2.8677450000     1.6560530000     1.5560250000
   39      H      -0.7016930000    -7.3615890000     0.5781910000
   40      H       0.8548380000    -7.3611920000    -0.3195780000
   41      H      -0.9355720000    -1.4788310000     0.5395400000
 ----------------------------------------------------------------

   11   -1571.5226033860      6.86e-07  Convergence criterion met
 Total energy in the final basis set =    -1571.5226033860
        RIMP2         total energy =     -1576.2273804830 a.u.

                    Orbital Energies (a.u.)
 --------------------------------------------------------------

 Alpha MOs
 -- Occupied --
-92.0309 -20.6182 -20.5564 -20.5408 -20.5379 -15.6529 -15.6209 -11.4370
-11.3984 -11.3834 -11.3768 -11.3209 -11.3118 -11.3089 -11.3072 -11.3040
-11.2763 -11.2758 -11.2751 -11.2702 -11.2604 -11.2589 -11.2576 -11.2455
-11.2297 -11.2250 -11.2074  -9.0253  -6.7069  -6.7042  -6.7024  -1.5062
 -1.4170  -1.4110  -1.3900  -1.2926  -1.2551  -1.2321  -1.1872  -1.1446
 -1.1180  -1.0838  -1.0539  -1.0078  -0.9966  -0.9842  -0.9613  -0.9445
 -0.9102  -0.8873  -0.8852  -0.8660  -0.8060  -0.7962  -0.7809  -0.7607
 -0.7523  -0.7271  -0.7066  -0.6960  -0.6906  -0.6855  -0.6712  -0.6619
 -0.6587  -0.6487  -0.6421  -0.6356  -0.6335  -0.6305  -0.6273  -0.6149
 -0.6040  -0.5970  -0.5785  -0.5693  -0.5636  -0.5533  -0.5486  -0.5479
 -0.5450  -0.5412  -0.5382  -0.5118  -0.5110  -0.4866  -0.4719  -0.4645
 -0.4558  -0.4437  -0.4406  -0.4283  -0.4101  -0.4062  -0.3587  -0.3255
 -0.2776  -0.2371

          Ground-State Mulliken Net Atomic Charges

     Atom                 Charge (a.u.)
  ----------------------------------------
      1 C                    -0.085515
      2 C                    -0.008927
      3 C                    -0.116482
      4 C                    -0.125020
      5 H                     0.203216
      6 C                     0.023704
      7 C                     0.160320
      8 C                    -0.108664
      9 C                    -0.281682
     10 C                    -0.147214
     11 C                     0.185462
     12 H                     0.193690
     13 C                     0.343077
     14 C                     0.344574
     15 N                    -0.088934
     16 C                     0.365087
     17 C                     0.436784
     18 N                    -0.074901
     19 O                    -0.497519
     20 O                    -0.509537
     21 O                    -0.488446
     22 O                    -0.311922
     23 C                    -0.205320
     24 H                     0.139013
     25 H                     0.109569
     26 H                     0.109387
     27 C                    -0.198840
     28 H                     0.140144
     29 H                     0.118012
     30 H                     0.117959
     31 C                    -0.194014
     32 S                     0.214637
     33 C                    -0.342656
     34 C                    -0.240947
     35 C                    -0.238675
     36 H                     0.175397
     37 H                     0.178788
     38 H                     0.196483
     39 H                     0.141987
     40 H                     0.142453
     41 H                     0.225473
  ----------------------------------------
  Sum of atomic charges =     0.000000

                    Cartesian Multipole Moments
 -----------------------------------------------------------------
    Charge (ESU x 10^10)
                 0.0000
    Dipole Moment (Debye)
         X       2.7848      Y      -2.9808      Z       5.7230
       Tot       7.0280
    Quadrupole Moments (Debye-Ang)
        XX    -163.6369     XY      -5.2118     YY    -177.4338
        XZ      -6.2066     YZ     -15.8666     ZZ    -170.7457

 Total job time:  324.96s(wall), 9676.61s(cpu)
        *  Thank you very much for using Q-Chem.  Have a nice day.  *
