 Q-Chem 5.4, Q-Chem, Inc., Pleasanton, CA (2021)
 Q-Chem 5.4.0 for Intel X86 EM64T Linux

User input:
--------------------------------------------------------------
$molecule
0 1
C	0.252767	-6.741404	-0.046070
C	1.538656	-6.155638	-0.272935
C	-0.814966	-5.791452	0.141739
C	1.813042	-4.803786	-0.321083
H	2.403318	-6.821518	-0.425592
C	-0.527566	-4.378638	0.091779
C	0.782769	-3.838032	-0.138909
C	-1.556632	-3.413062	0.273808
C	1.067868	-2.426473	-0.188483
C	-1.285436	-2.059348	0.226610
C	-0.000000	-1.478216	-0.000000
H	-2.151019	-1.394783	0.379657
C	-2.235891	-6.187987	0.390420
C	-2.965540	-3.798164	0.522125
N	-3.205600	-5.170003	0.562731
C	3.225760	-4.424987	-0.570244
C	2.489646	-2.036627	-0.438407
N	3.459662	-3.049156	-0.610438
O	-2.621768	-7.353131	0.455563
O	-3.874608	-2.986854	0.683373
O	4.124059	-5.248946	-0.729367
O	2.896516	-0.878829	-0.508697
C	-4.596910	-5.563799	0.806996
H	-4.641640	-6.664085	0.813717
H	-5.246567	-5.147101	0.013655
H	-4.936739	-5.148785	1.775159
C	4.829729	-2.587487	-0.851572
H	5.462387	-3.483329	-0.964204
H	5.173914	-1.964972	-0.003956
H	4.863360	-1.962932	-1.764390
C	0.000000	0.000000	0.000000
S	0.607475	0.509994	1.580530
C	1.862020	1.562717	0.904911
C	0.764397	0.641624	-0.985400
C	1.775697	1.490335	-0.493528
H	0.583895	0.490135	-2.059934
H	2.450484	2.056643	-1.152593
H	2.536607	2.128872	1.556025
H	0.303328	-7.361589	0.857128
H	-0.007933	-7.361192	-0.912587
H	0.187017	-1.478831	1.063684
$end

$rem
JOBTYPE		SP
EXCHANGE	HF
CORRELATION	pRIMP2
BASIS		cc-pvtz
METHOD		rimp2
AUX_BASIS	rimp2-cc-pvtz
SOLVENT_METHOD	PCM
PURECART	11111
SYMMETRY	false
MEM_TOTAL	110000
SCF_CONVERGENCE = 6
THRESH=10
GUI = 2
$end

$solvent
dielectric 4.90
$end
--------------------------------------------------------------

             Standard Nuclear Orientation (Angstroms)
    I     Atom           X                Y                Z
 ----------------------------------------------------------------
    1      C       0.2527670000    -6.7414040000    -0.0460700000
    2      C       1.5386560000    -6.1556380000    -0.2729350000
    3      C      -0.8149660000    -5.7914520000     0.1417390000
    4      C       1.8130420000    -4.8037860000    -0.3210830000
    5      H       2.4033180000    -6.8215180000    -0.4255920000
    6      C      -0.5275660000    -4.3786380000     0.0917790000
    7      C       0.7827690000    -3.8380320000    -0.1389090000
    8      C      -1.5566320000    -3.4130620000     0.2738080000
    9      C       1.0678680000    -2.4264730000    -0.1884830000
   10      C      -1.2854360000    -2.0593480000     0.2266100000
   11      C       0.0000000000    -1.4782160000     0.0000000000
   12      H      -2.1510190000    -1.3947830000     0.3796570000
   13      C      -2.2358910000    -6.1879870000     0.3904200000
   14      C      -2.9655400000    -3.7981640000     0.5221250000
   15      N      -3.2056000000    -5.1700030000     0.5627310000
   16      C       3.2257600000    -4.4249870000    -0.5702440000
   17      C       2.4896460000    -2.0366270000    -0.4384070000
   18      N       3.4596620000    -3.0491560000    -0.6104380000
   19      O      -2.6217680000    -7.3531310000     0.4555630000
   20      O      -3.8746080000    -2.9868540000     0.6833730000
   21      O       4.1240590000    -5.2489460000    -0.7293670000
   22      O       2.8965160000    -0.8788290000    -0.5086970000
   23      C      -4.5969100000    -5.5637990000     0.8069960000
   24      H      -4.6416400000    -6.6640850000     0.8137170000
   25      H      -5.2465670000    -5.1471010000     0.0136550000
   26      H      -4.9367390000    -5.1487850000     1.7751590000
   27      C       4.8297290000    -2.5874870000    -0.8515720000
   28      H       5.4623870000    -3.4833290000    -0.9642040000
   29      H       5.1739140000    -1.9649720000    -0.0039560000
   30      H       4.8633600000    -1.9629320000    -1.7643900000
   31      C       0.0000000000     0.0000000000     0.0000000000
   32      S       0.6074750000     0.5099940000     1.5805300000
   33      C       1.8620200000     1.5627170000     0.9049110000
   34      C       0.7643970000     0.6416240000    -0.9854000000
   35      C       1.7756970000     1.4903350000    -0.4935280000
   36      H       0.5838950000     0.4901350000    -2.0599340000
   37      H       2.4504840000     2.0566430000    -1.1525930000
   38      H       2.5366070000     2.1288720000     1.5560250000
   39      H       0.3033280000    -7.3615890000     0.8571280000
   40      H      -0.0079330000    -7.3611920000    -0.9125870000
   41      H       0.1870170000    -1.4788310000     1.0636840000
 ----------------------------------------------------------------

   11   -1571.6825586839      6.18e-07  Convergence criterion met
 Total energy in the final basis set =    -1571.6825586839
        RIMP2         total energy =     -1576.3523551396 a.u.

                    Orbital Energies (a.u.)
 --------------------------------------------------------------

 Alpha MOs
 -- Occupied --
-91.9847 -20.5476 -20.5436 -20.5379 -20.5366 -15.6259 -15.6182 -11.3910
-11.3841 -11.3799 -11.3750 -11.3054 -11.3017 -11.3014 -11.3006 -11.2947
-11.2932 -11.2785 -11.2682 -11.2664 -11.2658 -11.2633 -11.2632 -11.2576
-11.2570 -11.2503 -11.2467  -8.9857  -6.6665  -6.6657  -6.6653  -1.4189
 -1.4088  -1.3966  -1.3879  -1.2611  -1.2523  -1.2280  -1.1882  -1.1499
 -1.1100  -1.0825  -1.0431  -0.9941  -0.9884  -0.9861  -0.9532  -0.9491
 -0.8934  -0.8805  -0.8745  -0.8568  -0.7880  -0.7761  -0.7728  -0.7666
 -0.7376  -0.7161  -0.7023  -0.6891  -0.6752  -0.6678  -0.6652  -0.6552
 -0.6452  -0.6408  -0.6354  -0.6294  -0.6286  -0.6256  -0.6213  -0.6016
 -0.5818  -0.5744  -0.5674  -0.5609  -0.5540  -0.5495  -0.5483  -0.5468
 -0.5455  -0.5421  -0.5191  -0.5086  -0.4997  -0.4777  -0.4696  -0.4658
 -0.4517  -0.4419  -0.4392  -0.4316  -0.4130  -0.4048  -0.3503  -0.3452
 -0.3307  -0.2825

          Ground-State Mulliken Net Atomic Charges

     Atom                 Charge (a.u.)
  ----------------------------------------
      1 C                    -0.084732
      2 C                    -0.032735
      3 C                    -0.121557
      4 C                    -0.118744
      5 H                     0.197483
      6 C                     0.012635
      7 C                     0.116436
      8 C                    -0.081300
      9 C                    -0.165942
     10 C                    -0.151227
     11 C                     0.190300
     12 H                     0.192233
     13 C                     0.340901
     14 C                     0.347407
     15 N                    -0.088775
     16 C                     0.355907
     17 C                     0.369080
     18 N                    -0.086516
     19 O                    -0.499581
     20 O                    -0.511353
     21 O                    -0.503118
     22 O                    -0.469757
     23 C                    -0.205702
     24 H                     0.138875
     25 H                     0.108345
     26 H                     0.108353
     27 C                    -0.197590
     28 H                     0.133995
     29 H                     0.110383
     30 H                     0.109834
     31 C                    -0.111727
     32 S                    -0.010311
     33 C                    -0.166661
     34 C                    -0.127003
     35 C                    -0.143133
     36 H                     0.191069
     37 H                     0.181161
     38 H                     0.211269
     39 H                     0.135665
     40 H                     0.135753
     41 H                     0.190378
  ----------------------------------------
  Sum of atomic charges =     0.000000

                    Cartesian Multipole Moments
 -----------------------------------------------------------------
    Charge (ESU x 10^10)
                 0.0000
    Dipole Moment (Debye)
         X       4.1528      Y       3.1620      Z      -0.8400
       Tot       5.2868
    Quadrupole Moments (Debye-Ang)
        XX    -187.8619     XY      -3.8985     YY    -190.7049
        XZ       6.4777     YZ       0.9796     ZZ    -157.0122

 Total job time:  304.02s(wall), 9324.82s(cpu)
        *  Thank you very much for using Q-Chem.  Have a nice day.  *
