 Q-Chem 5.4, Q-Chem, Inc., Pleasanton, CA (2021)
 Q-Chem 5.4.0 for Intel X86 EM64T Linux

User input:
--------------------------------------------------------------
$molecule
0 1
C	0.089263	-6.741404	0.240927
C	0.535973	-6.155638	1.467886
C	-0.281103	-5.791452	-0.777972
C	0.631036	-4.803786	1.729742
H	0.836458	-6.821518	2.292903
C	-0.181995	-4.378638	-0.503614
C	0.272725	-3.838032	0.746756
C	-0.539954	-3.413062	-1.485437
C	0.371053	-2.426473	1.018915
C	-0.446381	-2.059348	-1.226557
C	0.000000	-1.478216	0.000000
H	-0.747410	-1.394783	-2.052413
C	-0.772747	-6.187987	-2.134128
C	-1.029154	-3.798164	-2.829820
N	-1.110828	-5.170003	-3.059182
C	1.121728	-4.424987	3.077731
C	0.864069	-2.036627	2.375694
N	1.201928	-3.049156	3.301101
O	-0.903908	-7.353131	-2.502830
O	-1.345809	-2.986854	-3.697078
O	1.434422	-5.248946	3.934752
O	1.003943	-0.878829	2.764177
C	-1.592981	-5.563799	-4.386939
H	-1.607367	-6.664085	-4.429822
H	-0.924504	-5.147101	-5.164489
H	-2.605446	-5.148785	-4.553486
C	1.677308	-2.587487	4.608481
H	1.898089	-3.483329	5.211969
H	0.902337	-1.964972	5.094624
H	2.582098	-1.962932	4.483092
C	0.000000	0.000000	0.000000
S	0.509686	0.607733	1.580530
C	1.562368	1.862312	0.904911
C	0.641367	0.764613	-0.985400
C	1.489926	1.776040	-0.493528
H	0.489914	0.584081	-2.059934
H	2.056124	2.450920	-1.152593
H	2.128395	2.537007	1.556025
H	-0.791434	-7.361589	0.447559
H	0.897345	-7.361192	-0.166282
H	-1.015049	-1.478831	0.368883
$end

$rem
JOBTYPE		SP
EXCHANGE	HF
CORRELATION	pRIMP2
BASIS		cc-pvtz
METHOD		rimp2
AUX_BASIS	rimp2-cc-pvtz
SOLVENT_METHOD	PCM
PURECART	11111
SYMMETRY	false
MEM_TOTAL	110000
SCF_CONVERGENCE = 6
THRESH=10
GUI = 2
$end

$solvent
dielectric 4.90
$end
--------------------------------------------------------------

             Standard Nuclear Orientation (Angstroms)
    I     Atom           X                Y                Z
 ----------------------------------------------------------------
    1      C       0.0892630000    -6.7414040000     0.2409270000
    2      C       0.5359730000    -6.1556380000     1.4678860000
    3      C      -0.2811030000    -5.7914520000    -0.7779720000
    4      C       0.6310360000    -4.8037860000     1.7297420000
    5      H       0.8364580000    -6.8215180000     2.2929030000
    6      C      -0.1819950000    -4.3786380000    -0.5036140000
    7      C       0.2727250000    -3.8380320000     0.7467560000
    8      C      -0.5399540000    -3.4130620000    -1.4854370000
    9      C       0.3710530000    -2.4264730000     1.0189150000
   10      C      -0.4463810000    -2.0593480000    -1.2265570000
   11      C       0.0000000000    -1.4782160000     0.0000000000
   12      H      -0.7474100000    -1.3947830000    -2.0524130000
   13      C      -0.7727470000    -6.1879870000    -2.1341280000
   14      C      -1.0291540000    -3.7981640000    -2.8298200000
   15      N      -1.1108280000    -5.1700030000    -3.0591820000
   16      C       1.1217280000    -4.4249870000     3.0777310000
   17      C       0.8640690000    -2.0366270000     2.3756940000
   18      N       1.2019280000    -3.0491560000     3.3011010000
   19      O      -0.9039080000    -7.3531310000    -2.5028300000
   20      O      -1.3458090000    -2.9868540000    -3.6970780000
   21      O       1.4344220000    -5.2489460000     3.9347520000
   22      O       1.0039430000    -0.8788290000     2.7641770000
   23      C      -1.5929810000    -5.5637990000    -4.3869390000
   24      H      -1.6073670000    -6.6640850000    -4.4298220000
   25      H      -0.9245040000    -5.1471010000    -5.1644890000
   26      H      -2.6054460000    -5.1487850000    -4.5534860000
   27      C       1.6773080000    -2.5874870000     4.6084810000
   28      H       1.8980890000    -3.4833290000     5.2119690000
   29      H       0.9023370000    -1.9649720000     5.0946240000
   30      H       2.5820980000    -1.9629320000     4.4830920000
   31      C       0.0000000000     0.0000000000     0.0000000000
   32      S       0.5096860000     0.6077330000     1.5805300000
   33      C       1.5623680000     1.8623120000     0.9049110000
   34      C       0.6413670000     0.7646130000    -0.9854000000
   35      C       1.4899260000     1.7760400000    -0.4935280000
   36      H       0.4899140000     0.5840810000    -2.0599340000
   37      H       2.0561240000     2.4509200000    -1.1525930000
   38      H       2.1283950000     2.5370070000     1.5560250000
   39      H      -0.7914340000    -7.3615890000     0.4475590000
   40      H       0.8973450000    -7.3611920000    -0.1662820000
   41      H      -1.0150490000    -1.4788310000     0.3688830000
 ----------------------------------------------------------------

   11   -1571.6004913226      7.63e-07  Convergence criterion met
 Total energy in the final basis set =    -1571.6004913226
        RIMP2         total energy =     -1576.2943722649 a.u.

                    Orbital Energies (a.u.)
 --------------------------------------------------------------

 Alpha MOs
 -- Occupied --
-91.9836 -20.5665 -20.5492 -20.5403 -20.5394 -15.6369 -15.6208 -11.4116
-11.3900 -11.3825 -11.3780 -11.3130 -11.3097 -11.3069 -11.3053 -11.3008
-11.2830 -11.2711 -11.2682 -11.2676 -11.2635 -11.2631 -11.2627 -11.2591
-11.2539 -11.2391 -11.2274  -8.9831  -6.6637  -6.6617  -6.6603  -1.4520
 -1.4113  -1.4079  -1.3904  -1.2752  -1.2551  -1.2300  -1.1839  -1.1435
 -1.1152  -1.0838  -1.0494  -0.9964  -0.9902  -0.9780  -0.9575  -0.9456
 -0.9027  -0.8888  -0.8809  -0.8634  -0.7907  -0.7862  -0.7782  -0.7586
 -0.7377  -0.7272  -0.7021  -0.6918  -0.6872  -0.6767  -0.6685  -0.6595
 -0.6536  -0.6446  -0.6382  -0.6324  -0.6321  -0.6312  -0.6253  -0.6060
 -0.5905  -0.5787  -0.5669  -0.5651  -0.5585  -0.5558  -0.5519  -0.5489
 -0.5475  -0.5455  -0.5268  -0.5142  -0.5106  -0.4883  -0.4693  -0.4625
 -0.4544  -0.4429  -0.4401  -0.4247  -0.4071  -0.3957  -0.3553  -0.3247
 -0.2853  -0.2690

          Ground-State Mulliken Net Atomic Charges

     Atom                 Charge (a.u.)
  ----------------------------------------
      1 C                    -0.085170
      2 C                    -0.023320
      3 C                    -0.116789
      4 C                    -0.123841
      5 H                     0.200167
      6 C                     0.021504
      7 C                     0.132243
      8 C                    -0.101694
      9 C                    -0.253520
     10 C                    -0.132969
     11 C                     0.189833
     12 H                     0.194209
     13 C                     0.342085
     14 C                     0.346493
     15 N                    -0.089383
     16 C                     0.359730
     17 C                     0.420901
     18 N                    -0.085068
     19 O                    -0.497346
     20 O                    -0.509428
     21 O                    -0.496416
     22 O                    -0.395001
     23 C                    -0.205165
     24 H                     0.139283
     25 H                     0.109180
     26 H                     0.108991
     27 C                    -0.199986
     28 H                     0.136527
     29 H                     0.114229
     30 H                     0.114332
     31 C                    -0.111284
     32 S                     0.113063
     33 C                    -0.247238
     34 C                    -0.163554
     35 C                    -0.265538
     36 H                     0.181072
     37 H                     0.178689
     38 H                     0.201808
     39 H                     0.138336
     40 H                     0.138611
     41 H                     0.221423
  ----------------------------------------
  Sum of atomic charges =     0.000000

                    Cartesian Multipole Moments
 -----------------------------------------------------------------
    Charge (ESU x 10^10)
                -0.0000
    Dipole Moment (Debye)
         X       1.2536      Y      -0.2130      Z       3.1835
       Tot       3.4280
    Quadrupole Moments (Debye-Ang)
        XX    -162.5394     XY       0.7848     YY    -183.0717
        XZ      -7.1983     YZ     -11.8825     ZZ    -179.9082

 Total job time:  340.75s(wall), 9627.58s(cpu)
        *  Thank you very much for using Q-Chem.  Have a nice day.  *
