 Q-Chem 5.4, Q-Chem, Inc., Pleasanton, CA (2021)
 Q-Chem 5.4.0 for Intel X86 EM64T Linux

User input:
--------------------------------------------------------------
$molecule
0 1
C	-0.256927	-6.741404	0.001478
C	-1.562675	-6.155638	0.001603
C	0.827197	-5.791452	0.001931
C	-1.841253	-4.803786	0.001374
H	-2.440709	-6.821518	0.001794
C	0.535488	-4.378638	0.001227
C	-0.794999	-3.838032	0.000872
C	1.580529	-3.413062	0.000658
C	-1.084374	-2.426473	0.000186
C	1.305258	-2.059348	0.000046
C	0.000000	-1.478216	0.000000
H	2.184267	-1.394783	-0.000369
C	2.269719	-6.187987	0.003770
C	3.011152	-3.798164	0.000767
N	3.254617	-5.170003	0.002465
C	-3.275775	-4.424987	0.001433
C	-2.527951	-2.036627	-0.000576
N	-3.513104	-3.049156	0.000400
O	2.661046	-7.353131	0.006623
O	3.934410	-2.986854	-0.000172
O	-4.188059	-5.248946	0.002151
O	-2.940845	-0.878829	-0.002006
C	4.667206	-5.563799	0.003509
H	4.712423	-6.664085	0.004658
H	5.169231	-5.147101	0.897610
H	5.169992	-5.148785	-0.890935
C	-4.904229	-2.587487	-0.000039
H	-5.546833	-3.483329	0.001022
H	-5.095998	-1.964972	-0.894545
H	-5.095858	-1.962932	0.893071
C	0.000000	0.000000	0.000000
S	0.205093	0.766196	1.580530
C	0.628939	2.348114	0.904911
C	0.258137	0.964028	-0.985400
C	0.599745	2.239309	-0.493528
H	0.197169	0.736404	-2.059934
H	0.827678	3.090243	-1.152593
H	0.856796	3.198808	1.556025
H	-0.149881	-7.361589	-0.896779
H	-0.150656	-7.361192	0.900100
H	0.000531	-1.478831	-1.080000
$end

$rem
JOBTYPE		SP
EXCHANGE	HF
CORRELATION	pRIMP2
BASIS		cc-pvtz
METHOD		rimp2
AUX_BASIS	rimp2-cc-pvtz
SOLVENT_METHOD	PCM
PURECART	11111
SYMMETRY	false
MEM_TOTAL	110000
SCF_CONVERGENCE = 6
THRESH=10
GUI = 2
$end

$solvent
dielectric 4.90
$end
--------------------------------------------------------------

             Standard Nuclear Orientation (Angstroms)
    I     Atom           X                Y                Z
 ----------------------------------------------------------------
    1      C      -0.2569270000    -6.7414040000     0.0014780000
    2      C      -1.5626750000    -6.1556380000     0.0016030000
    3      C       0.8271970000    -5.7914520000     0.0019310000
    4      C      -1.8412530000    -4.8037860000     0.0013740000
    5      H      -2.4407090000    -6.8215180000     0.0017940000
    6      C       0.5354880000    -4.3786380000     0.0012270000
    7      C      -0.7949990000    -3.8380320000     0.0008720000
    8      C       1.5805290000    -3.4130620000     0.0006580000
    9      C      -1.0843740000    -2.4264730000     0.0001860000
   10      C       1.3052580000    -2.0593480000     0.0000460000
   11      C       0.0000000000    -1.4782160000     0.0000000000
   12      H       2.1842670000    -1.3947830000    -0.0003690000
   13      C       2.2697190000    -6.1879870000     0.0037700000
   14      C       3.0111520000    -3.7981640000     0.0007670000
   15      N       3.2546170000    -5.1700030000     0.0024650000
   16      C      -3.2757750000    -4.4249870000     0.0014330000
   17      C      -2.5279510000    -2.0366270000    -0.0005760000
   18      N      -3.5131040000    -3.0491560000     0.0004000000
   19      O       2.6610460000    -7.3531310000     0.0066230000
   20      O       3.9344100000    -2.9868540000    -0.0001720000
   21      O      -4.1880590000    -5.2489460000     0.0021510000
   22      O      -2.9408450000    -0.8788290000    -0.0020060000
   23      C       4.6672060000    -5.5637990000     0.0035090000
   24      H       4.7124230000    -6.6640850000     0.0046580000
   25      H       5.1692310000    -5.1471010000     0.8976100000
   26      H       5.1699920000    -5.1487850000    -0.8909350000
   27      C      -4.9042290000    -2.5874870000    -0.0000390000
   28      H      -5.5468330000    -3.4833290000     0.0010220000
   29      H      -5.0959980000    -1.9649720000    -0.8945450000
   30      H      -5.0958580000    -1.9629320000     0.8930710000
   31      C       0.0000000000     0.0000000000     0.0000000000
   32      S       0.2050930000     0.7661960000     1.5805300000
   33      C       0.6289390000     2.3481140000     0.9049110000
   34      C       0.2581370000     0.9640280000    -0.9854000000
   35      C       0.5997450000     2.2393090000    -0.4935280000
   36      H       0.1971690000     0.7364040000    -2.0599340000
   37      H       0.8276780000     3.0902430000    -1.1525930000
   38      H       0.8567960000     3.1988080000     1.5560250000
   39      H      -0.1498810000    -7.3615890000    -0.8967790000
   40      H      -0.1506560000    -7.3611920000     0.9001000000
   41      H       0.0005310000    -1.4788310000    -1.0800000000
 ----------------------------------------------------------------

   11   -1571.7480450443      5.42e-07  Convergence criterion met
 Total energy in the final basis set =    -1571.7480450443
        RIMP2         total energy =     -1576.4022361338 a.u.

                    Orbital Energies (a.u.)
 --------------------------------------------------------------

 Alpha MOs
 -- Occupied --
-91.9878 -20.5525 -20.5443 -20.5420 -20.5408 -15.6268 -15.6215 -11.3934
-11.3850 -11.3839 -11.3795 -11.3094 -11.3080 -11.3049 -11.3046 -11.2976
-11.2962 -11.2897 -11.2824 -11.2695 -11.2679 -11.2652 -11.2626 -11.2595
-11.2584 -11.2528 -11.2514  -8.9876  -6.6684  -6.6679  -6.6674  -1.4194
 -1.4125  -1.3971  -1.3916  -1.2620  -1.2556  -1.2298  -1.1868  -1.1529
 -1.1142  -1.0864  -1.0466  -0.9957  -0.9877  -0.9853  -0.9552  -0.9511
 -0.8966  -0.8877  -0.8765  -0.8598  -0.7951  -0.7771  -0.7707  -0.7626
 -0.7428  -0.7174  -0.7045  -0.6918  -0.6811  -0.6719  -0.6666  -0.6573
 -0.6471  -0.6439  -0.6360  -0.6332  -0.6309  -0.6277  -0.6219  -0.6046
 -0.5846  -0.5758  -0.5676  -0.5614  -0.5571  -0.5513  -0.5506  -0.5481
 -0.5468  -0.5436  -0.5203  -0.5160  -0.5086  -0.4826  -0.4753  -0.4619
 -0.4584  -0.4513  -0.4430  -0.4347  -0.4133  -0.4075  -0.3573  -0.3501
 -0.3282  -0.2906

          Ground-State Mulliken Net Atomic Charges

     Atom                 Charge (a.u.)
  ----------------------------------------
      1 C                    -0.084404
      2 C                    -0.031790
      3 C                    -0.110978
      4 C                    -0.120847
      5 H                     0.198754
      6 C                     0.016749
      7 C                     0.121107
      8 C                    -0.087134
      9 C                    -0.178861
     10 C                    -0.100413
     11 C                     0.154189
     12 H                     0.198491
     13 C                     0.343708
     14 C                     0.345416
     15 N                    -0.090238
     16 C                     0.357278
     17 C                     0.345638
     18 N                    -0.093349
     19 O                    -0.494019
     20 O                    -0.506756
     21 O                    -0.501502
     22 O                    -0.471750
     23 C                    -0.204755
     24 H                     0.139507
     25 H                     0.109410
     26 H                     0.108949
     27 C                    -0.196875
     28 H                     0.133222
     29 H                     0.111122
     30 H                     0.112118
     31 C                     0.017698
     32 S                     0.012642
     33 C                    -0.210138
     34 C                    -0.204590
     35 C                    -0.200447
     36 H                     0.185248
     37 H                     0.192759
     38 H                     0.210552
     39 H                     0.137508
     40 H                     0.137824
     41 H                     0.198956
  ----------------------------------------
  Sum of atomic charges =     0.000000

                    Cartesian Multipole Moments
 -----------------------------------------------------------------
    Charge (ESU x 10^10)
                 0.0000
    Dipole Moment (Debye)
         X      -0.3255      Y       2.1526      Z      -1.8502
       Tot       2.8571
    Quadrupole Moments (Debye-Ang)
        XX    -195.2528     XY      11.4284     YY    -177.9680
        XZ       0.1886     YZ       1.9078     ZZ    -156.2984

 Total job time:  303.25s(wall), 8884.34s(cpu)
        *  Thank you very much for using Q-Chem.  Have a nice day.  *
