 Q-Chem 5.4, Q-Chem, Inc., Pleasanton, CA (2021)
 Q-Chem 5.4.0 for Intel X86 EM64T Linux

User input:
--------------------------------------------------------------
$molecule
0 1
C	-0.256927	-6.741404	0.001478
C	-1.562675	-6.155638	0.001603
C	0.827197	-5.791452	0.001931
C	-1.841253	-4.803786	0.001374
H	-2.440709	-6.821518	0.001794
C	0.535488	-4.378638	0.001227
C	-0.794999	-3.838032	0.000872
C	1.580529	-3.413062	0.000658
C	-1.084374	-2.426473	0.000186
C	1.305258	-2.059348	0.000046
C	-0.000000	-1.478216	-0.000000
H	2.184267	-1.394783	-0.000369
C	2.269719	-6.187987	0.003770
C	3.011152	-3.798164	0.000767
N	3.254617	-5.170003	0.002465
C	-3.275775	-4.424987	0.001433
C	-2.527951	-2.036627	-0.000576
N	-3.513104	-3.049156	0.000400
O	2.661046	-7.353131	0.006623
O	3.934410	-2.986854	-0.000172
O	-4.188059	-5.248946	0.002151
O	-2.940845	-0.878829	-0.002006
C	4.667206	-5.563799	0.003509
H	4.712423	-6.664085	0.004658
H	5.169231	-5.147101	0.897610
H	5.169992	-5.148785	-0.890935
C	-4.904229	-2.587487	-0.000039
H	-5.546833	-3.483329	0.001022
H	-5.095998	-1.964972	-0.894545
H	-5.095858	-1.962932	0.893071
C	0.000000	0.000000	0.000000
S	0.607475	0.509994	1.580530
C	1.862020	1.562717	0.904911
C	0.764397	0.641624	-0.985400
C	1.775697	1.490335	-0.493528
H	0.583895	0.490135	-2.059934
H	2.450484	2.056643	-1.152593
H	2.536607	2.128872	1.556025
H	-0.149881	-7.361589	-0.896779
H	-0.150656	-7.361192	0.900100
H	0.000531	-1.478831	-1.080000
$end

$rem
JOBTYPE		SP
EXCHANGE	HF
CORRELATION	pRIMP2
BASIS		cc-pvtz
METHOD		rimp2
AUX_BASIS	rimp2-cc-pvtz
SOLVENT_METHOD	PCM
PURECART	11111
SYMMETRY	false
MEM_TOTAL	110000
SCF_CONVERGENCE = 6
THRESH=10
GUI = 2
$end

$solvent
dielectric 4.90
$end
--------------------------------------------------------------

             Standard Nuclear Orientation (Angstroms)
    I     Atom           X                Y                Z
 ----------------------------------------------------------------
    1      C      -0.2569270000    -6.7414040000     0.0014780000
    2      C      -1.5626750000    -6.1556380000     0.0016030000
    3      C       0.8271970000    -5.7914520000     0.0019310000
    4      C      -1.8412530000    -4.8037860000     0.0013740000
    5      H      -2.4407090000    -6.8215180000     0.0017940000
    6      C       0.5354880000    -4.3786380000     0.0012270000
    7      C      -0.7949990000    -3.8380320000     0.0008720000
    8      C       1.5805290000    -3.4130620000     0.0006580000
    9      C      -1.0843740000    -2.4264730000     0.0001860000
   10      C       1.3052580000    -2.0593480000     0.0000460000
   11      C       0.0000000000    -1.4782160000     0.0000000000
   12      H       2.1842670000    -1.3947830000    -0.0003690000
   13      C       2.2697190000    -6.1879870000     0.0037700000
   14      C       3.0111520000    -3.7981640000     0.0007670000
   15      N       3.2546170000    -5.1700030000     0.0024650000
   16      C      -3.2757750000    -4.4249870000     0.0014330000
   17      C      -2.5279510000    -2.0366270000    -0.0005760000
   18      N      -3.5131040000    -3.0491560000     0.0004000000
   19      O       2.6610460000    -7.3531310000     0.0066230000
   20      O       3.9344100000    -2.9868540000    -0.0001720000
   21      O      -4.1880590000    -5.2489460000     0.0021510000
   22      O      -2.9408450000    -0.8788290000    -0.0020060000
   23      C       4.6672060000    -5.5637990000     0.0035090000
   24      H       4.7124230000    -6.6640850000     0.0046580000
   25      H       5.1692310000    -5.1471010000     0.8976100000
   26      H       5.1699920000    -5.1487850000    -0.8909350000
   27      C      -4.9042290000    -2.5874870000    -0.0000390000
   28      H      -5.5468330000    -3.4833290000     0.0010220000
   29      H      -5.0959980000    -1.9649720000    -0.8945450000
   30      H      -5.0958580000    -1.9629320000     0.8930710000
   31      C       0.0000000000     0.0000000000     0.0000000000
   32      S       0.6074750000     0.5099940000     1.5805300000
   33      C       1.8620200000     1.5627170000     0.9049110000
   34      C       0.7643970000     0.6416240000    -0.9854000000
   35      C       1.7756970000     1.4903350000    -0.4935280000
   36      H       0.5838950000     0.4901350000    -2.0599340000
   37      H       2.4504840000     2.0566430000    -1.1525930000
   38      H       2.5366070000     2.1288720000     1.5560250000
   39      H      -0.1498810000    -7.3615890000    -0.8967790000
   40      H      -0.1506560000    -7.3611920000     0.9001000000
   41      H       0.0005310000    -1.4788310000    -1.0800000000
 ----------------------------------------------------------------

   11   -1571.7081942686      5.48e-07  Convergence criterion met
 Total energy in the final basis set =    -1571.7081942686
        RIMP2         total energy =     -1576.3731726799 a.u.

                    Orbital Energies (a.u.)
 --------------------------------------------------------------

 Alpha MOs
 -- Occupied --
-91.9900 -20.5515 -20.5432 -20.5405 -20.5399 -15.6257 -15.6203 -11.3918
-11.3837 -11.3822 -11.3783 -11.3062 -11.3035 -11.3026 -11.3008 -11.2984
-11.2934 -11.2846 -11.2824 -11.2691 -11.2665 -11.2659 -11.2629 -11.2620
-11.2590 -11.2559 -11.2509  -8.9903  -6.6710  -6.6703  -6.6700  -1.4182
 -1.4113  -1.3960  -1.3905  -1.2607  -1.2545  -1.2307  -1.1920  -1.1523
 -1.1120  -1.0838  -1.0444  -0.9993  -0.9923  -0.9865  -0.9543  -0.9487
 -0.8951  -0.8853  -0.8743  -0.8569  -0.7949  -0.7773  -0.7692  -0.7661
 -0.7429  -0.7167  -0.7039  -0.6904  -0.6826  -0.6705  -0.6654  -0.6562
 -0.6456  -0.6426  -0.6355  -0.6328  -0.6294  -0.6259  -0.6203  -0.6041
 -0.5829  -0.5789  -0.5712  -0.5604  -0.5557  -0.5506  -0.5501  -0.5473
 -0.5465  -0.5426  -0.5229  -0.5087  -0.4997  -0.4830  -0.4743  -0.4614
 -0.4579  -0.4501  -0.4417  -0.4329  -0.4123  -0.4065  -0.3634  -0.3457
 -0.3324  -0.2872

          Ground-State Mulliken Net Atomic Charges

     Atom                 Charge (a.u.)
  ----------------------------------------
      1 C                    -0.086681
      2 C                    -0.035874
      3 C                    -0.111151
      4 C                    -0.119588
      5 H                     0.197473
      6 C                     0.018154
      7 C                     0.123321
      8 C                    -0.112755
      9 C                    -0.203105
     10 C                    -0.112827
     11 C                     0.171111
     12 H                     0.198992
     13 C                     0.343662
     14 C                     0.339941
     15 N                    -0.089389
     16 C                     0.355553
     17 C                     0.356047
     18 N                    -0.091212
     19 O                    -0.496176
     20 O                    -0.509254
     21 O                    -0.502326
     22 O                    -0.467537
     23 C                    -0.205421
     24 H                     0.139449
     25 H                     0.108936
     26 H                     0.108490
     27 C                    -0.198011
     28 H                     0.133034
     29 H                     0.110863
     30 H                     0.111655
     31 C                    -0.026212
     32 S                     0.020795
     33 C                    -0.160175
     34 C                    -0.161981
     35 C                    -0.212066
     36 H                     0.190010
     37 H                     0.194841
     38 H                     0.214077
     39 H                     0.135911
     40 H                     0.136236
     41 H                     0.193191
  ----------------------------------------
  Sum of atomic charges =     0.000000

                    Cartesian Multipole Moments
 -----------------------------------------------------------------
    Charge (ESU x 10^10)
                 0.0000
    Dipole Moment (Debye)
         X       1.2172      Y       2.7584      Z      -1.7721
       Tot       3.4973
    Quadrupole Moments (Debye-Ang)
        XX    -189.5155     XY      15.0546     YY    -187.2830
        XZ       0.7849     YZ       1.8275     ZZ    -155.7099

 Total job time:  300.33s(wall), 9155.42s(cpu)
        *  Thank you very much for using Q-Chem.  Have a nice day.  *
