 Q-Chem 5.4, Q-Chem, Inc., Pleasanton, CA (2021)
 Q-Chem 5.4.0 for Intel X86 EM64T Linux

User input:
--------------------------------------------------------------
$molecule
0 1
C	-0.166281	-6.741404	-0.195868
C	-1.005696	-6.155638	-1.196048
C	0.530233	-5.791452	0.634911
C	-1.184587	-4.803786	-1.409599
H	-1.570232	-6.821518	-1.868538
C	0.343266	-4.378638	0.410996
C	-0.511683	-3.838032	-0.608444
C	1.015440	-3.413062	1.211179
C	-0.697165	-2.426473	-0.830559
C	0.838968	-2.059348	0.999915
C	0.000000	-1.478216	0.000000
H	1.404302	-1.394783	1.673009
C	1.456059	-6.187987	1.741129
C	1.934944	-3.798164	2.307170
N	2.090139	-5.170003	2.494766
C	-2.106725	-4.424987	-2.508468
C	-1.624494	-2.036627	-1.936893
N	-2.258486	-3.049156	-2.690936
O	1.705414	-7.353131	2.042736
O	2.529122	-2.986854	3.013823
O	-2.693680	-5.248946	-3.206857
O	-1.888802	-0.878829	-2.254108
C	2.997334	-5.563799	3.577543
H	3.025519	-6.664085	3.612920
H	2.635109	-5.147101	4.536833
H	4.005702	-5.148785	3.387762
C	-3.152347	-2.587487	-3.756883
H	-3.566218	-3.483329	-4.248464
H	-2.590383	-1.964972	-4.478763
H	-3.959687	-1.962932	-3.329599
C	0.000000	0.000000	0.000000
S	0.205093	0.766196	1.580530
C	0.628939	2.348114	0.904911
C	0.258137	0.964028	-0.985400
C	0.599745	2.239309	-0.493528
H	0.197169	0.736404	-2.059934
H	0.827678	3.090243	-1.152593
H	0.856796	3.198808	1.556025
H	0.590631	-7.361589	-0.691254
H	-0.786357	-7.361192	0.463164
H	0.827669	-1.478831	-0.693804
$end

$rem
JOBTYPE		SP
EXCHANGE	HF
CORRELATION	pRIMP2
BASIS		cc-pvtz
METHOD		rimp2
AUX_BASIS	rimp2-cc-pvtz
SOLVENT_METHOD	PCM
PURECART	11111
SYMMETRY	false
MEM_TOTAL	110000
SCF_CONVERGENCE = 6
THRESH=10
GUI = 2
$end

$solvent
dielectric 4.90
$end
--------------------------------------------------------------

             Standard Nuclear Orientation (Angstroms)
    I     Atom           X                Y                Z
 ----------------------------------------------------------------
    1      C      -0.1662810000    -6.7414040000    -0.1958680000
    2      C      -1.0056960000    -6.1556380000    -1.1960480000
    3      C       0.5302330000    -5.7914520000     0.6349110000
    4      C      -1.1845870000    -4.8037860000    -1.4095990000
    5      H      -1.5702320000    -6.8215180000    -1.8685380000
    6      C       0.3432660000    -4.3786380000     0.4109960000
    7      C      -0.5116830000    -3.8380320000    -0.6084440000
    8      C       1.0154400000    -3.4130620000     1.2111790000
    9      C      -0.6971650000    -2.4264730000    -0.8305590000
   10      C       0.8389680000    -2.0593480000     0.9999150000
   11      C       0.0000000000    -1.4782160000     0.0000000000
   12      H       1.4043020000    -1.3947830000     1.6730090000
   13      C       1.4560590000    -6.1879870000     1.7411290000
   14      C       1.9349440000    -3.7981640000     2.3071700000
   15      N       2.0901390000    -5.1700030000     2.4947660000
   16      C      -2.1067250000    -4.4249870000    -2.5084680000
   17      C      -1.6244940000    -2.0366270000    -1.9368930000
   18      N      -2.2584860000    -3.0491560000    -2.6909360000
   19      O       1.7054140000    -7.3531310000     2.0427360000
   20      O       2.5291220000    -2.9868540000     3.0138230000
   21      O      -2.6936800000    -5.2489460000    -3.2068570000
   22      O      -1.8888020000    -0.8788290000    -2.2541080000
   23      C       2.9973340000    -5.5637990000     3.5775430000
   24      H       3.0255190000    -6.6640850000     3.6129200000
   25      H       2.6351090000    -5.1471010000     4.5368330000
   26      H       4.0057020000    -5.1487850000     3.3877620000
   27      C      -3.1523470000    -2.5874870000    -3.7568830000
   28      H      -3.5662180000    -3.4833290000    -4.2484640000
   29      H      -2.5903830000    -1.9649720000    -4.4787630000
   30      H      -3.9596870000    -1.9629320000    -3.3295990000
   31      C       0.0000000000     0.0000000000     0.0000000000
   32      S       0.2050930000     0.7661960000     1.5805300000
   33      C       0.6289390000     2.3481140000     0.9049110000
   34      C       0.2581370000     0.9640280000    -0.9854000000
   35      C       0.5997450000     2.2393090000    -0.4935280000
   36      H       0.1971690000     0.7364040000    -2.0599340000
   37      H       0.8276780000     3.0902430000    -1.1525930000
   38      H       0.8567960000     3.1988080000     1.5560250000
   39      H       0.5906310000    -7.3615890000    -0.6912540000
   40      H      -0.7863570000    -7.3611920000     0.4631640000
   41      H       0.8276690000    -1.4788310000    -0.6938040000
 ----------------------------------------------------------------

   11   -1571.7405692569      5.74e-07  Convergence criterion met
 Total energy in the final basis set =    -1571.7405692569
        RIMP2         total energy =     -1576.3979588852 a.u.

                    Orbital Energies (a.u.)
 --------------------------------------------------------------

 Alpha MOs
 -- Occupied --
-91.9907 -20.5529 -20.5448 -20.5417 -20.5408 -15.6275 -15.6214 -11.3944
-11.3855 -11.3836 -11.3794 -11.3087 -11.3081 -11.3054 -11.3047 -11.2988
-11.2968 -11.2913 -11.2787 -11.2691 -11.2683 -11.2657 -11.2634 -11.2595
-11.2528 -11.2506 -11.2495  -8.9905  -6.6714  -6.6709  -6.6703  -1.4204
 -1.4123  -1.3979  -1.3915  -1.2627  -1.2556  -1.2310  -1.1878  -1.1518
 -1.1145  -1.0868  -1.0474  -0.9957  -0.9881  -0.9848  -0.9554  -0.9501
 -0.8971  -0.8888  -0.8770  -0.8601  -0.7958  -0.7791  -0.7712  -0.7599
 -0.7406  -0.7163  -0.7026  -0.6918  -0.6822  -0.6721  -0.6672  -0.6575
 -0.6474  -0.6455  -0.6373  -0.6322  -0.6310  -0.6281  -0.6226  -0.6047
 -0.5882  -0.5743  -0.5651  -0.5610  -0.5573  -0.5517  -0.5507  -0.5496
 -0.5478  -0.5436  -0.5176  -0.5148  -0.5115  -0.4853  -0.4760  -0.4650
 -0.4579  -0.4516  -0.4430  -0.4349  -0.4139  -0.4077  -0.3537  -0.3530
 -0.3308  -0.2820

          Ground-State Mulliken Net Atomic Charges

     Atom                 Charge (a.u.)
  ----------------------------------------
      1 C                    -0.084876
      2 C                    -0.030549
      3 C                    -0.111024
      4 C                    -0.125073
      5 H                     0.198972
      6 C                     0.022447
      7 C                     0.115481
      8 C                    -0.076465
      9 C                    -0.177133
     10 C                    -0.152182
     11 C                     0.184735
     12 H                     0.193212
     13 C                     0.342636
     14 C                     0.347204
     15 N                    -0.089925
     16 C                     0.357246
     17 C                     0.347541
     18 N                    -0.090406
     19 O                    -0.494465
     20 O                    -0.506638
     21 O                    -0.501343
     22 O                    -0.471955
     23 C                    -0.204773
     24 H                     0.139469
     25 H                     0.109397
     26 H                     0.109076
     27 C                    -0.197589
     28 H                     0.133551
     29 H                     0.110746
     30 H                     0.112359
     31 C                     0.001378
     32 S                     0.007962
     33 C                    -0.211421
     34 C                    -0.169586
     35 C                    -0.216153
     36 H                     0.187209
     37 H                     0.190536
     38 H                     0.211504
     39 H                     0.137578
     40 H                     0.137808
     41 H                     0.213512
  ----------------------------------------
  Sum of atomic charges =     0.000000

                    Cartesian Multipole Moments
 -----------------------------------------------------------------
    Charge (ESU x 10^10)
                 0.0000
    Dipole Moment (Debye)
         X       0.5638      Y       1.9481      Z      -2.2729
       Tot       3.0461
    Quadrupole Moments (Debye-Ang)
        XX    -175.5704     XY       7.2168     YY    -178.4828
        XZ     -16.2489     YZ       8.1512     ZZ    -175.6668

 Total job time:  300.79s(wall), 8731.74s(cpu)
        *  Thank you very much for using Q-Chem.  Have a nice day.  *
