 Q-Chem 5.4, Q-Chem, Inc., Pleasanton, CA (2021)
 Q-Chem 5.4.0 for Intel X86 EM64T Linux

User input:
--------------------------------------------------------------
$molecule
0 1
C	0.253280	-6.741404	0.043160
C	1.539213	-6.155638	0.269777
C	-0.814295	-5.791452	-0.145543
C	1.813519	-4.803786	0.318377
H	2.403941	-6.821518	0.422058
C	-0.527140	-4.378638	-0.094194
C	0.783072	-3.838032	0.137191
C	-1.556403	-3.413062	-0.275104
C	1.067932	-2.426473	0.188116
C	-1.285420	-2.059348	-0.226701
C	-0.000000	-1.478216	-0.000000
H	-2.151147	-1.394783	-0.378931
C	-2.234582	-6.187987	-0.397845
C	-2.965273	-3.798164	-0.523637
N	-3.204744	-5.170003	-0.567586
C	3.226257	-4.424987	0.567421
C	2.489446	-2.036627	0.439541
N	3.459801	-3.049156	0.609650
O	-2.619468	-7.353131	-0.468608
O	-3.874668	-2.986854	-0.683034
O	4.124806	-5.248946	0.725131
O	2.895819	-0.878829	0.512648
C	-4.595691	-5.563799	-0.813908
H	-4.640022	-6.664085	-0.822891
H	-4.934830	-5.147101	-1.781600
H	-5.246157	-5.148785	-0.020360
C	4.829716	-2.587487	0.851649
H	5.462742	-3.483329	0.962191
H	4.863242	-1.964972	1.765865
H	5.173521	-1.962932	0.005383
C	0.000000	0.000000	0.000000
S	0.335026	0.718942	1.580530
C	1.027130	2.203226	0.904911
C	0.421617	0.904557	-0.985400
C	0.979485	2.101144	-0.493528
H	0.322049	0.690978	-2.059934
H	1.351718	2.899571	-1.152593
H	1.399246	3.001430	1.556025
H	-0.008120	-7.361589	0.909181
H	0.304668	-7.361192	-0.860264
H	-0.188062	-1.478831	1.063500
$end

$rem
JOBTYPE		SP
EXCHANGE	HF
CORRELATION	pRIMP2
BASIS		cc-pvtz
METHOD		rimp2
AUX_BASIS	rimp2-cc-pvtz
SOLVENT_METHOD	PCM
PURECART	11111
SYMMETRY	false
MEM_TOTAL	110000
SCF_CONVERGENCE = 6
THRESH=10
GUI = 2
$end

$solvent
dielectric 4.90
$end
--------------------------------------------------------------

             Standard Nuclear Orientation (Angstroms)
    I     Atom           X                Y                Z
 ----------------------------------------------------------------
    1      C       0.2532800000    -6.7414040000     0.0431600000
    2      C       1.5392130000    -6.1556380000     0.2697770000
    3      C      -0.8142950000    -5.7914520000    -0.1455430000
    4      C       1.8135190000    -4.8037860000     0.3183770000
    5      H       2.4039410000    -6.8215180000     0.4220580000
    6      C      -0.5271400000    -4.3786380000    -0.0941940000
    7      C       0.7830720000    -3.8380320000     0.1371910000
    8      C      -1.5564030000    -3.4130620000    -0.2751040000
    9      C       1.0679320000    -2.4264730000     0.1881160000
   10      C      -1.2854200000    -2.0593480000    -0.2267010000
   11      C       0.0000000000    -1.4782160000     0.0000000000
   12      H      -2.1511470000    -1.3947830000    -0.3789310000
   13      C      -2.2345820000    -6.1879870000    -0.3978450000
   14      C      -2.9652730000    -3.7981640000    -0.5236370000
   15      N      -3.2047440000    -5.1700030000    -0.5675860000
   16      C       3.2262570000    -4.4249870000     0.5674210000
   17      C       2.4894460000    -2.0366270000     0.4395410000
   18      N       3.4598010000    -3.0491560000     0.6096500000
   19      O      -2.6194680000    -7.3531310000    -0.4686080000
   20      O      -3.8746680000    -2.9868540000    -0.6830340000
   21      O       4.1248060000    -5.2489460000     0.7251310000
   22      O       2.8958190000    -0.8788290000     0.5126480000
   23      C      -4.5956910000    -5.5637990000    -0.8139080000
   24      H      -4.6400220000    -6.6640850000    -0.8228910000
   25      H      -4.9348300000    -5.1471010000    -1.7816000000
   26      H      -5.2461570000    -5.1487850000    -0.0203600000
   27      C       4.8297160000    -2.5874870000     0.8516490000
   28      H       5.4627420000    -3.4833290000     0.9621910000
   29      H       4.8632420000    -1.9649720000     1.7658650000
   30      H       5.1735210000    -1.9629320000     0.0053830000
   31      C       0.0000000000     0.0000000000     0.0000000000
   32      S       0.3350260000     0.7189420000     1.5805300000
   33      C       1.0271300000     2.2032260000     0.9049110000
   34      C       0.4216170000     0.9045570000    -0.9854000000
   35      C       0.9794850000     2.1011440000    -0.4935280000
   36      H       0.3220490000     0.6909780000    -2.0599340000
   37      H       1.3517180000     2.8995710000    -1.1525930000
   38      H       1.3992460000     3.0014300000     1.5560250000
   39      H      -0.0081200000    -7.3615890000     0.9091810000
   40      H       0.3046680000    -7.3611920000    -0.8602640000
   41      H      -0.1880620000    -1.4788310000     1.0635000000
 ----------------------------------------------------------------

   11   -1571.7324336055      5.62e-07  Convergence criterion met
 Total energy in the final basis set =    -1571.7324336055
        RIMP2         total energy =     -1576.3908875557 a.u.

                    Orbital Energies (a.u.)
 --------------------------------------------------------------

 Alpha MOs
 -- Occupied --
-91.9893 -20.5497 -20.5438 -20.5409 -20.5396 -15.6258 -15.6205 -11.3914
-11.3844 -11.3828 -11.3780 -11.3075 -11.3062 -11.3040 -11.3038 -11.2957
-11.2868 -11.2865 -11.2852 -11.2679 -11.2675 -11.2624 -11.2623 -11.2590
-11.2566 -11.2521 -11.2500  -8.9892  -6.6700  -6.6694  -6.6689  -1.4180
 -1.4114  -1.3961  -1.3906  -1.2610  -1.2546  -1.2286  -1.1860  -1.1517
 -1.1128  -1.0854  -1.0454  -0.9950  -0.9871  -0.9844  -0.9542  -0.9507
 -0.8948  -0.8853  -0.8760  -0.8592  -0.7911  -0.7752  -0.7738  -0.7678
 -0.7367  -0.7166  -0.7037  -0.6906  -0.6758  -0.6690  -0.6668  -0.6564
 -0.6461  -0.6397  -0.6370  -0.6312  -0.6302  -0.6258  -0.6226  -0.6040
 -0.5836  -0.5738  -0.5678  -0.5608  -0.5561  -0.5506  -0.5496  -0.5473
 -0.5462  -0.5429  -0.5189  -0.5126  -0.5067  -0.4798  -0.4724  -0.4676
 -0.4546  -0.4486  -0.4418  -0.4337  -0.4128  -0.4068  -0.3531  -0.3502
 -0.3283  -0.2897

          Ground-State Mulliken Net Atomic Charges

     Atom                 Charge (a.u.)
  ----------------------------------------
      1 C                    -0.083896
      2 C                    -0.031562
      3 C                    -0.113890
      4 C                    -0.119876
      5 H                     0.198166
      6 C                     0.008073
      7 C                     0.116205
      8 C                    -0.074491
      9 C                    -0.159532
     10 C                    -0.160544
     11 C                     0.236241
     12 H                     0.190025
     13 C                     0.342985
     14 C                     0.349751
     15 N                    -0.089945
     16 C                     0.356185
     17 C                     0.357532
     18 N                    -0.089354
     19 O                    -0.495204
     20 O                    -0.507870
     21 O                    -0.502255
     22 O                    -0.468442
     23 C                    -0.204916
     24 H                     0.139339
     25 H                     0.108838
     26 H                     0.108969
     27 C                    -0.197831
     28 H                     0.133000
     29 H                     0.111118
     30 H                     0.111218
     31 C                    -0.056576
     32 S                     0.011838
     33 C                    -0.199563
     34 C                    -0.183367
     35 C                    -0.193376
     36 H                     0.188165
     37 H                     0.190806
     38 H                     0.212718
     39 H                     0.137086
     40 H                     0.137219
     41 H                     0.187014
  ----------------------------------------
  Sum of atomic charges =     0.000000

                    Cartesian Multipole Moments
 -----------------------------------------------------------------
    Charge (ESU x 10^10)
                 0.0000
    Dipole Moment (Debye)
         X       1.9565      Y       2.6727      Z      -0.0605
       Tot       3.3129
    Quadrupole Moments (Debye-Ang)
        XX    -193.2698     XY      -3.9106     YY    -180.8984
        XZ      -5.1169     YZ      -2.0031     ZZ    -157.0748

 Total job time:  299.71s(wall), 9077.31s(cpu)
        *  Thank you very much for using Q-Chem.  Have a nice day.  *
