 Q-Chem 5.4, Q-Chem, Inc., Pleasanton, CA (2021)
 Q-Chem 5.4.0 for Intel X86 EM64T Linux

User input:
--------------------------------------------------------------
$molecule
0 1
C	-0.046070	-6.741404	-0.252767
C	-0.272935	-6.155638	-1.538656
C	0.141739	-5.791452	0.814966
C	-0.321083	-4.803786	-1.813042
H	-0.425592	-6.821518	-2.403318
C	0.091779	-4.378638	0.527566
C	-0.138909	-3.838032	-0.782769
C	0.273808	-3.413062	1.556632
C	-0.188483	-2.426473	-1.067868
C	0.226610	-2.059348	1.285436
C	-0.000000	-1.478216	-0.000000
H	0.379657	-1.394783	2.151019
C	0.390420	-6.187987	2.235891
C	0.522125	-3.798164	2.965540
N	0.562731	-5.170003	3.205600
C	-0.570244	-4.424987	-3.225760
C	-0.438407	-2.036627	-2.489646
N	-0.610438	-3.049156	-3.459662
O	0.455563	-7.353131	2.621768
O	0.683373	-2.986854	3.874608
O	-0.729367	-5.248946	-4.124059
O	-0.508697	-0.878829	-2.896516
C	0.806996	-5.563799	4.596910
H	0.813717	-6.664085	4.641640
H	0.013655	-5.147101	5.246567
H	1.775159	-5.148785	4.936739
C	-0.851572	-2.587487	-4.829729
H	-0.964204	-3.483329	-5.462387
H	-0.003956	-1.964972	-5.173914
H	-1.764390	-1.962932	-4.863360
C	0.000000	0.000000	0.000000
S	0.686805	0.396760	1.580530
C	2.105095	1.215640	0.904911
C	0.864201	0.499140	-0.985400
C	2.007514	1.159347	-0.493528
H	0.660136	0.381296	-2.059934
H	2.770388	1.599875	-1.152593
H	2.867745	1.656053	1.556025
H	0.857128	-7.361589	-0.303328
H	-0.912587	-7.361192	0.007933
H	1.063684	-1.478831	-0.187017
$end

$rem
JOBTYPE		SP
EXCHANGE	HF
CORRELATION	pRIMP2
BASIS		cc-pvtz
METHOD		rimp2
AUX_BASIS	rimp2-cc-pvtz
SOLVENT_METHOD	PCM
PURECART	11111
SYMMETRY	false
MEM_TOTAL	110000
SCF_CONVERGENCE = 6
THRESH=10
GUI = 2
$end

$solvent
dielectric 4.90
$end
--------------------------------------------------------------

             Standard Nuclear Orientation (Angstroms)
    I     Atom           X                Y                Z
 ----------------------------------------------------------------
    1      C      -0.0460700000    -6.7414040000    -0.2527670000
    2      C      -0.2729350000    -6.1556380000    -1.5386560000
    3      C       0.1417390000    -5.7914520000     0.8149660000
    4      C      -0.3210830000    -4.8037860000    -1.8130420000
    5      H      -0.4255920000    -6.8215180000    -2.4033180000
    6      C       0.0917790000    -4.3786380000     0.5275660000
    7      C      -0.1389090000    -3.8380320000    -0.7827690000
    8      C       0.2738080000    -3.4130620000     1.5566320000
    9      C      -0.1884830000    -2.4264730000    -1.0678680000
   10      C       0.2266100000    -2.0593480000     1.2854360000
   11      C       0.0000000000    -1.4782160000     0.0000000000
   12      H       0.3796570000    -1.3947830000     2.1510190000
   13      C       0.3904200000    -6.1879870000     2.2358910000
   14      C       0.5221250000    -3.7981640000     2.9655400000
   15      N       0.5627310000    -5.1700030000     3.2056000000
   16      C      -0.5702440000    -4.4249870000    -3.2257600000
   17      C      -0.4384070000    -2.0366270000    -2.4896460000
   18      N      -0.6104380000    -3.0491560000    -3.4596620000
   19      O       0.4555630000    -7.3531310000     2.6217680000
   20      O       0.6833730000    -2.9868540000     3.8746080000
   21      O      -0.7293670000    -5.2489460000    -4.1240590000
   22      O      -0.5086970000    -0.8788290000    -2.8965160000
   23      C       0.8069960000    -5.5637990000     4.5969100000
   24      H       0.8137170000    -6.6640850000     4.6416400000
   25      H       0.0136550000    -5.1471010000     5.2465670000
   26      H       1.7751590000    -5.1487850000     4.9367390000
   27      C      -0.8515720000    -2.5874870000    -4.8297290000
   28      H      -0.9642040000    -3.4833290000    -5.4623870000
   29      H      -0.0039560000    -1.9649720000    -5.1739140000
   30      H      -1.7643900000    -1.9629320000    -4.8633600000
   31      C       0.0000000000     0.0000000000     0.0000000000
   32      S       0.6868050000     0.3967600000     1.5805300000
   33      C       2.1050950000     1.2156400000     0.9049110000
   34      C       0.8642010000     0.4991400000    -0.9854000000
   35      C       2.0075140000     1.1593470000    -0.4935280000
   36      H       0.6601360000     0.3812960000    -2.0599340000
   37      H       2.7703880000     1.5998750000    -1.1525930000
   38      H       2.8677450000     1.6560530000     1.5560250000
   39      H       0.8571280000    -7.3615890000    -0.3033280000
   40      H      -0.9125870000    -7.3611920000     0.0079330000
   41      H       1.0636840000    -1.4788310000    -0.1870170000
 ----------------------------------------------------------------

   11   -1571.6372010733      5.85e-07  Convergence criterion met
 Total energy in the final basis set =    -1571.6372010733
        RIMP2         total energy =     -1576.3175024143 a.u.

                    Orbital Energies (a.u.)
 --------------------------------------------------------------

 Alpha MOs
 -- Occupied --
-91.9900 -20.5541 -20.5448 -20.5378 -20.5375 -15.6285 -15.6187 -11.3966
-11.3854 -11.3799 -11.3755 -11.3064 -11.3055 -11.3019 -11.3011 -11.2967
-11.2957 -11.2863 -11.2728 -11.2670 -11.2639 -11.2633 -11.2597 -11.2580
-11.2579 -11.2525 -11.2506  -8.9924  -6.6730  -6.6720  -6.6718  -1.4237
 -1.4092  -1.3994  -1.3883  -1.2638  -1.2529  -1.2368  -1.1962  -1.1501
 -1.1113  -1.0839  -1.0472  -1.0006  -0.9986  -0.9868  -0.9541  -0.9460
 -0.8958  -0.8877  -0.8754  -0.8574  -0.7996  -0.7812  -0.7706  -0.7624
 -0.7381  -0.7233  -0.6990  -0.6932  -0.6865  -0.6716  -0.6669  -0.6561
 -0.6507  -0.6473  -0.6358  -0.6300  -0.6292  -0.6284  -0.6226  -0.6032
 -0.5961  -0.5788  -0.5709  -0.5614  -0.5586  -0.5518  -0.5499  -0.5473
 -0.5457  -0.5417  -0.5197  -0.5130  -0.4971  -0.4748  -0.4711  -0.4585
 -0.4536  -0.4501  -0.4400  -0.4331  -0.4148  -0.4060  -0.3589  -0.3430
 -0.3363  -0.2735

          Ground-State Mulliken Net Atomic Charges

     Atom                 Charge (a.u.)
  ----------------------------------------
      1 C                    -0.084284
      2 C                    -0.033223
      3 C                    -0.116618
      4 C                    -0.115909
      5 H                     0.198051
      6 C                     0.014211
      7 C                     0.114364
      8 C                    -0.024998
      9 C                    -0.220638
     10 C                    -0.177733
     11 C                     0.185892
     12 H                     0.191185
     13 C                     0.338425
     14 C                     0.344137
     15 N                    -0.088288
     16 C                     0.356608
     17 C                     0.382896
     18 N                    -0.089284
     19 O                    -0.500165
     20 O                    -0.514368
     21 O                    -0.501159
     22 O                    -0.487556
     23 C                    -0.205862
     24 H                     0.139079
     25 H                     0.108686
     26 H                     0.108087
     27 C                    -0.198568
     28 H                     0.134168
     29 H                     0.110826
     30 H                     0.112494
     31 C                    -0.098873
     32 S                     0.028212
     33 C                    -0.153309
     34 C                    -0.103762
     35 C                    -0.258117
     36 H                     0.233458
     37 H                     0.192736
     38 H                     0.218909
     39 H                     0.135941
     40 H                     0.136230
     41 H                     0.188120
  ----------------------------------------
  Sum of atomic charges =     0.000000

                    Cartesian Multipole Moments
 -----------------------------------------------------------------
    Charge (ESU x 10^10)
                 0.0000
    Dipole Moment (Debye)
         X       3.2665      Y       2.6026      Z      -2.2952
       Tot       4.7657
    Quadrupole Moments (Debye-Ang)
        XX    -154.2431     XY       6.3131     YY    -190.9114
        XZ      -4.7782     YZ      11.2675     ZZ    -187.8102

 Total job time:  338.85s(wall), 10345.87s(cpu)
        *  Thank you very much for using Q-Chem.  Have a nice day.  *
