 Q-Chem 5.4, Q-Chem, Inc., Pleasanton, CA (2021)
 Q-Chem 5.4.0 for Intel X86 EM64T Linux

User input:
--------------------------------------------------------------
$molecule
0 1
C	-0.240927	-6.741404	0.089263
C	-1.467886	-6.155638	0.535973
C	0.777972	-5.791452	-0.281103
C	-1.729742	-4.803786	0.631036
H	-2.292903	-6.821518	0.836458
C	0.503614	-4.378638	-0.181995
C	-0.746756	-3.838032	0.272725
C	1.485437	-3.413062	-0.539954
C	-1.018915	-2.426473	0.371053
C	1.226557	-2.059348	-0.446381
C	0.000000	-1.478216	0.000000
H	2.052413	-1.394783	-0.747410
C	2.134128	-6.187987	-0.772747
C	2.829820	-3.798164	-1.029154
N	3.059182	-5.170003	-1.110828
C	-3.077731	-4.424987	1.121728
C	-2.375694	-2.036627	0.864069
N	-3.301101	-3.049156	1.201928
O	2.502830	-7.353131	-0.903908
O	3.697078	-2.986854	-1.345809
O	-3.934752	-5.248946	1.434422
O	-2.764177	-0.878829	1.003943
C	4.386939	-5.563799	-1.592981
H	4.429822	-6.664085	-1.607367
H	5.164489	-5.147101	-0.924504
H	4.553486	-5.148785	-2.605446
C	-4.608481	-2.587487	1.677308
H	-5.211969	-3.483329	1.898089
H	-5.094624	-1.964972	0.902337
H	-4.483092	-1.962932	2.582098
C	0.000000	0.000000	0.000000
S	0.509686	0.607733	1.580530
C	1.562368	1.862312	0.904911
C	0.641367	0.764613	-0.985400
C	1.489926	1.776040	-0.493528
H	0.489914	0.584081	-2.059934
H	2.056124	2.450920	-1.152593
H	2.128395	2.537007	1.556025
H	-0.447559	-7.361589	-0.791434
H	0.166282	-7.361192	0.897345
H	-0.368883	-1.478831	-1.015049
$end

$rem
JOBTYPE		SP
EXCHANGE	HF
CORRELATION	pRIMP2
BASIS		cc-pvtz
METHOD		rimp2
AUX_BASIS	rimp2-cc-pvtz
SOLVENT_METHOD	PCM
PURECART	11111
SYMMETRY	false
MEM_TOTAL	110000
SCF_CONVERGENCE = 6
THRESH=10
GUI = 2
$end

$solvent
dielectric 4.90
$end
--------------------------------------------------------------

             Standard Nuclear Orientation (Angstroms)
    I     Atom           X                Y                Z
 ----------------------------------------------------------------
    1      C      -0.2409270000    -6.7414040000     0.0892630000
    2      C      -1.4678860000    -6.1556380000     0.5359730000
    3      C       0.7779720000    -5.7914520000    -0.2811030000
    4      C      -1.7297420000    -4.8037860000     0.6310360000
    5      H      -2.2929030000    -6.8215180000     0.8364580000
    6      C       0.5036140000    -4.3786380000    -0.1819950000
    7      C      -0.7467560000    -3.8380320000     0.2727250000
    8      C       1.4854370000    -3.4130620000    -0.5399540000
    9      C      -1.0189150000    -2.4264730000     0.3710530000
   10      C       1.2265570000    -2.0593480000    -0.4463810000
   11      C       0.0000000000    -1.4782160000     0.0000000000
   12      H       2.0524130000    -1.3947830000    -0.7474100000
   13      C       2.1341280000    -6.1879870000    -0.7727470000
   14      C       2.8298200000    -3.7981640000    -1.0291540000
   15      N       3.0591820000    -5.1700030000    -1.1108280000
   16      C      -3.0777310000    -4.4249870000     1.1217280000
   17      C      -2.3756940000    -2.0366270000     0.8640690000
   18      N      -3.3011010000    -3.0491560000     1.2019280000
   19      O       2.5028300000    -7.3531310000    -0.9039080000
   20      O       3.6970780000    -2.9868540000    -1.3458090000
   21      O      -3.9347520000    -5.2489460000     1.4344220000
   22      O      -2.7641770000    -0.8788290000     1.0039430000
   23      C       4.3869390000    -5.5637990000    -1.5929810000
   24      H       4.4298220000    -6.6640850000    -1.6073670000
   25      H       5.1644890000    -5.1471010000    -0.9245040000
   26      H       4.5534860000    -5.1487850000    -2.6054460000
   27      C      -4.6084810000    -2.5874870000     1.6773080000
   28      H      -5.2119690000    -3.4833290000     1.8980890000
   29      H      -5.0946240000    -1.9649720000     0.9023370000
   30      H      -4.4830920000    -1.9629320000     2.5820980000
   31      C       0.0000000000     0.0000000000     0.0000000000
   32      S       0.5096860000     0.6077330000     1.5805300000
   33      C       1.5623680000     1.8623120000     0.9049110000
   34      C       0.6413670000     0.7646130000    -0.9854000000
   35      C       1.4899260000     1.7760400000    -0.4935280000
   36      H       0.4899140000     0.5840810000    -2.0599340000
   37      H       2.0561240000     2.4509200000    -1.1525930000
   38      H       2.1283950000     2.5370070000     1.5560250000
   39      H      -0.4475590000    -7.3615890000    -0.7914340000
   40      H       0.1662820000    -7.3611920000     0.8973450000
   41      H      -0.3688830000    -1.4788310000    -1.0150490000
 ----------------------------------------------------------------

   11   -1571.7242524025      5.51e-07  Convergence criterion met
 Total energy in the final basis set =    -1571.7242524025
        RIMP2         total energy =     -1576.3855056766 a.u.

                    Orbital Energies (a.u.)
 --------------------------------------------------------------

 Alpha MOs
 -- Occupied --
-91.9876 -20.5525 -20.5439 -20.5408 -20.5400 -15.6265 -15.6208 -11.3930
-11.3846 -11.3827 -11.3786 -11.3074 -11.3065 -11.3038 -11.3031 -11.2953
-11.2914 -11.2884 -11.2871 -11.2673 -11.2671 -11.2646 -11.2632 -11.2624
-11.2592 -11.2537 -11.2518  -8.9877  -6.6685  -6.6678  -6.6674  -1.4192
 -1.4116  -1.3968  -1.3908  -1.2616  -1.2549  -1.2300  -1.1894  -1.1528
 -1.1131  -1.0850  -1.0456  -0.9975  -0.9886  -0.9870  -0.9548  -0.9497
 -0.8959  -0.8867  -0.8755  -0.8583  -0.7939  -0.7765  -0.7705  -0.7654
 -0.7414  -0.7167  -0.7041  -0.6912  -0.6817  -0.6717  -0.6662  -0.6567
 -0.6463  -0.6433  -0.6362  -0.6329  -0.6301  -0.6267  -0.6209  -0.6047
 -0.5835  -0.5763  -0.5716  -0.5611  -0.5569  -0.5510  -0.5502  -0.5474
 -0.5459  -0.5432  -0.5242  -0.5108  -0.5048  -0.4809  -0.4747  -0.4612
 -0.4570  -0.4508  -0.4421  -0.4337  -0.4130  -0.4068  -0.3578  -0.3500
 -0.3311  -0.2867

          Ground-State Mulliken Net Atomic Charges

     Atom                 Charge (a.u.)
  ----------------------------------------
      1 C                    -0.085410
      2 C                    -0.033011
      3 C                    -0.111853
      4 C                    -0.119910
      5 H                     0.198346
      6 C                     0.020506
      7 C                     0.119614
      8 C                    -0.102912
      9 C                    -0.191153
     10 C                    -0.108223
     11 C                     0.164826
     12 H                     0.197973
     13 C                     0.342665
     14 C                     0.345655
     15 N                    -0.089539
     16 C                     0.355577
     17 C                     0.349665
     18 N                    -0.091421
     19 O                    -0.495776
     20 O                    -0.509084
     21 O                    -0.501672
     22 O                    -0.471402
     23 C                    -0.205176
     24 H                     0.139438
     25 H                     0.109171
     26 H                     0.108591
     27 C                    -0.197681
     28 H                     0.133020
     29 H                     0.111416
     30 H                     0.111907
     31 C                     0.016384
     32 S                     0.019635
     33 C                    -0.185807
     34 C                    -0.227124
     35 C                    -0.191239
     36 H                     0.194465
     37 H                     0.194591
     38 H                     0.212767
     39 H                     0.136643
     40 H                     0.137066
     41 H                     0.198472
  ----------------------------------------
  Sum of atomic charges =     0.000000

                    Cartesian Multipole Moments
 -----------------------------------------------------------------
    Charge (ESU x 10^10)
                 0.0000
    Dipole Moment (Debye)
         X       0.3902      Y       2.4880      Z      -1.4609
       Tot       2.9115
    Quadrupole Moments (Debye-Ang)
        XX    -187.4912     XY      14.9316     YY    -183.7100
        XZ      11.4137     YZ      -1.2660     ZZ    -160.0310

 Total job time:  312.37s(wall), 8820.26s(cpu)
        *  Thank you very much for using Q-Chem.  Have a nice day.  *
