 Q-Chem 5.4, Q-Chem, Inc., Pleasanton, CA (2021)
 Q-Chem 5.4.0 for Intel X86 EM64T Linux

User input:
--------------------------------------------------------------
$molecule
0 1
C	0.221766	-6.741404	-0.129743
C	1.352515	-6.155638	-0.782726
C	-0.717339	-5.791452	0.411926
C	1.593885	-4.803786	-0.921816
H	2.112819	-6.821518	-1.221908
C	-0.464360	-4.378638	0.266682
C	0.688053	-3.838032	-0.398255
C	-1.369108	-3.413062	0.789694
C	0.939002	-2.426473	-0.542349
C	-1.130409	-2.059348	0.652589
C	0.000000	-1.478216	0.000000
H	-1.891446	-1.394783	1.092453
C	-1.967519	-6.187987	1.131595
C	-2.608118	-3.798164	1.504912
N	-2.819813	-5.170003	1.625174
C	2.836188	-4.424987	-1.639129
C	2.189558	-2.036627	-1.263477
N	3.042237	-3.049156	-1.756898
O	-2.307845	-7.353131	1.324787
O	-3.407213	-2.986854	1.967354
O	3.625890	-5.248946	-2.095892
O	2.547850	-0.878829	-1.468685
C	-4.043674	-5.563799	2.330564
H	-4.083407	-6.664085	2.352178
H	-4.925490	-5.147101	1.807263
H	-4.031877	-5.148785	3.356568
C	4.247206	-2.587487	-2.452080
H	4.803187	-3.483329	-2.774302
H	4.860536	-1.964972	-1.773301
H	3.966607	-1.962932	-3.321351
C	0.000000	0.000000	0.000000
S	0.509686	0.607733	1.580530
C	1.562368	1.862312	0.904911
C	0.641367	0.764613	-0.985400
C	1.489926	1.776040	-0.493528
H	0.489914	0.584081	-2.059934
H	2.056124	2.450920	-1.152593
H	2.128395	2.537007	1.556025
H	0.578191	-7.361589	0.701693
H	-0.319578	-7.361192	-0.854838
H	0.539540	-1.478831	0.935572
$end

$rem
JOBTYPE		SP
EXCHANGE	HF
CORRELATION	pRIMP2
BASIS		cc-pvtz
METHOD		rimp2
AUX_BASIS	rimp2-cc-pvtz
SOLVENT_METHOD	PCM
PURECART	11111
SYMMETRY	false
MEM_TOTAL	110000
SCF_CONVERGENCE = 6
THRESH=10
GUI = 2
$end

$solvent
dielectric 4.90
$end
--------------------------------------------------------------

             Standard Nuclear Orientation (Angstroms)
    I     Atom           X                Y                Z
 ----------------------------------------------------------------
    1      C       0.2217660000    -6.7414040000    -0.1297430000
    2      C       1.3525150000    -6.1556380000    -0.7827260000
    3      C      -0.7173390000    -5.7914520000     0.4119260000
    4      C       1.5938850000    -4.8037860000    -0.9218160000
    5      H       2.1128190000    -6.8215180000    -1.2219080000
    6      C      -0.4643600000    -4.3786380000     0.2666820000
    7      C       0.6880530000    -3.8380320000    -0.3982550000
    8      C      -1.3691080000    -3.4130620000     0.7896940000
    9      C       0.9390020000    -2.4264730000    -0.5423490000
   10      C      -1.1304090000    -2.0593480000     0.6525890000
   11      C       0.0000000000    -1.4782160000     0.0000000000
   12      H      -1.8914460000    -1.3947830000     1.0924530000
   13      C      -1.9675190000    -6.1879870000     1.1315950000
   14      C      -2.6081180000    -3.7981640000     1.5049120000
   15      N      -2.8198130000    -5.1700030000     1.6251740000
   16      C       2.8361880000    -4.4249870000    -1.6391290000
   17      C       2.1895580000    -2.0366270000    -1.2634770000
   18      N       3.0422370000    -3.0491560000    -1.7568980000
   19      O      -2.3078450000    -7.3531310000     1.3247870000
   20      O      -3.4072130000    -2.9868540000     1.9673540000
   21      O       3.6258900000    -5.2489460000    -2.0958920000
   22      O       2.5478500000    -0.8788290000    -1.4686850000
   23      C      -4.0436740000    -5.5637990000     2.3305640000
   24      H      -4.0834070000    -6.6640850000     2.3521780000
   25      H      -4.9254900000    -5.1471010000     1.8072630000
   26      H      -4.0318770000    -5.1487850000     3.3565680000
   27      C       4.2472060000    -2.5874870000    -2.4520800000
   28      H       4.8031870000    -3.4833290000    -2.7743020000
   29      H       4.8605360000    -1.9649720000    -1.7733010000
   30      H       3.9666070000    -1.9629320000    -3.3213510000
   31      C       0.0000000000     0.0000000000     0.0000000000
   32      S       0.5096860000     0.6077330000     1.5805300000
   33      C       1.5623680000     1.8623120000     0.9049110000
   34      C       0.6413670000     0.7646130000    -0.9854000000
   35      C       1.4899260000     1.7760400000    -0.4935280000
   36      H       0.4899140000     0.5840810000    -2.0599340000
   37      H       2.0561240000     2.4509200000    -1.1525930000
   38      H       2.1283950000     2.5370070000     1.5560250000
   39      H       0.5781910000    -7.3615890000     0.7016930000
   40      H      -0.3195780000    -7.3611920000    -0.8548380000
   41      H       0.5395400000    -1.4788310000     0.9355720000
 ----------------------------------------------------------------

   11   -1571.7064230206      5.92e-07  Convergence criterion met
 Total energy in the final basis set =    -1571.7064230206
        RIMP2         total energy =     -1576.3695723800 a.u.

                    Orbital Energies (a.u.)
 --------------------------------------------------------------

 Alpha MOs
 -- Occupied --
-91.9859 -20.5505 -20.5441 -20.5392 -20.5382 -15.6269 -15.6193 -11.3932
-11.3847 -11.3812 -11.3766 -11.3063 -11.3035 -11.3030 -11.3027 -11.2952
-11.2923 -11.2812 -11.2736 -11.2670 -11.2653 -11.2636 -11.2634 -11.2606
-11.2582 -11.2511 -11.2487  -8.9867  -6.6676  -6.6669  -6.6663  -1.4201
 -1.4101  -1.3975  -1.3892  -1.2620  -1.2535  -1.2286  -1.1878  -1.1511
 -1.1116  -1.0841  -1.0445  -0.9954  -0.9872  -0.9864  -0.9540  -0.9492
 -0.8943  -0.8835  -0.8756  -0.8583  -0.7901  -0.7745  -0.7724  -0.7680
 -0.7388  -0.7166  -0.7026  -0.6891  -0.6763  -0.6701  -0.6658  -0.6560
 -0.6459  -0.6428  -0.6365  -0.6302  -0.6294  -0.6263  -0.6218  -0.6031
 -0.5837  -0.5737  -0.5677  -0.5607  -0.5553  -0.5505  -0.5490  -0.5475
 -0.5462  -0.5430  -0.5218  -0.5115  -0.5037  -0.4800  -0.4717  -0.4664
 -0.4539  -0.4498  -0.4410  -0.4329  -0.4134  -0.4058  -0.3509  -0.3491
 -0.3296  -0.2813

          Ground-State Mulliken Net Atomic Charges

     Atom                 Charge (a.u.)
  ----------------------------------------
      1 C                    -0.085367
      2 C                    -0.031022
      3 C                    -0.118508
      4 C                    -0.121814
      5 H                     0.197927
      6 C                     0.011120
      7 C                     0.121635
      8 C                    -0.072899
      9 C                    -0.167089
     10 C                    -0.155428
     11 C                     0.195913
     12 H                     0.193761
     13 C                     0.342378
     14 C                     0.346299
     15 N                    -0.088975
     16 C                     0.357116
     17 C                     0.377920
     18 N                    -0.087741
     19 O                    -0.497727
     20 O                    -0.509455
     21 O                    -0.502288
     22 O                    -0.476008
     23 C                    -0.205336
     24 H                     0.139054
     25 H                     0.108680
     26 H                     0.108707
     27 C                    -0.197807
     28 H                     0.133980
     29 H                     0.111265
     30 H                     0.110353
     31 C                    -0.099896
     32 S                    -0.001709
     33 C                    -0.187193
     34 C                    -0.111981
     35 C                    -0.189280
     36 H                     0.184929
     37 H                     0.187052
     38 H                     0.213949
     39 H                     0.136219
     40 H                     0.136443
     41 H                     0.192821
  ----------------------------------------
  Sum of atomic charges =     0.000000

                    Cartesian Multipole Moments
 -----------------------------------------------------------------
    Charge (ESU x 10^10)
                 0.0000
    Dipole Moment (Debye)
         X       3.3891      Y       2.9231      Z      -1.3587
       Tot       4.6772
    Quadrupole Moments (Debye-Ang)
        XX    -182.7611     XY      -2.8724     YY    -185.8703
        XZ      14.9715     YZ       4.2522     ZZ    -164.5659

 Total job time:  309.62s(wall), 9303.17s(cpu)
        *  Thank you very much for using Q-Chem.  Have a nice day.  *
