 Q-Chem 5.4, Q-Chem, Inc., Pleasanton, CA (2021)
 Q-Chem 5.4.0 for Intel X86 EM64T Linux

User input:
--------------------------------------------------------------
$molecule
0 1
C	-0.221766	-6.741404	0.129743
C	-1.352515	-6.155638	0.782726
C	0.717339	-5.791452	-0.411926
C	-1.593885	-4.803786	0.921816
H	-2.112819	-6.821518	1.221908
C	0.464360	-4.378638	-0.266682
C	-0.688053	-3.838032	0.398255
C	1.369108	-3.413062	-0.789694
C	-0.939002	-2.426473	0.542349
C	1.130409	-2.059348	-0.652589
C	0.000000	-1.478216	0.000000
H	1.891446	-1.394783	-1.092453
C	1.967519	-6.187987	-1.131595
C	2.608118	-3.798164	-1.504912
N	2.819813	-5.170003	-1.625174
C	-2.836188	-4.424987	1.639129
C	-2.189558	-2.036627	1.263477
N	-3.042237	-3.049156	1.756898
O	2.307845	-7.353131	-1.324787
O	3.407213	-2.986854	-1.967354
O	-3.625890	-5.248946	2.095892
O	-2.547850	-0.878829	1.468685
C	4.043674	-5.563799	-2.330564
H	4.083407	-6.664085	-2.352178
H	4.925490	-5.147101	-1.807263
H	4.031877	-5.148785	-3.356568
C	-4.247206	-2.587487	2.452080
H	-4.803187	-3.483329	2.774302
H	-4.860536	-1.964972	1.773301
H	-3.966607	-1.962932	3.321351
C	0.000000	0.000000	0.000000
S	0.068929	0.790170	1.580530
C	0.211639	2.421655	0.904911
C	0.086813	0.994207	-0.985400
C	0.201782	2.309433	-0.493528
H	0.066299	0.759454	-2.059934
H	0.278488	3.187020	-1.152593
H	0.288312	3.298992	1.556025
H	-0.578191	-7.361589	-0.701693
H	0.319578	-7.361192	0.854838
H	-0.539540	-1.478831	-0.935572
$end

$rem
JOBTYPE		SP
EXCHANGE	HF
CORRELATION	pRIMP2
BASIS		cc-pvtz
METHOD		rimp2
AUX_BASIS	rimp2-cc-pvtz
SOLVENT_METHOD	PCM
PURECART	11111
SYMMETRY	false
MEM_TOTAL	110000
SCF_CONVERGENCE = 6
THRESH=10
GUI = 2
$end

$solvent
dielectric 4.90
$end
--------------------------------------------------------------

             Standard Nuclear Orientation (Angstroms)
    I     Atom           X                Y                Z
 ----------------------------------------------------------------
    1      C      -0.2217660000    -6.7414040000     0.1297430000
    2      C      -1.3525150000    -6.1556380000     0.7827260000
    3      C       0.7173390000    -5.7914520000    -0.4119260000
    4      C      -1.5938850000    -4.8037860000     0.9218160000
    5      H      -2.1128190000    -6.8215180000     1.2219080000
    6      C       0.4643600000    -4.3786380000    -0.2666820000
    7      C      -0.6880530000    -3.8380320000     0.3982550000
    8      C       1.3691080000    -3.4130620000    -0.7896940000
    9      C      -0.9390020000    -2.4264730000     0.5423490000
   10      C       1.1304090000    -2.0593480000    -0.6525890000
   11      C       0.0000000000    -1.4782160000     0.0000000000
   12      H       1.8914460000    -1.3947830000    -1.0924530000
   13      C       1.9675190000    -6.1879870000    -1.1315950000
   14      C       2.6081180000    -3.7981640000    -1.5049120000
   15      N       2.8198130000    -5.1700030000    -1.6251740000
   16      C      -2.8361880000    -4.4249870000     1.6391290000
   17      C      -2.1895580000    -2.0366270000     1.2634770000
   18      N      -3.0422370000    -3.0491560000     1.7568980000
   19      O       2.3078450000    -7.3531310000    -1.3247870000
   20      O       3.4072130000    -2.9868540000    -1.9673540000
   21      O      -3.6258900000    -5.2489460000     2.0958920000
   22      O      -2.5478500000    -0.8788290000     1.4686850000
   23      C       4.0436740000    -5.5637990000    -2.3305640000
   24      H       4.0834070000    -6.6640850000    -2.3521780000
   25      H       4.9254900000    -5.1471010000    -1.8072630000
   26      H       4.0318770000    -5.1487850000    -3.3565680000
   27      C      -4.2472060000    -2.5874870000     2.4520800000
   28      H      -4.8031870000    -3.4833290000     2.7743020000
   29      H      -4.8605360000    -1.9649720000     1.7733010000
   30      H      -3.9666070000    -1.9629320000     3.3213510000
   31      C       0.0000000000     0.0000000000     0.0000000000
   32      S       0.0689290000     0.7901700000     1.5805300000
   33      C       0.2116390000     2.4216550000     0.9049110000
   34      C       0.0868130000     0.9942070000    -0.9854000000
   35      C       0.2017820000     2.3094330000    -0.4935280000
   36      H       0.0662990000     0.7594540000    -2.0599340000
   37      H       0.2784880000     3.1870200000    -1.1525930000
   38      H       0.2883120000     3.2989920000     1.5560250000
   39      H      -0.5781910000    -7.3615890000    -0.7016930000
   40      H       0.3195780000    -7.3611920000     0.8548380000
   41      H      -0.5395400000    -1.4788310000    -0.9355720000
 ----------------------------------------------------------------

   11   -1571.7459799931      5.57e-07  Convergence criterion met
 Total energy in the final basis set =    -1571.7459799931
        RIMP2         total energy =     -1576.4016874785 a.u.

                    Orbital Energies (a.u.)
 --------------------------------------------------------------

 Alpha MOs
 -- Occupied --
-91.9839 -20.5514 -20.5445 -20.5419 -20.5408 -15.6268 -15.6215 -11.3932
-11.3852 -11.3838 -11.3794 -11.3096 -11.3094 -11.3060 -11.3051 -11.2980
-11.2970 -11.2908 -11.2785 -11.2694 -11.2685 -11.2648 -11.2627 -11.2596
-11.2559 -11.2530 -11.2486  -8.9837  -6.6645  -6.6639  -6.6634  -1.4195
 -1.4124  -1.3973  -1.3916  -1.2621  -1.2556  -1.2301  -1.1860  -1.1517
 -1.1145  -1.0868  -1.0471  -0.9948  -0.9880  -0.9822  -0.9552  -0.9509
 -0.8965  -0.8880  -0.8771  -0.8604  -0.7940  -0.7770  -0.7713  -0.7615
 -0.7406  -0.7172  -0.7038  -0.6917  -0.6805  -0.6729  -0.6667  -0.6573
 -0.6473  -0.6452  -0.6364  -0.6329  -0.6311  -0.6281  -0.6215  -0.6047
 -0.5848  -0.5750  -0.5663  -0.5616  -0.5578  -0.5515  -0.5508  -0.5481
 -0.5469  -0.5438  -0.5189  -0.5151  -0.5100  -0.4827  -0.4743  -0.4605
 -0.4567  -0.4508  -0.4429  -0.4348  -0.4132  -0.4076  -0.3533  -0.3494
 -0.3285  -0.2867

          Ground-State Mulliken Net Atomic Charges

     Atom                 Charge (a.u.)
  ----------------------------------------
      1 C                    -0.084469
      2 C                    -0.029789
      3 C                    -0.111172
      4 C                    -0.125115
      5 H                     0.199221
      6 C                     0.022915
      7 C                     0.120926
      8 C                    -0.087427
      9 C                    -0.167504
     10 C                    -0.139422
     11 C                     0.201048
     12 H                     0.195531
     13 C                     0.343016
     14 C                     0.347846
     15 N                    -0.089888
     16 C                     0.357282
     17 C                     0.348441
     18 N                    -0.090567
     19 O                    -0.494273
     20 O                    -0.507642
     21 O                    -0.501609
     22 O                    -0.467389
     23 C                    -0.204718
     24 H                     0.139515
     25 H                     0.109388
     26 H                     0.108910
     27 C                    -0.197070
     28 H                     0.133171
     29 H                     0.111444
     30 H                     0.111953
     31 C                    -0.026675
     32 S                     0.030617
     33 C                    -0.213632
     34 C                    -0.201831
     35 C                    -0.210020
     36 H                     0.189387
     37 H                     0.190017
     38 H                     0.209218
     39 H                     0.137599
     40 H                     0.138157
     41 H                     0.204610
  ----------------------------------------
  Sum of atomic charges =     0.000000

                    Cartesian Multipole Moments
 -----------------------------------------------------------------
    Charge (ESU x 10^10)
                 0.0000
    Dipole Moment (Debye)
         X      -1.1990      Y       1.9213      Z      -1.1607
       Tot       2.5448
    Quadrupole Moments (Debye-Ang)
        XX    -187.4704     XY       9.2202     YY    -177.6162
        XZ      14.2698     YZ      -2.6588     ZZ    -164.6196

 Total job time:  290.65s(wall), 8908.47s(cpu)
        *  Thank you very much for using Q-Chem.  Have a nice day.  *
