 Q-Chem 5.4, Q-Chem, Inc., Pleasanton, CA (2021)
 Q-Chem 5.4.0 for Intel X86 EM64T Linux

User input:
--------------------------------------------------------------
$molecule
0 1
C	-0.223244	-6.741404	-0.127184
C	-1.354118	-6.155638	-0.779949
C	0.715408	-5.791452	0.415271
C	-1.595259	-4.803786	-0.919437
H	-2.114613	-6.821518	-1.218801
C	0.463133	-4.378638	0.268806
C	-0.688925	-3.838032	-0.396744
C	1.368449	-3.413062	0.790835
C	-0.939189	-2.426473	-0.542026
C	1.130363	-2.059348	0.652669
C	-0.000000	-1.478216	-0.000000
H	1.891815	-1.394783	1.091814
C	1.963749	-6.187987	1.138124
C	2.607351	-3.798164	1.506241
N	2.817348	-5.170003	1.629443
C	-2.837621	-4.424987	-1.636646
C	-2.188982	-2.036627	-1.264474
N	-3.042637	-3.049156	-1.756205
O	2.301222	-7.353131	1.336258
O	3.407386	-2.986854	1.967056
O	-3.628041	-5.248946	-2.092167
O	-2.545844	-0.878829	-1.472160
C	4.040164	-5.563799	2.336642
H	4.078749	-6.664085	2.360245
H	4.027880	-5.147101	3.361968
H	4.922811	-5.148785	1.813424
C	-4.247167	-2.587487	-2.452149
H	-4.804209	-3.483329	-2.772531
H	-3.965991	-1.964972	-3.322697
H	-4.859678	-1.962932	-1.774507
C	0.000000	0.000000	0.000000
S	0.607475	0.509994	1.580530
C	1.862020	1.562717	0.904911
C	0.764397	0.641624	-0.985400
C	1.775697	1.490335	-0.493528
H	0.583895	0.490135	-2.059934
H	2.450484	2.056643	-1.152593
H	2.536607	2.128872	1.556025
H	0.318588	-7.361589	-0.851574
H	-0.580522	-7.361192	0.704181
H	0.540459	-1.478831	-0.935042
$end

$rem
JOBTYPE		SP
EXCHANGE	HF
CORRELATION	pRIMP2
BASIS		cc-pvtz
METHOD		rimp2
AUX_BASIS	rimp2-cc-pvtz
SOLVENT_METHOD	PCM
PURECART	11111
SYMMETRY	false
MEM_TOTAL	110000
SCF_CONVERGENCE = 6
THRESH=10
GUI = 2
$end

$solvent
dielectric 4.90
$end
--------------------------------------------------------------

             Standard Nuclear Orientation (Angstroms)
    I     Atom           X                Y                Z
 ----------------------------------------------------------------
    1      C      -0.2232440000    -6.7414040000    -0.1271840000
    2      C      -1.3541180000    -6.1556380000    -0.7799490000
    3      C       0.7154080000    -5.7914520000     0.4152710000
    4      C      -1.5952590000    -4.8037860000    -0.9194370000
    5      H      -2.1146130000    -6.8215180000    -1.2188010000
    6      C       0.4631330000    -4.3786380000     0.2688060000
    7      C      -0.6889250000    -3.8380320000    -0.3967440000
    8      C       1.3684490000    -3.4130620000     0.7908350000
    9      C      -0.9391890000    -2.4264730000    -0.5420260000
   10      C       1.1303630000    -2.0593480000     0.6526690000
   11      C       0.0000000000    -1.4782160000     0.0000000000
   12      H       1.8918150000    -1.3947830000     1.0918140000
   13      C       1.9637490000    -6.1879870000     1.1381240000
   14      C       2.6073510000    -3.7981640000     1.5062410000
   15      N       2.8173480000    -5.1700030000     1.6294430000
   16      C      -2.8376210000    -4.4249870000    -1.6366460000
   17      C      -2.1889820000    -2.0366270000    -1.2644740000
   18      N      -3.0426370000    -3.0491560000    -1.7562050000
   19      O       2.3012220000    -7.3531310000     1.3362580000
   20      O       3.4073860000    -2.9868540000     1.9670560000
   21      O      -3.6280410000    -5.2489460000    -2.0921670000
   22      O      -2.5458440000    -0.8788290000    -1.4721600000
   23      C       4.0401640000    -5.5637990000     2.3366420000
   24      H       4.0787490000    -6.6640850000     2.3602450000
   25      H       4.0278800000    -5.1471010000     3.3619680000
   26      H       4.9228110000    -5.1487850000     1.8134240000
   27      C      -4.2471670000    -2.5874870000    -2.4521490000
   28      H      -4.8042090000    -3.4833290000    -2.7725310000
   29      H      -3.9659910000    -1.9649720000    -3.3226970000
   30      H      -4.8596780000    -1.9629320000    -1.7745070000
   31      C       0.0000000000     0.0000000000     0.0000000000
   32      S       0.6074750000     0.5099940000     1.5805300000
   33      C       1.8620200000     1.5627170000     0.9049110000
   34      C       0.7643970000     0.6416240000    -0.9854000000
   35      C       1.7756970000     1.4903350000    -0.4935280000
   36      H       0.5838950000     0.4901350000    -2.0599340000
   37      H       2.4504840000     2.0566430000    -1.1525930000
   38      H       2.5366070000     2.1288720000     1.5560250000
   39      H       0.3185880000    -7.3615890000    -0.8515740000
   40      H      -0.5805220000    -7.3611920000     0.7041810000
   41      H       0.5404590000    -1.4788310000    -0.9350420000
 ----------------------------------------------------------------

   11   -1571.6939076314      5.92e-07  Convergence criterion met
 Total energy in the final basis set =    -1571.6939076314
        RIMP2         total energy =     -1576.3626914047 a.u.

                    Orbital Energies (a.u.)
 --------------------------------------------------------------

 Alpha MOs
 -- Occupied --
-91.9910 -20.5524 -20.5433 -20.5392 -20.5391 -15.6261 -15.6196 -11.3926
-11.3838 -11.3810 -11.3775 -11.3040 -11.3030 -11.3020 -11.3012 -11.2972
-11.2931 -11.2850 -11.2843 -11.2674 -11.2656 -11.2644 -11.2624 -11.2615
-11.2586 -11.2564 -11.2501  -8.9916  -6.6723  -6.6717  -6.6714  -1.4188
 -1.4104  -1.3964  -1.3896  -1.2611  -1.2538  -1.2321  -1.1930  -1.1517
 -1.1115  -1.0836  -1.0444  -0.9995  -0.9947  -0.9862  -0.9541  -0.9479
 -0.8951  -0.8854  -0.8741  -0.8564  -0.7964  -0.7786  -0.7689  -0.7647
 -0.7409  -0.7179  -0.7029  -0.6912  -0.6837  -0.6701  -0.6652  -0.6559
 -0.6454  -0.6442  -0.6339  -0.6332  -0.6288  -0.6256  -0.6204  -0.6036
 -0.5856  -0.5787  -0.5708  -0.5605  -0.5552  -0.5508  -0.5502  -0.5486
 -0.5463  -0.5423  -0.5214  -0.5079  -0.4977  -0.4848  -0.4751  -0.4671
 -0.4567  -0.4500  -0.4411  -0.4324  -0.4126  -0.4060  -0.3614  -0.3443
 -0.3340  -0.2817

          Ground-State Mulliken Net Atomic Charges

     Atom                 Charge (a.u.)
  ----------------------------------------
      1 C                    -0.085871
      2 C                    -0.036387
      3 C                    -0.114129
      4 C                    -0.118121
      5 H                     0.197201
      6 C                     0.013468
      7 C                     0.110962
      8 C                    -0.090670
      9 C                    -0.176020
     10 C                    -0.150610
     11 C                     0.181965
     12 H                     0.195217
     13 C                     0.340901
     14 C                     0.343439
     15 N                    -0.089075
     16 C                     0.356046
     17 C                     0.356926
     18 N                    -0.090828
     19 O                    -0.497919
     20 O                    -0.510698
     21 O                    -0.502288
     22 O                    -0.471916
     23 C                    -0.205583
     24 H                     0.139312
     25 H                     0.108767
     26 H                     0.108286
     27 C                    -0.198128
     28 H                     0.133160
     29 H                     0.110529
     30 H                     0.112000
     31 C                    -0.040097
     32 S                     0.016034
     33 C                    -0.170999
     34 C                    -0.129328
     35 C                    -0.221620
     36 H                     0.189860
     37 H                     0.194223
     38 H                     0.214693
     39 H                     0.135161
     40 H                     0.135444
     41 H                     0.206696
  ----------------------------------------
  Sum of atomic charges =     0.000000

                    Cartesian Multipole Moments
 -----------------------------------------------------------------
    Charge (ESU x 10^10)
                 0.0000
    Dipole Moment (Debye)
         X       1.6887      Y       2.9252      Z      -2.1152
       Tot       3.9853
    Quadrupole Moments (Debye-Ang)
        XX    -181.1813     XY      13.5395     YY    -189.4833
        XZ     -14.0898     YZ       6.1370     ZZ    -164.0006

 Total job time:  340.26s(wall), 10135.20s(cpu)
        *  Thank you very much for using Q-Chem.  Have a nice day.  *
