 Q-Chem 5.4, Q-Chem, Inc., Pleasanton, CA (2021)
 Q-Chem 5.4.0 for Intel X86 EM64T Linux

User input:
--------------------------------------------------------------
$molecule
0 1
C	-0.164018	-6.741404	0.197767
C	-1.003240	-6.155638	1.198109
C	0.533192	-5.791452	-0.632428
C	-1.182482	-4.803786	1.411364
H	-1.567483	-6.821518	1.870845
C	0.345145	-4.378638	-0.409419
C	-0.510347	-3.838032	0.609565
C	1.016449	-3.413062	-1.210332
C	-0.696879	-2.426473	0.830799
C	0.839039	-2.059348	-0.999856
C	-0.000000	-1.478216	-0.000000
H	1.403737	-1.394783	-1.673483
C	1.461835	-6.187987	-1.736282
C	1.936119	-3.798164	-2.306183
N	2.093916	-5.170003	-2.491597
C	-2.104529	-4.424987	2.510310
C	-1.625377	-2.036627	1.936153
N	-2.257873	-3.049156	2.691451
O	1.715561	-7.353131	-2.034222
O	2.528858	-2.986854	-3.014044
O	-2.690385	-5.248946	3.209622
O	-1.891876	-0.878829	2.251529
C	3.002711	-5.563799	-3.573032
H	3.032655	-6.664085	-3.606932
H	4.010326	-5.147101	-3.382888
H	2.640711	-5.148785	-4.533125
C	-3.152408	-2.587487	3.756832
H	-3.564653	-3.483329	4.249778
H	-3.960905	-1.964972	3.328759
H	-2.591422	-1.962932	4.477709
C	0.000000	0.000000	0.000000
S	0.271091	0.745405	1.580530
C	0.831198	2.284363	0.904911
C	0.341175	0.937861	-0.985400
C	0.792631	2.178516	-0.493528
H	0.260601	0.716417	-2.059934
H	1.093860	3.006347	-1.152593
H	1.132330	3.111961	1.556025
H	-0.783314	-7.361589	-0.461623
H	0.592677	-7.361192	0.693983
H	-0.826987	-1.478831	-0.694617
$end

$rem
JOBTYPE		SP
EXCHANGE	HF
CORRELATION	pRIMP2
BASIS		cc-pvtz
METHOD		rimp2
AUX_BASIS	rimp2-cc-pvtz
SOLVENT_METHOD	PCM
PURECART	11111
SYMMETRY	false
MEM_TOTAL	110000
SCF_CONVERGENCE = 6
THRESH=10
GUI = 2
$end

$solvent
dielectric 4.90
$end
--------------------------------------------------------------

             Standard Nuclear Orientation (Angstroms)
    I     Atom           X                Y                Z
 ----------------------------------------------------------------
    1      C      -0.1640180000    -6.7414040000     0.1977670000
    2      C      -1.0032400000    -6.1556380000     1.1981090000
    3      C       0.5331920000    -5.7914520000    -0.6324280000
    4      C      -1.1824820000    -4.8037860000     1.4113640000
    5      H      -1.5674830000    -6.8215180000     1.8708450000
    6      C       0.3451450000    -4.3786380000    -0.4094190000
    7      C      -0.5103470000    -3.8380320000     0.6095650000
    8      C       1.0164490000    -3.4130620000    -1.2103320000
    9      C      -0.6968790000    -2.4264730000     0.8307990000
   10      C       0.8390390000    -2.0593480000    -0.9998560000
   11      C       0.0000000000    -1.4782160000     0.0000000000
   12      H       1.4037370000    -1.3947830000    -1.6734830000
   13      C       1.4618350000    -6.1879870000    -1.7362820000
   14      C       1.9361190000    -3.7981640000    -2.3061830000
   15      N       2.0939160000    -5.1700030000    -2.4915970000
   16      C      -2.1045290000    -4.4249870000     2.5103100000
   17      C      -1.6253770000    -2.0366270000     1.9361530000
   18      N      -2.2578730000    -3.0491560000     2.6914510000
   19      O       1.7155610000    -7.3531310000    -2.0342220000
   20      O       2.5288580000    -2.9868540000    -3.0140440000
   21      O      -2.6903850000    -5.2489460000     3.2096220000
   22      O      -1.8918760000    -0.8788290000     2.2515290000
   23      C       3.0027110000    -5.5637990000    -3.5730320000
   24      H       3.0326550000    -6.6640850000    -3.6069320000
   25      H       4.0103260000    -5.1471010000    -3.3828880000
   26      H       2.6407110000    -5.1487850000    -4.5331250000
   27      C      -3.1524080000    -2.5874870000     3.7568320000
   28      H      -3.5646530000    -3.4833290000     4.2497780000
   29      H      -3.9609050000    -1.9649720000     3.3287590000
   30      H      -2.5914220000    -1.9629320000     4.4777090000
   31      C       0.0000000000     0.0000000000     0.0000000000
   32      S       0.2710910000     0.7454050000     1.5805300000
   33      C       0.8311980000     2.2843630000     0.9049110000
   34      C       0.3411750000     0.9378610000    -0.9854000000
   35      C       0.7926310000     2.1785160000    -0.4935280000
   36      H       0.2606010000     0.7164170000    -2.0599340000
   37      H       1.0938600000     3.0063470000    -1.1525930000
   38      H       1.1323300000     3.1119610000     1.5560250000
   39      H      -0.7833140000    -7.3615890000    -0.4616230000
   40      H       0.5926770000    -7.3611920000     0.6939830000
   41      H      -0.8269870000    -1.4788310000    -0.6946170000
 ----------------------------------------------------------------

   11   -1571.7339483183      5.76e-07  Convergence criterion met
 Total energy in the final basis set =    -1571.7339483183
        RIMP2         total energy =     -1576.3942010305 a.u.

                    Orbital Energies (a.u.)
 --------------------------------------------------------------

 Alpha MOs
 -- Occupied --
-91.9817 -20.5528 -20.5449 -20.5417 -20.5408 -15.6276 -15.6216 -11.3947
-11.3856 -11.3836 -11.3795 -11.3102 -11.3093 -11.3066 -11.3051 -11.2974
-11.2957 -11.2906 -11.2763 -11.2691 -11.2687 -11.2648 -11.2631 -11.2597
-11.2548 -11.2531 -11.2471  -8.9815  -6.6622  -6.6616  -6.6611  -1.4214
 -1.4124  -1.3985  -1.3916  -1.2630  -1.2557  -1.2306  -1.1865  -1.1508
 -1.1147  -1.0866  -1.0476  -0.9949  -0.9883  -0.9813  -0.9554  -0.9501
 -0.8969  -0.8889  -0.8775  -0.8606  -0.7932  -0.7777  -0.7721  -0.7617
 -0.7368  -0.7173  -0.7031  -0.6918  -0.6817  -0.6742  -0.6673  -0.6577
 -0.6477  -0.6459  -0.6369  -0.6329  -0.6312  -0.6290  -0.6213  -0.6054
 -0.5858  -0.5748  -0.5656  -0.5623  -0.5587  -0.5519  -0.5511  -0.5481
 -0.5477  -0.5442  -0.5218  -0.5123  -0.5100  -0.4827  -0.4747  -0.4598
 -0.4563  -0.4479  -0.4422  -0.4347  -0.4131  -0.4077  -0.3542  -0.3468
 -0.3295  -0.2818

          Ground-State Mulliken Net Atomic Charges

     Atom                 Charge (a.u.)
  ----------------------------------------
      1 C                    -0.084552
      2 C                    -0.029826
      3 C                    -0.110121
      4 C                    -0.125695
      5 H                     0.199403
      6 C                     0.026054
      7 C                     0.122071
      8 C                    -0.094485
      9 C                    -0.167861
     10 C                    -0.152703
     11 C                     0.209913
     12 H                     0.195390
     13 C                     0.341870
     14 C                     0.348510
     15 N                    -0.089860
     16 C                     0.357201
     17 C                     0.355393
     18 N                    -0.091010
     19 O                    -0.494822
     20 O                    -0.508321
     21 O                    -0.501112
     22 O                    -0.472263
     23 C                    -0.204875
     24 H                     0.139594
     25 H                     0.109373
     26 H                     0.108847
     27 C                    -0.197308
     28 H                     0.133515
     29 H                     0.111738
     30 H                     0.112172
     31 C                    -0.011728
     32 S                     0.054207
     33 C                    -0.228089
     34 C                    -0.234016
     35 C                    -0.198492
     36 H                     0.187433
     37 H                     0.189344
     38 H                     0.207977
     39 H                     0.137689
     40 H                     0.138261
     41 H                     0.211184
  ----------------------------------------
  Sum of atomic charges =     0.000000

                    Cartesian Multipole Moments
 -----------------------------------------------------------------
    Charge (ESU x 10^10)
                 0.0000
    Dipole Moment (Debye)
         X      -0.9173      Y       1.7080      Z      -0.5295
       Tot       2.0097
    Quadrupole Moments (Debye-Ang)
        XX    -174.9597     XY      10.2495     YY    -179.1885
        XZ      16.2094     YZ      -5.5779     ZZ    -175.4638

 Total job time:  332.37s(wall), 9746.62s(cpu)
        *  Thank you very much for using Q-Chem.  Have a nice day.  *
