 Q-Chem 5.4, Q-Chem, Inc., Pleasanton, CA (2021)
 Q-Chem 5.4.0 for Intel X86 EM64T Linux

User input:
--------------------------------------------------------------
$molecule
0 1
C	-0.253280	-6.741404	-0.043160
C	-1.539213	-6.155638	-0.269777
C	0.814295	-5.791452	0.145543
C	-1.813519	-4.803786	-0.318377
H	-2.403941	-6.821518	-0.422058
C	0.527140	-4.378638	0.094194
C	-0.783072	-3.838032	-0.137191
C	1.556403	-3.413062	0.275104
C	-1.067932	-2.426473	-0.188116
C	1.285420	-2.059348	0.226701
C	0.000000	-1.478216	0.000000
H	2.151147	-1.394783	0.378931
C	2.234582	-6.187987	0.397845
C	2.965273	-3.798164	0.523637
N	3.204744	-5.170003	0.567586
C	-3.226257	-4.424987	-0.567421
C	-2.489446	-2.036627	-0.439541
N	-3.459801	-3.049156	-0.609650
O	2.619468	-7.353131	0.468608
O	3.874668	-2.986854	0.683034
O	-4.124806	-5.248946	-0.725131
O	-2.895819	-0.878829	-0.512648
C	4.595691	-5.563799	0.813908
H	4.640022	-6.664085	0.822891
H	4.934830	-5.147101	1.781600
H	5.246157	-5.148785	0.020360
C	-4.829716	-2.587487	-0.851649
H	-5.462742	-3.483329	-0.962191
H	-4.863242	-1.964972	-1.765865
H	-5.173521	-1.962932	-0.005383
C	0.000000	0.000000	0.000000
S	0.396411	0.687007	1.580530
C	1.215245	2.105322	0.904911
C	0.498850	0.864369	-0.985400
C	1.158885	2.007781	-0.493528
H	0.381046	0.660280	-2.059934
H	1.599289	2.770727	-1.152593
H	1.655514	2.868056	1.556025
H	0.008120	-7.361589	-0.909181
H	-0.304668	-7.361192	0.860264
H	0.188062	-1.478831	-1.063500
$end

$rem
JOBTYPE		SP
EXCHANGE	HF
CORRELATION	pRIMP2
BASIS		cc-pvtz
METHOD		rimp2
AUX_BASIS	rimp2-cc-pvtz
SOLVENT_METHOD	PCM
PURECART	11111
SYMMETRY	false
MEM_TOTAL	110000
SCF_CONVERGENCE = 6
THRESH=10
GUI = 2
$end

$solvent
dielectric 4.90
$end
--------------------------------------------------------------

             Standard Nuclear Orientation (Angstroms)
    I     Atom           X                Y                Z
 ----------------------------------------------------------------
    1      C      -0.2532800000    -6.7414040000    -0.0431600000
    2      C      -1.5392130000    -6.1556380000    -0.2697770000
    3      C       0.8142950000    -5.7914520000     0.1455430000
    4      C      -1.8135190000    -4.8037860000    -0.3183770000
    5      H      -2.4039410000    -6.8215180000    -0.4220580000
    6      C       0.5271400000    -4.3786380000     0.0941940000
    7      C      -0.7830720000    -3.8380320000    -0.1371910000
    8      C       1.5564030000    -3.4130620000     0.2751040000
    9      C      -1.0679320000    -2.4264730000    -0.1881160000
   10      C       1.2854200000    -2.0593480000     0.2267010000
   11      C       0.0000000000    -1.4782160000     0.0000000000
   12      H       2.1511470000    -1.3947830000     0.3789310000
   13      C       2.2345820000    -6.1879870000     0.3978450000
   14      C       2.9652730000    -3.7981640000     0.5236370000
   15      N       3.2047440000    -5.1700030000     0.5675860000
   16      C      -3.2262570000    -4.4249870000    -0.5674210000
   17      C      -2.4894460000    -2.0366270000    -0.4395410000
   18      N      -3.4598010000    -3.0491560000    -0.6096500000
   19      O       2.6194680000    -7.3531310000     0.4686080000
   20      O       3.8746680000    -2.9868540000     0.6830340000
   21      O      -4.1248060000    -5.2489460000    -0.7251310000
   22      O      -2.8958190000    -0.8788290000    -0.5126480000
   23      C       4.5956910000    -5.5637990000     0.8139080000
   24      H       4.6400220000    -6.6640850000     0.8228910000
   25      H       4.9348300000    -5.1471010000     1.7816000000
   26      H       5.2461570000    -5.1487850000     0.0203600000
   27      C      -4.8297160000    -2.5874870000    -0.8516490000
   28      H      -5.4627420000    -3.4833290000    -0.9621910000
   29      H      -4.8632420000    -1.9649720000    -1.7658650000
   30      H      -5.1735210000    -1.9629320000    -0.0053830000
   31      C       0.0000000000     0.0000000000     0.0000000000
   32      S       0.3964110000     0.6870070000     1.5805300000
   33      C       1.2152450000     2.1053220000     0.9049110000
   34      C       0.4988500000     0.8643690000    -0.9854000000
   35      C       1.1588850000     2.0077810000    -0.4935280000
   36      H       0.3810460000     0.6602800000    -2.0599340000
   37      H       1.5992890000     2.7707270000    -1.1525930000
   38      H       1.6555140000     2.8680560000     1.5560250000
   39      H       0.0081200000    -7.3615890000    -0.9091810000
   40      H      -0.3046680000    -7.3611920000     0.8602640000
   41      H       0.1880620000    -1.4788310000    -1.0635000000
 ----------------------------------------------------------------

   11   -1571.7362720986      5.44e-07  Convergence criterion met
 Total energy in the final basis set =    -1571.7362720986
        RIMP2         total energy =     -1576.3938080404 a.u.

                    Orbital Energies (a.u.)
 --------------------------------------------------------------

 Alpha MOs
 -- Occupied --
-91.9890 -20.5526 -20.5441 -20.5415 -20.5405 -15.6266 -15.6211 -11.3931
-11.3847 -11.3833 -11.3792 -11.3087 -11.3063 -11.3042 -11.3034 -11.2953
-11.2941 -11.2880 -11.2864 -11.2685 -11.2673 -11.2648 -11.2626 -11.2606
-11.2593 -11.2528 -11.2522  -8.9889  -6.6697  -6.6692  -6.6686  -1.4192
 -1.4121  -1.3969  -1.3913  -1.2617  -1.2553  -1.2299  -1.1884  -1.1528
 -1.1136  -1.0855  -1.0460  -0.9967  -0.9876  -0.9873  -0.9550  -0.9502
 -0.8963  -0.8871  -0.8758  -0.8588  -0.7951  -0.7774  -0.7702  -0.7634
 -0.7426  -0.7172  -0.7042  -0.6914  -0.6818  -0.6714  -0.6662  -0.6570
 -0.6466  -0.6434  -0.6354  -0.6332  -0.6305  -0.6272  -0.6215  -0.6045
 -0.5841  -0.5762  -0.5690  -0.5612  -0.5565  -0.5510  -0.5505  -0.5479
 -0.5473  -0.5433  -0.5210  -0.5133  -0.5064  -0.4831  -0.4753  -0.4630
 -0.4585  -0.4510  -0.4426  -0.4342  -0.4132  -0.4072  -0.3598  -0.3483
 -0.3294  -0.2890

          Ground-State Mulliken Net Atomic Charges

     Atom                 Charge (a.u.)
  ----------------------------------------
      1 C                    -0.084982
      2 C                    -0.033510
      3 C                    -0.111139
      4 C                    -0.120186
      5 H                     0.198186
      6 C                     0.019123
      7 C                     0.119050
      8 C                    -0.102047
      9 C                    -0.182051
     10 C                    -0.095245
     11 C                     0.136012
     12 H                     0.202195
     13 C                     0.343994
     14 C                     0.343266
     15 N                    -0.089930
     16 C                     0.357148
     17 C                     0.349366
     18 N                    -0.092413
     19 O                    -0.494536
     20 O                    -0.507039
     21 O                    -0.501743
     22 O                    -0.470990
     23 C                    -0.204961
     24 H                     0.139516
     25 H                     0.109247
     26 H                     0.108856
     27 C                    -0.197245
     28 H                     0.133073
     29 H                     0.110980
     30 H                     0.112071
     31 C                     0.035313
     32 S                     0.010439
     33 C                    -0.202671
     34 C                    -0.206019
     35 C                    -0.195603
     36 H                     0.184270
     37 H                     0.194026
     38 H                     0.211352
     39 H                     0.136971
     40 H                     0.137276
     41 H                     0.200584
  ----------------------------------------
  Sum of atomic charges =     0.000000

                    Cartesian Multipole Moments
 -----------------------------------------------------------------
    Charge (ESU x 10^10)
                 0.0000
    Dipole Moment (Debye)
         X       0.4202      Y       2.3573      Z      -1.9650
       Tot       3.0976
    Quadrupole Moments (Debye-Ang)
        XX    -192.3059     XY      13.2370     YY    -181.1702
        XZ      -5.3475     YZ       3.3484     ZZ    -157.1114

 Total job time:  302.55s(wall), 9230.61s(cpu)
        *  Thank you very much for using Q-Chem.  Have a nice day.  *
