 Q-Chem 5.4, Q-Chem, Inc., Pleasanton, CA (2021)
 Q-Chem 5.4.0 for Intel X86 EM64T Linux

User input:
--------------------------------------------------------------
$molecule
0 1
C	-0.240927	-6.741404	0.089263
C	-1.467886	-6.155638	0.535973
C	0.777972	-5.791452	-0.281103
C	-1.729742	-4.803786	0.631036
H	-2.292903	-6.821518	0.836458
C	0.503614	-4.378638	-0.181995
C	-0.746756	-3.838032	0.272725
C	1.485437	-3.413062	-0.539954
C	-1.018915	-2.426473	0.371053
C	1.226557	-2.059348	-0.446381
C	0.000000	-1.478216	0.000000
H	2.052413	-1.394783	-0.747410
C	2.134128	-6.187987	-0.772747
C	2.829820	-3.798164	-1.029154
N	3.059182	-5.170003	-1.110828
C	-3.077731	-4.424987	1.121728
C	-2.375694	-2.036627	0.864069
N	-3.301101	-3.049156	1.201928
O	2.502830	-7.353131	-0.903908
O	3.697078	-2.986854	-1.345809
O	-3.934752	-5.248946	1.434422
O	-2.764177	-0.878829	1.003943
C	4.386939	-5.563799	-1.592981
H	4.429822	-6.664085	-1.607367
H	5.164489	-5.147101	-0.924504
H	4.553486	-5.148785	-2.605446
C	-4.608481	-2.587487	1.677308
H	-5.211969	-3.483329	1.898089
H	-5.094624	-1.964972	0.902337
H	-4.483092	-1.962932	2.582098
C	0.000000	0.000000	0.000000
S	0.068929	0.790170	1.580530
C	0.211639	2.421655	0.904911
C	0.086813	0.994207	-0.985400
C	0.201782	2.309433	-0.493528
H	0.066299	0.759454	-2.059934
H	0.278488	3.187020	-1.152593
H	0.288312	3.298992	1.556025
H	-0.447559	-7.361589	-0.791434
H	0.166282	-7.361192	0.897345
H	-0.368883	-1.478831	-1.015049
$end

$rem
JOBTYPE		SP
EXCHANGE	HF
CORRELATION	pRIMP2
BASIS		cc-pvtz
METHOD		rimp2
AUX_BASIS	rimp2-cc-pvtz
SOLVENT_METHOD	PCM
PURECART	11111
SYMMETRY	false
MEM_TOTAL	110000
SCF_CONVERGENCE = 6
THRESH=10
GUI = 2
$end

$solvent
dielectric 4.90
$end
--------------------------------------------------------------

             Standard Nuclear Orientation (Angstroms)
    I     Atom           X                Y                Z
 ----------------------------------------------------------------
    1      C      -0.2409270000    -6.7414040000     0.0892630000
    2      C      -1.4678860000    -6.1556380000     0.5359730000
    3      C       0.7779720000    -5.7914520000    -0.2811030000
    4      C      -1.7297420000    -4.8037860000     0.6310360000
    5      H      -2.2929030000    -6.8215180000     0.8364580000
    6      C       0.5036140000    -4.3786380000    -0.1819950000
    7      C      -0.7467560000    -3.8380320000     0.2727250000
    8      C       1.4854370000    -3.4130620000    -0.5399540000
    9      C      -1.0189150000    -2.4264730000     0.3710530000
   10      C       1.2265570000    -2.0593480000    -0.4463810000
   11      C       0.0000000000    -1.4782160000     0.0000000000
   12      H       2.0524130000    -1.3947830000    -0.7474100000
   13      C       2.1341280000    -6.1879870000    -0.7727470000
   14      C       2.8298200000    -3.7981640000    -1.0291540000
   15      N       3.0591820000    -5.1700030000    -1.1108280000
   16      C      -3.0777310000    -4.4249870000     1.1217280000
   17      C      -2.3756940000    -2.0366270000     0.8640690000
   18      N      -3.3011010000    -3.0491560000     1.2019280000
   19      O       2.5028300000    -7.3531310000    -0.9039080000
   20      O       3.6970780000    -2.9868540000    -1.3458090000
   21      O      -3.9347520000    -5.2489460000     1.4344220000
   22      O      -2.7641770000    -0.8788290000     1.0039430000
   23      C       4.3869390000    -5.5637990000    -1.5929810000
   24      H       4.4298220000    -6.6640850000    -1.6073670000
   25      H       5.1644890000    -5.1471010000    -0.9245040000
   26      H       4.5534860000    -5.1487850000    -2.6054460000
   27      C      -4.6084810000    -2.5874870000     1.6773080000
   28      H      -5.2119690000    -3.4833290000     1.8980890000
   29      H      -5.0946240000    -1.9649720000     0.9023370000
   30      H      -4.4830920000    -1.9629320000     2.5820980000
   31      C       0.0000000000     0.0000000000     0.0000000000
   32      S       0.0689290000     0.7901700000     1.5805300000
   33      C       0.2116390000     2.4216550000     0.9049110000
   34      C       0.0868130000     0.9942070000    -0.9854000000
   35      C       0.2017820000     2.3094330000    -0.4935280000
   36      H       0.0662990000     0.7594540000    -2.0599340000
   37      H       0.2784880000     3.1870200000    -1.1525930000
   38      H       0.2883120000     3.2989920000     1.5560250000
   39      H      -0.4475590000    -7.3615890000    -0.7914340000
   40      H       0.1662820000    -7.3611920000     0.8973450000
   41      H      -0.3688830000    -1.4788310000    -1.0150490000
 ----------------------------------------------------------------

   11   -1571.7486735794      5.49e-07  Convergence criterion met
 Total energy in the final basis set =    -1571.7486735794
        RIMP2         total energy =     -1576.4031159460 a.u.

                    Orbital Energies (a.u.)
 --------------------------------------------------------------

 Alpha MOs
 -- Occupied --
-91.9853 -20.5518 -20.5444 -20.5419 -20.5407 -15.6268 -15.6215 -11.3932
-11.3852 -11.3838 -11.3794 -11.3094 -11.3092 -11.3057 -11.3050 -11.2981
-11.2968 -11.2904 -11.2801 -11.2694 -11.2683 -11.2648 -11.2626 -11.2596
-11.2571 -11.2530 -11.2498  -8.9851  -6.6659  -6.6654  -6.6649  -1.4193
 -1.4124  -1.3971  -1.3916  -1.2620  -1.2556  -1.2299  -1.1861  -1.1523
 -1.1144  -1.0867  -1.0469  -0.9951  -0.9879  -0.9833  -0.9552  -0.9512
 -0.8965  -0.8878  -0.8769  -0.8602  -0.7944  -0.7769  -0.7710  -0.7619
 -0.7418  -0.7173  -0.7042  -0.6918  -0.6805  -0.6724  -0.6667  -0.6573
 -0.6472  -0.6446  -0.6362  -0.6330  -0.6311  -0.6278  -0.6217  -0.6046
 -0.5847  -0.5753  -0.5669  -0.5615  -0.5575  -0.5513  -0.5507  -0.5481
 -0.5466  -0.5437  -0.5191  -0.5158  -0.5096  -0.4825  -0.4745  -0.4613
 -0.4569  -0.4511  -0.4429  -0.4348  -0.4133  -0.4076  -0.3539  -0.3509
 -0.3283  -0.2888

          Ground-State Mulliken Net Atomic Charges

     Atom                 Charge (a.u.)
  ----------------------------------------
      1 C                    -0.084462
      2 C                    -0.030230
      3 C                    -0.111205
      4 C                    -0.123624
      5 H                     0.199072
      6 C                     0.019587
      7 C                     0.121916
      8 C                    -0.086008
      9 C                    -0.169219
     10 C                    -0.126795
     11 C                     0.185794
     12 H                     0.194610
     13 C                     0.343229
     14 C                     0.347731
     15 N                    -0.090132
     16 C                     0.357344
     17 C                     0.347846
     18 N                    -0.091726
     19 O                    -0.494150
     20 O                    -0.507504
     21 O                    -0.501636
     22 O                    -0.469196
     23 C                    -0.204718
     24 H                     0.139468
     25 H                     0.109455
     26 H                     0.108894
     27 C                    -0.196963
     28 H                     0.133066
     29 H                     0.111383
     30 H                     0.112052
     31 C                    -0.016583
     32 S                     0.021211
     33 C                    -0.209844
     34 C                    -0.195979
     35 C                    -0.208557
     36 H                     0.187674
     37 H                     0.191057
     38 H                     0.209782
     39 H                     0.137585
     40 H                     0.138054
     41 H                     0.201722
  ----------------------------------------
  Sum of atomic charges =     0.000000

                    Cartesian Multipole Moments
 -----------------------------------------------------------------
    Charge (ESU x 10^10)
                 0.0000
    Dipole Moment (Debye)
         X      -1.0352      Y       2.0430      Z      -1.4501
       Tot       2.7108
    Quadrupole Moments (Debye-Ang)
        XX    -191.9612     XY       9.6509     YY    -177.4416
        XZ      10.6790     YZ      -1.1617     ZZ    -160.2599

 Total job time:  291.46s(wall), 8863.77s(cpu)
        *  Thank you very much for using Q-Chem.  Have a nice day.  *
