 Q-Chem 5.4, Q-Chem, Inc., Pleasanton, CA (2021)
 Q-Chem 5.4.0 for Intel X86 EM64T Linux

User input:
--------------------------------------------------------------
$molecule
0 1
C	-0.166281	-6.741404	-0.195868
C	-1.005696	-6.155638	-1.196048
C	0.530233	-5.791452	0.634911
C	-1.184587	-4.803786	-1.409599
H	-1.570232	-6.821518	-1.868538
C	0.343266	-4.378638	0.410996
C	-0.511683	-3.838032	-0.608444
C	1.015440	-3.413062	1.211179
C	-0.697165	-2.426473	-0.830559
C	0.838968	-2.059348	0.999915
C	-0.000000	-1.478216	-0.000000
H	1.404302	-1.394783	1.673009
C	1.456059	-6.187987	1.741129
C	1.934944	-3.798164	2.307170
N	2.090139	-5.170003	2.494766
C	-2.106725	-4.424987	-2.508468
C	-1.624494	-2.036627	-1.936893
N	-2.258486	-3.049156	-2.690936
O	1.705414	-7.353131	2.042736
O	2.529122	-2.986854	3.013823
O	-2.693680	-5.248946	-3.206857
O	-1.888802	-0.878829	-2.254108
C	2.997334	-5.563799	3.577543
H	3.025519	-6.664085	3.612920
H	2.635109	-5.147101	4.536833
H	4.005702	-5.148785	3.387762
C	-3.152347	-2.587487	-3.756883
H	-3.566218	-3.483329	-4.248464
H	-2.590383	-1.964972	-4.478763
H	-3.959687	-1.962932	-3.329599
C	0.000000	0.000000	0.000000
S	0.607475	0.509994	1.580530
C	1.862020	1.562717	0.904911
C	0.764397	0.641624	-0.985400
C	1.775697	1.490335	-0.493528
H	0.583895	0.490135	-2.059934
H	2.450484	2.056643	-1.152593
H	2.536607	2.128872	1.556025
H	0.590631	-7.361589	-0.691254
H	-0.786357	-7.361192	0.463164
H	0.827669	-1.478831	-0.693804
$end

$rem
JOBTYPE		SP
EXCHANGE	HF
CORRELATION	pRIMP2
BASIS		cc-pvtz
METHOD		rimp2
AUX_BASIS	rimp2-cc-pvtz
SOLVENT_METHOD	PCM
PURECART	11111
SYMMETRY	false
MEM_TOTAL	110000
SCF_CONVERGENCE = 6
THRESH=10
GUI = 2
$end

$solvent
dielectric 4.90
$end
--------------------------------------------------------------

             Standard Nuclear Orientation (Angstroms)
    I     Atom           X                Y                Z
 ----------------------------------------------------------------
    1      C      -0.1662810000    -6.7414040000    -0.1958680000
    2      C      -1.0056960000    -6.1556380000    -1.1960480000
    3      C       0.5302330000    -5.7914520000     0.6349110000
    4      C      -1.1845870000    -4.8037860000    -1.4095990000
    5      H      -1.5702320000    -6.8215180000    -1.8685380000
    6      C       0.3432660000    -4.3786380000     0.4109960000
    7      C      -0.5116830000    -3.8380320000    -0.6084440000
    8      C       1.0154400000    -3.4130620000     1.2111790000
    9      C      -0.6971650000    -2.4264730000    -0.8305590000
   10      C       0.8389680000    -2.0593480000     0.9999150000
   11      C       0.0000000000    -1.4782160000     0.0000000000
   12      H       1.4043020000    -1.3947830000     1.6730090000
   13      C       1.4560590000    -6.1879870000     1.7411290000
   14      C       1.9349440000    -3.7981640000     2.3071700000
   15      N       2.0901390000    -5.1700030000     2.4947660000
   16      C      -2.1067250000    -4.4249870000    -2.5084680000
   17      C      -1.6244940000    -2.0366270000    -1.9368930000
   18      N      -2.2584860000    -3.0491560000    -2.6909360000
   19      O       1.7054140000    -7.3531310000     2.0427360000
   20      O       2.5291220000    -2.9868540000     3.0138230000
   21      O      -2.6936800000    -5.2489460000    -3.2068570000
   22      O      -1.8888020000    -0.8788290000    -2.2541080000
   23      C       2.9973340000    -5.5637990000     3.5775430000
   24      H       3.0255190000    -6.6640850000     3.6129200000
   25      H       2.6351090000    -5.1471010000     4.5368330000
   26      H       4.0057020000    -5.1487850000     3.3877620000
   27      C      -3.1523470000    -2.5874870000    -3.7568830000
   28      H      -3.5662180000    -3.4833290000    -4.2484640000
   29      H      -2.5903830000    -1.9649720000    -4.4787630000
   30      H      -3.9596870000    -1.9629320000    -3.3295990000
   31      C       0.0000000000     0.0000000000     0.0000000000
   32      S       0.6074750000     0.5099940000     1.5805300000
   33      C       1.8620200000     1.5627170000     0.9049110000
   34      C       0.7643970000     0.6416240000    -0.9854000000
   35      C       1.7756970000     1.4903350000    -0.4935280000
   36      H       0.5838950000     0.4901350000    -2.0599340000
   37      H       2.4504840000     2.0566430000    -1.1525930000
   38      H       2.5366070000     2.1288720000     1.5560250000
   39      H       0.5906310000    -7.3615890000    -0.6912540000
   40      H      -0.7863570000    -7.3611920000     0.4631640000
   41      H       0.8276690000    -1.4788310000    -0.6938040000
 ----------------------------------------------------------------

   11   -1571.6778350951      6.14e-07  Convergence criterion met
 Total energy in the final basis set =    -1571.6778350951
        RIMP2         total energy =     -1576.3507944909 a.u.

                    Orbital Energies (a.u.)
 --------------------------------------------------------------

 Alpha MOs
 -- Occupied --
-91.9917 -20.5534 -20.5439 -20.5383 -20.5382 -15.6268 -15.6191 -11.3937
-11.3844 -11.3802 -11.3766 -11.3046 -11.3021 -11.3015 -11.2990 -11.2970
-11.2943 -11.2864 -11.2854 -11.2662 -11.2638 -11.2631 -11.2629 -11.2596
-11.2583 -11.2547 -11.2501  -8.9929  -6.6735  -6.6728  -6.6727  -1.4198
 -1.4097  -1.3972  -1.3888  -1.2618  -1.2532  -1.2333  -1.1936  -1.1512
 -1.1114  -1.0839  -1.0453  -0.9991  -0.9964  -0.9863  -0.9541  -0.9473
 -0.8954  -0.8863  -0.8744  -0.8566  -0.7975  -0.7798  -0.7692  -0.7630
 -0.7388  -0.7189  -0.7011  -0.6926  -0.6846  -0.6701  -0.6657  -0.6558
 -0.6472  -0.6456  -0.6346  -0.6317  -0.6287  -0.6258  -0.6208  -0.6034
 -0.5899  -0.5776  -0.5711  -0.5609  -0.5565  -0.5512  -0.5496  -0.5489
 -0.5459  -0.5423  -0.5213  -0.5107  -0.4961  -0.4837  -0.4757  -0.4671
 -0.4557  -0.4503  -0.4405  -0.4322  -0.4132  -0.4057  -0.3535  -0.3476
 -0.3350  -0.2768

          Ground-State Mulliken Net Atomic Charges

     Atom                 Charge (a.u.)
  ----------------------------------------
      1 C                    -0.085237
      2 C                    -0.034272
      3 C                    -0.116111
      4 C                    -0.118297
      5 H                     0.197629
      6 C                     0.014180
      7 C                     0.108833
      8 C                    -0.060366
      9 C                    -0.181710
     10 C                    -0.174451
     11 C                     0.187545
     12 H                     0.193442
     13 C                     0.338915
     14 C                     0.346572
     15 N                    -0.088543
     16 C                     0.356464
     17 C                     0.356508
     18 N                    -0.090464
     19 O                    -0.499704
     20 O                    -0.512665
     21 O                    -0.502035
     22 O                    -0.473946
     23 C                    -0.205699
     24 H                     0.139207
     25 H                     0.108603
     26 H                     0.108148
     27 C                    -0.198278
     28 H                     0.133422
     29 H                     0.110418
     30 H                     0.112274
     31 C                    -0.054068
     32 S                     0.023703
     33 C                    -0.171709
     34 C                    -0.121116
     35 C                    -0.236410
     36 H                     0.197612
     37 H                     0.193473
     38 H                     0.216414
     39 H                     0.135203
     40 H                     0.135485
     41 H                     0.211029
  ----------------------------------------
  Sum of atomic charges =     0.000000

                    Cartesian Multipole Moments
 -----------------------------------------------------------------
    Charge (ESU x 10^10)
                 0.0000
    Dipole Moment (Debye)
         X       2.0394      Y       2.8876      Z      -2.1762
       Tot       4.1513
    Quadrupole Moments (Debye-Ang)
        XX    -169.6169     XY      11.4902     YY    -190.2213
        XZ     -16.1245     YZ       8.9923     ZZ    -175.4210

 Total job time:  300.89s(wall), 9479.17s(cpu)
        *  Thank you very much for using Q-Chem.  Have a nice day.  *
