 Q-Chem 5.4, Q-Chem, Inc., Pleasanton, CA (2021)
 Q-Chem 5.4.0 for Intel X86 EM64T Linux

User input:
--------------------------------------------------------------
$molecule
0 1
C	0.001478	-6.741404	0.256927
C	0.001603	-6.155638	1.562675
C	0.001931	-5.791452	-0.827197
C	0.001374	-4.803786	1.841253
H	0.001794	-6.821518	2.440709
C	0.001227	-4.378638	-0.535488
C	0.000872	-3.838032	0.794999
C	0.000658	-3.413062	-1.580529
C	0.000186	-2.426473	1.084374
C	0.000046	-2.059348	-1.305258
C	-0.000000	-1.478216	-0.000000
H	-0.000369	-1.394783	-2.184267
C	0.003770	-6.187987	-2.269719
C	0.000767	-3.798164	-3.011152
N	0.002465	-5.170003	-3.254617
C	0.001433	-4.424987	3.275775
C	-0.000576	-2.036627	2.527951
N	0.000400	-3.049156	3.513104
O	0.006623	-7.353131	-2.661046
O	-0.000172	-2.986854	-3.934410
O	0.002151	-5.248946	4.188059
O	-0.002006	-0.878829	2.940845
C	0.003509	-5.563799	-4.667206
H	0.004658	-6.664085	-4.712423
H	0.897610	-5.147101	-5.169231
H	-0.890935	-5.148785	-5.169992
C	-0.000039	-2.587487	4.904229
H	0.001022	-3.483329	5.546833
H	-0.894545	-1.964972	5.095998
H	0.893071	-1.962932	5.095858
C	0.000000	0.000000	0.000000
S	0.607475	0.509994	1.580530
C	1.862020	1.562717	0.904911
C	0.764397	0.641624	-0.985400
C	1.775697	1.490335	-0.493528
H	0.583895	0.490135	-2.059934
H	2.450484	2.056643	-1.152593
H	2.536607	2.128872	1.556025
H	-0.896779	-7.361589	0.149881
H	0.900100	-7.361192	0.150656
H	-1.080000	-1.478831	-0.000531
$end

$rem
JOBTYPE		SP
EXCHANGE	HF
CORRELATION	pRIMP2
BASIS		cc-pvtz
METHOD		rimp2
AUX_BASIS	rimp2-cc-pvtz
SOLVENT_METHOD	PCM
PURECART	11111
SYMMETRY	false
MEM_TOTAL	110000
SCF_CONVERGENCE = 6
THRESH=10
GUI = 2
$end

$solvent
dielectric 4.90
$end
--------------------------------------------------------------

             Standard Nuclear Orientation (Angstroms)
    I     Atom           X                Y                Z
 ----------------------------------------------------------------
    1      C       0.0014780000    -6.7414040000     0.2569270000
    2      C       0.0016030000    -6.1556380000     1.5626750000
    3      C       0.0019310000    -5.7914520000    -0.8271970000
    4      C       0.0013740000    -4.8037860000     1.8412530000
    5      H       0.0017940000    -6.8215180000     2.4407090000
    6      C       0.0012270000    -4.3786380000    -0.5354880000
    7      C       0.0008720000    -3.8380320000     0.7949990000
    8      C       0.0006580000    -3.4130620000    -1.5805290000
    9      C       0.0001860000    -2.4264730000     1.0843740000
   10      C       0.0000460000    -2.0593480000    -1.3052580000
   11      C       0.0000000000    -1.4782160000     0.0000000000
   12      H      -0.0003690000    -1.3947830000    -2.1842670000
   13      C       0.0037700000    -6.1879870000    -2.2697190000
   14      C       0.0007670000    -3.7981640000    -3.0111520000
   15      N       0.0024650000    -5.1700030000    -3.2546170000
   16      C       0.0014330000    -4.4249870000     3.2757750000
   17      C      -0.0005760000    -2.0366270000     2.5279510000
   18      N       0.0004000000    -3.0491560000     3.5131040000
   19      O       0.0066230000    -7.3531310000    -2.6610460000
   20      O      -0.0001720000    -2.9868540000    -3.9344100000
   21      O       0.0021510000    -5.2489460000     4.1880590000
   22      O      -0.0020060000    -0.8788290000     2.9408450000
   23      C       0.0035090000    -5.5637990000    -4.6672060000
   24      H       0.0046580000    -6.6640850000    -4.7124230000
   25      H       0.8976100000    -5.1471010000    -5.1692310000
   26      H      -0.8909350000    -5.1487850000    -5.1699920000
   27      C      -0.0000390000    -2.5874870000     4.9042290000
   28      H       0.0010220000    -3.4833290000     5.5468330000
   29      H      -0.8945450000    -1.9649720000     5.0959980000
   30      H       0.8930710000    -1.9629320000     5.0958580000
   31      C       0.0000000000     0.0000000000     0.0000000000
   32      S       0.6074750000     0.5099940000     1.5805300000
   33      C       1.8620200000     1.5627170000     0.9049110000
   34      C       0.7643970000     0.6416240000    -0.9854000000
   35      C       1.7756970000     1.4903350000    -0.4935280000
   36      H       0.5838950000     0.4901350000    -2.0599340000
   37      H       2.4504840000     2.0566430000    -1.1525930000
   38      H       2.5366070000     2.1288720000     1.5560250000
   39      H      -0.8967790000    -7.3615890000     0.1498810000
   40      H       0.9001000000    -7.3611920000     0.1506560000
   41      H      -1.0800000000    -1.4788310000    -0.0005310000
 ----------------------------------------------------------------

   11   -1571.6117879111      6.51e-07  Convergence criterion met
 Total energy in the final basis set =    -1571.6117879111
        RIMP2         total energy =     -1576.3003899091 a.u.

                    Orbital Energies (a.u.)
 --------------------------------------------------------------

 Alpha MOs
 -- Occupied --
-91.9684 -20.5631 -20.5469 -20.5391 -20.5389 -15.6331 -15.6200 -11.4041
-11.3877 -11.3810 -11.3775 -11.3096 -11.3085 -11.3059 -11.3038 -11.2977
-11.2828 -11.2690 -11.2678 -11.2662 -11.2656 -11.2647 -11.2623 -11.2588
-11.2580 -11.2519 -11.2372  -8.9691  -6.6495  -6.6475  -6.6464  -1.4430
 -1.4105  -1.4050  -1.3896  -1.2708  -1.2542  -1.2299  -1.1859  -1.1461
 -1.1137  -1.0828  -1.0476  -0.9956  -0.9891  -0.9814  -0.9559  -0.9466
 -0.8995  -0.8886  -0.8790  -0.8614  -0.7893  -0.7840  -0.7765  -0.7611
 -0.7322  -0.7275  -0.7013  -0.6898  -0.6890  -0.6771  -0.6683  -0.6582
 -0.6520  -0.6432  -0.6364  -0.6330  -0.6315  -0.6305  -0.6222  -0.6061
 -0.5915  -0.5733  -0.5694  -0.5638  -0.5603  -0.5575  -0.5533  -0.5484
 -0.5467  -0.5449  -0.5265  -0.5121  -0.5081  -0.4899  -0.4660  -0.4579
 -0.4514  -0.4421  -0.4370  -0.4218  -0.4065  -0.3771  -0.3531  -0.3284
 -0.3216  -0.2708

          Ground-State Mulliken Net Atomic Charges

     Atom                 Charge (a.u.)
  ----------------------------------------
      1 C                    -0.085466
      2 C                    -0.028807
      3 C                    -0.118194
      4 C                    -0.120616
      5 H                     0.199025
      6 C                     0.017912
      7 C                     0.119444
      8 C                    -0.088257
      9 C                    -0.215780
     10 C                    -0.134135
     11 C                     0.178629
     12 H                     0.190352
     13 C                     0.340577
     14 C                     0.346214
     15 N                    -0.089007
     16 C                     0.357590
     17 C                     0.390681
     18 N                    -0.084397
     19 O                    -0.499366
     20 O                    -0.511894
     21 O                    -0.498678
     22 O                    -0.420357
     23 C                    -0.205480
     24 H                     0.139349
     25 H                     0.108741
     26 H                     0.108618
     27 C                    -0.198594
     28 H                     0.135820
     29 H                     0.112644
     30 H                     0.113511
     31 C                    -0.084004
     32 S                     0.081668
     33 C                    -0.218696
     34 C                    -0.149064
     35 C                    -0.250342
     36 H                     0.188845
     37 H                     0.179110
     38 H                     0.200238
     39 H                     0.136563
     40 H                     0.136753
     41 H                     0.218852
  ----------------------------------------
  Sum of atomic charges =     0.000000

                    Cartesian Multipole Moments
 -----------------------------------------------------------------
    Charge (ESU x 10^10)
                 0.0000
    Dipole Moment (Debye)
         X       0.4797      Y       1.1617      Z       1.9720
       Tot       2.3385
    Quadrupole Moments (Debye-Ang)
        XX    -157.3492     XY       5.6461     YY    -187.9614
        XZ       0.8850     YZ     -11.8098     ZZ    -185.3978

 Total job time:  459.23s(wall), 9351.66s(cpu)
        *  Thank you very much for using Q-Chem.  Have a nice day.  *
