 Q-Chem 5.4, Q-Chem, Inc., Pleasanton, CA (2021)
 Q-Chem 5.4.0 for Intel X86 EM64T Linux

User input:
--------------------------------------------------------------
$molecule
0 1
C	-0.166281	-6.741404	-0.195868
C	-1.005696	-6.155638	-1.196048
C	0.530233	-5.791452	0.634911
C	-1.184587	-4.803786	-1.409599
H	-1.570232	-6.821518	-1.868538
C	0.343266	-4.378638	0.410996
C	-0.511683	-3.838032	-0.608444
C	1.015440	-3.413062	1.211179
C	-0.697165	-2.426473	-0.830559
C	0.838968	-2.059348	0.999915
C	-0.000000	-1.478216	-0.000000
H	1.404302	-1.394783	1.673009
C	1.456059	-6.187987	1.741129
C	1.934944	-3.798164	2.307170
N	2.090139	-5.170003	2.494766
C	-2.106725	-4.424987	-2.508468
C	-1.624494	-2.036627	-1.936893
N	-2.258486	-3.049156	-2.690936
O	1.705414	-7.353131	2.042736
O	2.529122	-2.986854	3.013823
O	-2.693680	-5.248946	-3.206857
O	-1.888802	-0.878829	-2.254108
C	2.997334	-5.563799	3.577543
H	3.025519	-6.664085	3.612920
H	2.635109	-5.147101	4.536833
H	4.005702	-5.148785	3.387762
C	-3.152347	-2.587487	-3.756883
H	-3.566218	-3.483329	-4.248464
H	-2.590383	-1.964972	-4.478763
H	-3.959687	-1.962932	-3.329599
C	0.000000	0.000000	0.000000
S	0.271091	0.745405	1.580530
C	0.831198	2.284363	0.904911
C	0.341175	0.937861	-0.985400
C	0.792631	2.178516	-0.493528
H	0.260601	0.716417	-2.059934
H	1.093860	3.006347	-1.152593
H	1.132330	3.111961	1.556025
H	0.590631	-7.361589	-0.691254
H	-0.786357	-7.361192	0.463164
H	0.827669	-1.478831	-0.693804
$end

$rem
JOBTYPE		SP
EXCHANGE	HF
CORRELATION	pRIMP2
BASIS		cc-pvtz
METHOD		rimp2
AUX_BASIS	rimp2-cc-pvtz
SOLVENT_METHOD	PCM
PURECART	11111
SYMMETRY	false
MEM_TOTAL	110000
SCF_CONVERGENCE = 6
THRESH=10
GUI = 2
$end

$solvent
dielectric 4.90
$end
--------------------------------------------------------------

             Standard Nuclear Orientation (Angstroms)
    I     Atom           X                Y                Z
 ----------------------------------------------------------------
    1      C      -0.1662810000    -6.7414040000    -0.1958680000
    2      C      -1.0056960000    -6.1556380000    -1.1960480000
    3      C       0.5302330000    -5.7914520000     0.6349110000
    4      C      -1.1845870000    -4.8037860000    -1.4095990000
    5      H      -1.5702320000    -6.8215180000    -1.8685380000
    6      C       0.3432660000    -4.3786380000     0.4109960000
    7      C      -0.5116830000    -3.8380320000    -0.6084440000
    8      C       1.0154400000    -3.4130620000     1.2111790000
    9      C      -0.6971650000    -2.4264730000    -0.8305590000
   10      C       0.8389680000    -2.0593480000     0.9999150000
   11      C       0.0000000000    -1.4782160000     0.0000000000
   12      H       1.4043020000    -1.3947830000     1.6730090000
   13      C       1.4560590000    -6.1879870000     1.7411290000
   14      C       1.9349440000    -3.7981640000     2.3071700000
   15      N       2.0901390000    -5.1700030000     2.4947660000
   16      C      -2.1067250000    -4.4249870000    -2.5084680000
   17      C      -1.6244940000    -2.0366270000    -1.9368930000
   18      N      -2.2584860000    -3.0491560000    -2.6909360000
   19      O       1.7054140000    -7.3531310000     2.0427360000
   20      O       2.5291220000    -2.9868540000     3.0138230000
   21      O      -2.6936800000    -5.2489460000    -3.2068570000
   22      O      -1.8888020000    -0.8788290000    -2.2541080000
   23      C       2.9973340000    -5.5637990000     3.5775430000
   24      H       3.0255190000    -6.6640850000     3.6129200000
   25      H       2.6351090000    -5.1471010000     4.5368330000
   26      H       4.0057020000    -5.1487850000     3.3877620000
   27      C      -3.1523470000    -2.5874870000    -3.7568830000
   28      H      -3.5662180000    -3.4833290000    -4.2484640000
   29      H      -2.5903830000    -1.9649720000    -4.4787630000
   30      H      -3.9596870000    -1.9629320000    -3.3295990000
   31      C       0.0000000000     0.0000000000     0.0000000000
   32      S       0.2710910000     0.7454050000     1.5805300000
   33      C       0.8311980000     2.2843630000     0.9049110000
   34      C       0.3411750000     0.9378610000    -0.9854000000
   35      C       0.7926310000     2.1785160000    -0.4935280000
   36      H       0.2606010000     0.7164170000    -2.0599340000
   37      H       1.0938600000     3.0063470000    -1.1525930000
   38      H       1.1323300000     3.1119610000     1.5560250000
   39      H       0.5906310000    -7.3615890000    -0.6912540000
   40      H      -0.7863570000    -7.3611920000     0.4631640000
   41      H       0.8276690000    -1.4788310000    -0.6938040000
 ----------------------------------------------------------------

   11   -1571.7367041857      5.75e-07  Convergence criterion met
 Total energy in the final basis set =    -1571.7367041857
        RIMP2         total energy =     -1576.3950881741 a.u.

                    Orbital Energies (a.u.)
 --------------------------------------------------------------

 Alpha MOs
 -- Occupied --
-91.9908 -20.5531 -20.5448 -20.5415 -20.5406 -15.6275 -15.6213 -11.3944
-11.3855 -11.3833 -11.3792 -11.3084 -11.3073 -11.3051 -11.3045 -11.2983
-11.2966 -11.2909 -11.2798 -11.2687 -11.2681 -11.2652 -11.2633 -11.2594
-11.2526 -11.2512 -11.2501  -8.9907  -6.6716  -6.6710  -6.6705  -1.4204
 -1.4121  -1.3978  -1.3913  -1.2626  -1.2554  -1.2311  -1.1883  -1.1518
 -1.1143  -1.0866  -1.0472  -0.9960  -0.9880  -0.9857  -0.9553  -0.9499
 -0.8970  -0.8886  -0.8768  -0.8598  -0.7958  -0.7792  -0.7710  -0.7602
 -0.7404  -0.7164  -0.7025  -0.6919  -0.6825  -0.6719  -0.6671  -0.6574
 -0.6473  -0.6455  -0.6370  -0.6322  -0.6308  -0.6279  -0.6225  -0.6046
 -0.5882  -0.5745  -0.5656  -0.5612  -0.5572  -0.5517  -0.5506  -0.5496
 -0.5477  -0.5435  -0.5182  -0.5134  -0.5111  -0.4854  -0.4761  -0.4653
 -0.4577  -0.4515  -0.4428  -0.4347  -0.4138  -0.4075  -0.3540  -0.3526
 -0.3312  -0.2816

          Ground-State Mulliken Net Atomic Charges

     Atom                 Charge (a.u.)
  ----------------------------------------
      1 C                    -0.084697
      2 C                    -0.031057
      3 C                    -0.111445
      4 C                    -0.123953
      5 H                     0.198842
      6 C                     0.022077
      7 C                     0.116492
      8 C                    -0.072729
      9 C                    -0.177462
     10 C                    -0.156485
     11 C                     0.176086
     12 H                     0.193942
     13 C                     0.342306
     14 C                     0.346797
     15 N                    -0.089821
     16 C                     0.357075
     17 C                     0.347641
     18 N                    -0.090633
     19 O                    -0.494852
     20 O                    -0.506996
     21 O                    -0.501337
     22 O                    -0.472330
     23 C                    -0.204861
     24 H                     0.139448
     25 H                     0.109339
     26 H                     0.109011
     27 C                    -0.197676
     28 H                     0.133544
     29 H                     0.110731
     30 H                     0.112370
     31 C                     0.009361
     32 S                     0.006556
     33 C                    -0.207096
     34 C                    -0.169979
     35 C                    -0.218048
     36 H                     0.188195
     37 H                     0.190896
     38 H                     0.211701
     39 H                     0.137416
     40 H                     0.137649
     41 H                     0.213983
  ----------------------------------------
  Sum of atomic charges =     0.000000

                    Cartesian Multipole Moments
 -----------------------------------------------------------------
    Charge (ESU x 10^10)
                 0.0000
    Dipole Moment (Debye)
         X       0.7361      Y       2.0094      Z      -2.2510
       Tot       3.1059
    Quadrupole Moments (Debye-Ang)
        XX    -175.0448     XY       8.0889     YY    -179.4328
        XZ     -16.2371     YZ       8.2358     ZZ    -175.6508

 Total job time:  321.98s(wall), 9274.18s(cpu)
        *  Thank you very much for using Q-Chem.  Have a nice day.  *
