 Q-Chem 5.4, Q-Chem, Inc., Pleasanton, CA (2021)
 Q-Chem 5.4.0 for Intel X86 EM64T Linux

User input:
--------------------------------------------------------------
$molecule
0 1
C	-0.043160	-6.741404	0.253280
C	-0.269777	-6.155638	1.539213
C	0.145543	-5.791452	-0.814295
C	-0.318377	-4.803786	1.813519
H	-0.422058	-6.821518	2.403941
C	0.094194	-4.378638	-0.527140
C	-0.137191	-3.838032	0.783072
C	0.275104	-3.413062	-1.556403
C	-0.188116	-2.426473	1.067932
C	0.226701	-2.059348	-1.285420
C	-0.000000	-1.478216	-0.000000
H	0.378931	-1.394783	-2.151147
C	0.397845	-6.187987	-2.234582
C	0.523637	-3.798164	-2.965273
N	0.567586	-5.170003	-3.204744
C	-0.567421	-4.424987	3.226257
C	-0.439541	-2.036627	2.489446
N	-0.609650	-3.049156	3.459801
O	0.468608	-7.353131	-2.619468
O	0.683034	-2.986854	-3.874668
O	-0.725131	-5.248946	4.124806
O	-0.512648	-0.878829	2.895819
C	0.813908	-5.563799	-4.595691
H	0.822891	-6.664085	-4.640022
H	1.781600	-5.147101	-4.934830
H	0.020360	-5.148785	-5.246157
C	-0.851649	-2.587487	4.829716
H	-0.962191	-3.483329	5.462742
H	-1.765865	-1.964972	4.863242
H	-0.005383	-1.962932	5.173521
C	0.000000	0.000000	0.000000
S	0.607475	0.509994	1.580530
C	1.862020	1.562717	0.904911
C	0.764397	0.641624	-0.985400
C	1.775697	1.490335	-0.493528
H	0.583895	0.490135	-2.059934
H	2.450484	2.056643	-1.152593
H	2.536607	2.128872	1.556025
H	-0.909181	-7.361589	-0.008120
H	0.860264	-7.361192	0.304668
H	-1.063500	-1.478831	-0.188062
$end

$rem
JOBTYPE		SP
EXCHANGE	HF
CORRELATION	pRIMP2
BASIS		cc-pvtz
METHOD		rimp2
AUX_BASIS	rimp2-cc-pvtz
SOLVENT_METHOD	PCM
PURECART	11111
SYMMETRY	false
MEM_TOTAL	110000
SCF_CONVERGENCE = 6
THRESH=10
GUI = 2
$end

$solvent
dielectric 4.90
$end
--------------------------------------------------------------

             Standard Nuclear Orientation (Angstroms)
    I     Atom           X                Y                Z
 ----------------------------------------------------------------
    1      C      -0.0431600000    -6.7414040000     0.2532800000
    2      C      -0.2697770000    -6.1556380000     1.5392130000
    3      C       0.1455430000    -5.7914520000    -0.8142950000
    4      C      -0.3183770000    -4.8037860000     1.8135190000
    5      H      -0.4220580000    -6.8215180000     2.4039410000
    6      C       0.0941940000    -4.3786380000    -0.5271400000
    7      C      -0.1371910000    -3.8380320000     0.7830720000
    8      C       0.2751040000    -3.4130620000    -1.5564030000
    9      C      -0.1881160000    -2.4264730000     1.0679320000
   10      C       0.2267010000    -2.0593480000    -1.2854200000
   11      C       0.0000000000    -1.4782160000     0.0000000000
   12      H       0.3789310000    -1.3947830000    -2.1511470000
   13      C       0.3978450000    -6.1879870000    -2.2345820000
   14      C       0.5236370000    -3.7981640000    -2.9652730000
   15      N       0.5675860000    -5.1700030000    -3.2047440000
   16      C      -0.5674210000    -4.4249870000     3.2262570000
   17      C      -0.4395410000    -2.0366270000     2.4894460000
   18      N      -0.6096500000    -3.0491560000     3.4598010000
   19      O       0.4686080000    -7.3531310000    -2.6194680000
   20      O       0.6830340000    -2.9868540000    -3.8746680000
   21      O      -0.7251310000    -5.2489460000     4.1248060000
   22      O      -0.5126480000    -0.8788290000     2.8958190000
   23      C       0.8139080000    -5.5637990000    -4.5956910000
   24      H       0.8228910000    -6.6640850000    -4.6400220000
   25      H       1.7816000000    -5.1471010000    -4.9348300000
   26      H       0.0203600000    -5.1487850000    -5.2461570000
   27      C      -0.8516490000    -2.5874870000     4.8297160000
   28      H      -0.9621910000    -3.4833290000     5.4627420000
   29      H      -1.7658650000    -1.9649720000     4.8632420000
   30      H      -0.0053830000    -1.9629320000     5.1735210000
   31      C       0.0000000000     0.0000000000     0.0000000000
   32      S       0.6074750000     0.5099940000     1.5805300000
   33      C       1.8620200000     1.5627170000     0.9049110000
   34      C       0.7643970000     0.6416240000    -0.9854000000
   35      C       1.7756970000     1.4903350000    -0.4935280000
   36      H       0.5838950000     0.4901350000    -2.0599340000
   37      H       2.4504840000     2.0566430000    -1.1525930000
   38      H       2.5366070000     2.1288720000     1.5560250000
   39      H      -0.9091810000    -7.3615890000    -0.0081200000
   40      H       0.8602640000    -7.3611920000     0.3046680000
   41      H      -1.0635000000    -1.4788310000    -0.1880620000
 ----------------------------------------------------------------

   11   -1571.6501442342      6.27e-07  Convergence criterion met
 Total energy in the final basis set =    -1571.6501442342
        RIMP2         total energy =     -1576.3311539544 a.u.

                    Orbital Energies (a.u.)
 --------------------------------------------------------------

 Alpha MOs
 -- Occupied --
-91.9715 -20.5585 -20.5456 -20.5392 -20.5389 -15.6304 -15.6200 -11.3997
-11.3864 -11.3810 -11.3776 -11.3083 -11.3072 -11.3057 -11.3033 -11.2965
-11.2836 -11.2764 -11.2711 -11.2681 -11.2647 -11.2646 -11.2627 -11.2621
-11.2588 -11.2514 -11.2434  -8.9721  -6.6525  -6.6510  -6.6503  -1.4321
 -1.4105  -1.4024  -1.3896  -1.2669  -1.2542  -1.2301  -1.1872  -1.1483
 -1.1132  -1.0833  -1.0469  -0.9954  -0.9884  -0.9833  -0.9551  -0.9476
 -0.8970  -0.8884  -0.8778  -0.8602  -0.7891  -0.7814  -0.7747  -0.7631
 -0.7304  -0.7229  -0.7016  -0.6906  -0.6873  -0.6753  -0.6680  -0.6575
 -0.6499  -0.6431  -0.6361  -0.6319  -0.6313  -0.6300  -0.6211  -0.6059
 -0.5909  -0.5721  -0.5692  -0.5638  -0.5603  -0.5552  -0.5518  -0.5480
 -0.5466  -0.5446  -0.5262  -0.5093  -0.5070  -0.4884  -0.4658  -0.4579
 -0.4523  -0.4422  -0.4357  -0.4215  -0.4065  -0.3917  -0.3534  -0.3424
 -0.3305  -0.2723

          Ground-State Mulliken Net Atomic Charges

     Atom                 Charge (a.u.)
  ----------------------------------------
      1 C                    -0.084882
      2 C                    -0.030962
      3 C                    -0.115933
      4 C                    -0.120866
      5 H                     0.198569
      6 C                     0.014734
      7 C                     0.112668
      8 C                    -0.083673
      9 C                    -0.193920
     10 C                    -0.142779
     11 C                     0.182224
     12 H                     0.185858
     13 C                     0.339709
     14 C                     0.347643
     15 N                    -0.089101
     16 C                     0.356833
     17 C                     0.384448
     18 N                    -0.087490
     19 O                    -0.498977
     20 O                    -0.512708
     21 O                    -0.500169
     22 O                    -0.459966
     23 C                    -0.205528
     24 H                     0.139429
     25 H                     0.108644
     26 H                     0.108558
     27 C                    -0.198043
     28 H                     0.134836
     29 H                     0.112061
     30 H                     0.112969
     31 C                    -0.065454
     32 S                     0.084718
     33 C                    -0.204972
     34 C                    -0.158685
     35 C                    -0.235023
     36 H                     0.188870
     37 H                     0.184055
     38 H                     0.204074
     39 H                     0.136133
     40 H                     0.136457
     41 H                     0.215645
  ----------------------------------------
  Sum of atomic charges =     0.000000

                    Cartesian Multipole Moments
 -----------------------------------------------------------------
    Charge (ESU x 10^10)
                 0.0000
    Dipole Moment (Debye)
         X       0.3550      Y       1.8464      Z       1.1079
       Tot       2.1824
    Quadrupole Moments (Debye-Ang)
        XX    -157.7069     XY       8.1081     YY    -188.4709
        XZ       6.0750     YZ     -10.3541     ZZ    -186.1222

 Total job time:  303.18s(wall), 9291.17s(cpu)
        *  Thank you very much for using Q-Chem.  Have a nice day.  *
