 Q-Chem 5.4, Q-Chem, Inc., Pleasanton, CA (2021)
 Q-Chem 5.4.0 for Intel X86 EM64T Linux

User input:
--------------------------------------------------------------
$molecule
0 1
C	0.166281	-6.741404	0.195868
C	1.005696	-6.155638	1.196048
C	-0.530233	-5.791452	-0.634911
C	1.184587	-4.803786	1.409599
H	1.570232	-6.821518	1.868538
C	-0.343266	-4.378638	-0.410996
C	0.511683	-3.838032	0.608444
C	-1.015440	-3.413062	-1.211179
C	0.697165	-2.426473	0.830559
C	-0.838968	-2.059348	-0.999915
C	-0.000000	-1.478216	-0.000000
H	-1.404302	-1.394783	-1.673009
C	-1.456059	-6.187987	-1.741129
C	-1.934944	-3.798164	-2.307170
N	-2.090139	-5.170003	-2.494766
C	2.106725	-4.424987	2.508468
C	1.624494	-2.036627	1.936893
N	2.258486	-3.049156	2.690936
O	-1.705414	-7.353131	-2.042736
O	-2.529122	-2.986854	-3.013823
O	2.693680	-5.248946	3.206857
O	1.888802	-0.878829	2.254108
C	-2.997334	-5.563799	-3.577543
H	-3.025519	-6.664085	-3.612920
H	-2.635109	-5.147101	-4.536833
H	-4.005702	-5.148785	-3.387762
C	3.152347	-2.587487	3.756883
H	3.566218	-3.483329	4.248464
H	2.590383	-1.964972	4.478763
H	3.959687	-1.962932	3.329599
C	0.000000	0.000000	0.000000
S	0.335026	0.718942	1.580530
C	1.027130	2.203226	0.904911
C	0.421617	0.904557	-0.985400
C	0.979485	2.101144	-0.493528
H	0.322049	0.690978	-2.059934
H	1.351718	2.899571	-1.152593
H	1.399246	3.001430	1.556025
H	-0.590631	-7.361589	0.691254
H	0.786357	-7.361192	-0.463164
H	-0.827669	-1.478831	0.693804
$end

$rem
JOBTYPE		SP
EXCHANGE	HF
CORRELATION	pRIMP2
BASIS		cc-pvtz
METHOD		rimp2
AUX_BASIS	rimp2-cc-pvtz
SOLVENT_METHOD	PCM
PURECART	11111
SYMMETRY	false
MEM_TOTAL	110000
SCF_CONVERGENCE = 6
THRESH=10
GUI = 2
$end

$solvent
dielectric 4.90
$end
--------------------------------------------------------------

             Standard Nuclear Orientation (Angstroms)
    I     Atom           X                Y                Z
 ----------------------------------------------------------------
    1      C       0.1662810000    -6.7414040000     0.1958680000
    2      C       1.0056960000    -6.1556380000     1.1960480000
    3      C      -0.5302330000    -5.7914520000    -0.6349110000
    4      C       1.1845870000    -4.8037860000     1.4095990000
    5      H       1.5702320000    -6.8215180000     1.8685380000
    6      C      -0.3432660000    -4.3786380000    -0.4109960000
    7      C       0.5116830000    -3.8380320000     0.6084440000
    8      C      -1.0154400000    -3.4130620000    -1.2111790000
    9      C       0.6971650000    -2.4264730000     0.8305590000
   10      C      -0.8389680000    -2.0593480000    -0.9999150000
   11      C       0.0000000000    -1.4782160000     0.0000000000
   12      H      -1.4043020000    -1.3947830000    -1.6730090000
   13      C      -1.4560590000    -6.1879870000    -1.7411290000
   14      C      -1.9349440000    -3.7981640000    -2.3071700000
   15      N      -2.0901390000    -5.1700030000    -2.4947660000
   16      C       2.1067250000    -4.4249870000     2.5084680000
   17      C       1.6244940000    -2.0366270000     1.9368930000
   18      N       2.2584860000    -3.0491560000     2.6909360000
   19      O      -1.7054140000    -7.3531310000    -2.0427360000
   20      O      -2.5291220000    -2.9868540000    -3.0138230000
   21      O       2.6936800000    -5.2489460000     3.2068570000
   22      O       1.8888020000    -0.8788290000     2.2541080000
   23      C      -2.9973340000    -5.5637990000    -3.5775430000
   24      H      -3.0255190000    -6.6640850000    -3.6129200000
   25      H      -2.6351090000    -5.1471010000    -4.5368330000
   26      H      -4.0057020000    -5.1487850000    -3.3877620000
   27      C       3.1523470000    -2.5874870000     3.7568830000
   28      H       3.5662180000    -3.4833290000     4.2484640000
   29      H       2.5903830000    -1.9649720000     4.4787630000
   30      H       3.9596870000    -1.9629320000     3.3295990000
   31      C       0.0000000000     0.0000000000     0.0000000000
   32      S       0.3350260000     0.7189420000     1.5805300000
   33      C       1.0271300000     2.2032260000     0.9049110000
   34      C       0.4216170000     0.9045570000    -0.9854000000
   35      C       0.9794850000     2.1011440000    -0.4935280000
   36      H       0.3220490000     0.6909780000    -2.0599340000
   37      H       1.3517180000     2.8995710000    -1.1525930000
   38      H       1.3992460000     3.0014300000     1.5560250000
   39      H      -0.5906310000    -7.3615890000     0.6912540000
   40      H       0.7863570000    -7.3611920000    -0.4631640000
   41      H      -0.8276690000    -1.4788310000     0.6938040000
 ----------------------------------------------------------------

   11   -1571.6918163273      6.07e-07  Convergence criterion met
 Total energy in the final basis set =    -1571.6918163273
        RIMP2         total energy =     -1576.3639347983 a.u.

                    Orbital Energies (a.u.)
 --------------------------------------------------------------

 Alpha MOs
 -- Occupied --
-91.9790 -20.5494 -20.5450 -20.5414 -20.5402 -15.6281 -15.6211 -11.3955
-11.3857 -11.3833 -11.3787 -11.3098 -11.3075 -11.3062 -11.3048 -11.2974
-11.2867 -11.2815 -11.2770 -11.2687 -11.2687 -11.2638 -11.2638 -11.2594
-11.2530 -11.2481 -11.2392  -8.9794  -6.6597  -6.6593  -6.6587  -1.4247
 -1.4120  -1.4001  -1.3911  -1.2643  -1.2553  -1.2292  -1.1842  -1.1478
 -1.1140  -1.0852  -1.0471  -0.9933  -0.9882  -0.9781  -0.9552  -0.9487
 -0.8961  -0.8879  -0.8779  -0.8611  -0.7899  -0.7780  -0.7736  -0.7629
 -0.7311  -0.7202  -0.7016  -0.6900  -0.6833  -0.6701  -0.6677  -0.6576
 -0.6490  -0.6418  -0.6383  -0.6322  -0.6312  -0.6284  -0.6243  -0.6044
 -0.5864  -0.5709  -0.5650  -0.5621  -0.5588  -0.5523  -0.5515  -0.5487
 -0.5478  -0.5440  -0.5158  -0.5143  -0.5099  -0.4837  -0.4741  -0.4604
 -0.4547  -0.4445  -0.4402  -0.4328  -0.4121  -0.4074  -0.3533  -0.3285
 -0.3150  -0.2824

          Ground-State Mulliken Net Atomic Charges

     Atom                 Charge (a.u.)
  ----------------------------------------
      1 C                    -0.084524
      2 C                    -0.028834
      3 C                    -0.112791
      4 C                    -0.122001
      5 H                     0.199068
      6 C                     0.014778
      7 C                     0.121070
      8 C                    -0.094107
      9 C                    -0.223151
     10 C                    -0.148491
     11 C                     0.231440
     12 H                     0.193839
     13 C                     0.343067
     14 C                     0.348652
     15 N                    -0.089693
     16 C                     0.356621
     17 C                     0.410132
     18 N                    -0.090368
     19 O                    -0.495232
     20 O                    -0.507954
     21 O                    -0.501342
     22 O                    -0.460231
     23 C                    -0.204787
     24 H                     0.139430
     25 H                     0.108992
     26 H                     0.109053
     27 C                    -0.197781
     28 H                     0.134045
     29 H                     0.111546
     30 H                     0.111882
     31 C                    -0.089386
     32 S                     0.061603
     33 C                    -0.205943
     34 C                    -0.166915
     35 C                    -0.235927
     36 H                     0.188520
     37 H                     0.185740
     38 H                     0.208073
     39 H                     0.137775
     40 H                     0.138004
     41 H                     0.206131
  ----------------------------------------
  Sum of atomic charges =     0.000000

                    Cartesian Multipole Moments
 -----------------------------------------------------------------
    Charge (ESU x 10^10)
                 0.0000
    Dipole Moment (Debye)
         X       1.4726      Y       1.4344      Z       1.3580
       Tot       2.4638
    Quadrupole Moments (Debye-Ang)
        XX    -174.0168     XY      -0.8990     YY    -181.1891
        XZ     -14.4204     YZ      -7.2987     ZZ    -174.2836

 Total job time:  316.38s(wall), 10208.30s(cpu)
        *  Thank you very much for using Q-Chem.  Have a nice day.  *
