 Q-Chem 5.4, Q-Chem, Inc., Pleasanton, CA (2021)
 Q-Chem 5.4.0 for Intel X86 EM64T Linux

User input:
--------------------------------------------------------------
$molecule
0 1
C	0.221766	-6.741404	-0.129743
C	1.352515	-6.155638	-0.782726
C	-0.717339	-5.791452	0.411926
C	1.593885	-4.803786	-0.921816
H	2.112819	-6.821518	-1.221908
C	-0.464360	-4.378638	0.266682
C	0.688053	-3.838032	-0.398255
C	-1.369108	-3.413062	0.789694
C	0.939002	-2.426473	-0.542349
C	-1.130409	-2.059348	0.652589
C	-0.000000	-1.478216	-0.000000
H	-1.891446	-1.394783	1.092453
C	-1.967519	-6.187987	1.131595
C	-2.608118	-3.798164	1.504912
N	-2.819813	-5.170003	1.625174
C	2.836188	-4.424987	-1.639129
C	2.189558	-2.036627	-1.263477
N	3.042237	-3.049156	-1.756898
O	-2.307845	-7.353131	1.324787
O	-3.407213	-2.986854	1.967354
O	3.625890	-5.248946	-2.095892
O	2.547850	-0.878829	-1.468685
C	-4.043674	-5.563799	2.330564
H	-4.083407	-6.664085	2.352178
H	-4.925490	-5.147101	1.807263
H	-4.031877	-5.148785	3.356568
C	4.247206	-2.587487	-2.452080
H	4.803187	-3.483329	-2.774302
H	4.860536	-1.964972	-1.773301
H	3.966607	-1.962932	-3.321351
H	0.060567	-7.822318	-0.037043
C	0.000000	0.000000	0.000000
S	0.335026	0.718942	1.580530
C	1.027130	2.203226	0.904911
C	0.421617	0.904557	-0.985400
C	0.979485	2.101144	-0.493528
H	0.322049	0.690978	-2.059934
H	1.351718	2.899571	-1.152593
H	1.399246	3.001430	1.556025
$end

$rem
JOBTYPE		SP
EXCHANGE	HF
CORRELATION	pRIMP2
BASIS		cc-pvtz
METHOD		rimp2
AUX_BASIS	rimp2-cc-pvtz
SOLVENT_METHOD	PCM
PURECART	11111
SYMMETRY	false
MEM_TOTAL	110000
SCF_CONVERGENCE = 6
THRESH=10
GUI = 2
$end

$solvent
dielectric 4.90
$end
--------------------------------------------------------------

             Standard Nuclear Orientation (Angstroms)
    I     Atom           X                Y                Z
 ----------------------------------------------------------------
    1      C       0.2217660000    -6.7414040000    -0.1297430000
    2      C       1.3525150000    -6.1556380000    -0.7827260000
    3      C      -0.7173390000    -5.7914520000     0.4119260000
    4      C       1.5938850000    -4.8037860000    -0.9218160000
    5      H       2.1128190000    -6.8215180000    -1.2219080000
    6      C      -0.4643600000    -4.3786380000     0.2666820000
    7      C       0.6880530000    -3.8380320000    -0.3982550000
    8      C      -1.3691080000    -3.4130620000     0.7896940000
    9      C       0.9390020000    -2.4264730000    -0.5423490000
   10      C      -1.1304090000    -2.0593480000     0.6525890000
   11      C       0.0000000000    -1.4782160000     0.0000000000
   12      H      -1.8914460000    -1.3947830000     1.0924530000
   13      C      -1.9675190000    -6.1879870000     1.1315950000
   14      C      -2.6081180000    -3.7981640000     1.5049120000
   15      N      -2.8198130000    -5.1700030000     1.6251740000
   16      C       2.8361880000    -4.4249870000    -1.6391290000
   17      C       2.1895580000    -2.0366270000    -1.2634770000
   18      N       3.0422370000    -3.0491560000    -1.7568980000
   19      O      -2.3078450000    -7.3531310000     1.3247870000
   20      O      -3.4072130000    -2.9868540000     1.9673540000
   21      O       3.6258900000    -5.2489460000    -2.0958920000
   22      O       2.5478500000    -0.8788290000    -1.4686850000
   23      C      -4.0436740000    -5.5637990000     2.3305640000
   24      H      -4.0834070000    -6.6640850000     2.3521780000
   25      H      -4.9254900000    -5.1471010000     1.8072630000
   26      H      -4.0318770000    -5.1487850000     3.3565680000
   27      C       4.2472060000    -2.5874870000    -2.4520800000
   28      H       4.8031870000    -3.4833290000    -2.7743020000
   29      H       4.8605360000    -1.9649720000    -1.7733010000
   30      H       3.9666070000    -1.9629320000    -3.3213510000
   31      H       0.0605670000    -7.8223180000    -0.0370430000
   32      C       0.0000000000     0.0000000000     0.0000000000
   33      S       0.3350260000     0.7189420000     1.5805300000
   34      C       1.0271300000     2.2032260000     0.9049110000
   35      C       0.4216170000     0.9045570000    -0.9854000000
   36      C       0.9794850000     2.1011440000    -0.4935280000
   37      H       0.3220490000     0.6909780000    -2.0599340000
   38      H       1.3517180000     2.8995710000    -1.1525930000
   39      H       1.3992460000     3.0014300000     1.5560250000
 ----------------------------------------------------------------

   10   -1570.6785985720      8.24e-07  Convergence criterion met
 Total energy in the final basis set =    -1570.6785985720
        RIMP2         total energy =     -1575.3059077718 a.u.

                    Orbital Energies (a.u.)
 --------------------------------------------------------------

 Alpha MOs
 -- Occupied --
-91.9928 -20.5583 -20.5557 -20.5545 -20.5535 -15.6308 -15.6301 -11.3998
-11.3953 -11.3920 -11.3899 -11.3148 -11.3028 -11.3023 -11.3000 -11.2972
-11.2969 -11.2885 -11.2853 -11.2852 -11.2815 -11.2798 -11.2759 -11.2646
-11.2643 -11.2592 -11.2497  -8.9921  -6.6729  -6.6724  -6.6718  -1.4245
 -1.4231  -1.4038  -1.4022  -1.2670  -1.2646  -1.2167  -1.1752  -1.1435
 -1.1165  -1.0621  -1.0490  -0.9925  -0.9890  -0.9842  -0.9587  -0.9481
 -0.8962  -0.8790  -0.8758  -0.8607  -0.7945  -0.7765  -0.7724  -0.7602
 -0.7367  -0.7176  -0.7048  -0.6943  -0.6801  -0.6717  -0.6659  -0.6618
 -0.6562  -0.6418  -0.6367  -0.6333  -0.6287  -0.6120  -0.5858  -0.5840
 -0.5769  -0.5746  -0.5652  -0.5631  -0.5599  -0.5549  -0.5515  -0.5483
 -0.5357  -0.5258  -0.5202  -0.5151  -0.4826  -0.4707  -0.4648  -0.4607
 -0.4588  -0.4527  -0.4276  -0.4178  -0.4083  -0.3626  -0.3496  -0.3348
 -0.3120

          Ground-State Mulliken Net Atomic Charges

     Atom                 Charge (a.u.)
  ----------------------------------------
      1 C                    -0.136150
      2 C                    -0.107517
      3 C                    -0.041175
      4 C                    -0.003402
      5 H                     0.188354
      6 C                    -0.014621
      7 C                     0.079531
      8 C                     0.026812
      9 C                    -0.013067
     10 C                    -0.183691
     11 C                     0.110013
     12 H                     0.182268
     13 C                     0.361238
     14 C                     0.366441
     15 N                    -0.101278
     16 C                     0.359141
     17 C                     0.369829
     18 N                    -0.094336
     19 O                    -0.464998
     20 O                    -0.476136
     21 O                    -0.481221
     22 O                    -0.462831
     23 C                    -0.201086
     24 H                     0.140940
     25 H                     0.112300
     26 H                     0.112458
     27 C                    -0.196580
     28 H                     0.133896
     29 H                     0.113233
     30 H                     0.111768
     31 H                     0.213678
     32 C                    -0.097415
     33 S                     0.036161
     34 C                    -0.197159
     35 C                    -0.138594
     36 C                    -0.194538
     37 H                     0.184504
     38 H                     0.189395
     39 H                     0.213836
  ----------------------------------------
  Sum of atomic charges =     0.000000

                    Cartesian Multipole Moments
 -----------------------------------------------------------------
    Charge (ESU x 10^10)
                 0.0000
    Dipole Moment (Debye)
         X       1.1234      Y       1.4747      Z      -1.0759
       Tot       2.1434
    Quadrupole Moments (Debye-Ang)
        XX    -177.5976     XY       4.1292     YY    -167.9561
        XZ       9.2996     YZ       0.9850     ZZ    -162.5723

 Total job time:  256.79s(wall), 8191.19s(cpu)
        *  Thank you very much for using Q-Chem.  Have a nice day.  *
