 Q-Chem 5.4, Q-Chem, Inc., Pleasanton, CA (2021)
 Q-Chem 5.4.0 for Intel X86 EM64T Linux

User input:
--------------------------------------------------------------
$molecule
0 1
C	-0.164018	-6.741404	0.197767
C	-1.003240	-6.155638	1.198109
C	0.533192	-5.791452	-0.632428
C	-1.182482	-4.803786	1.411364
H	-1.567483	-6.821518	1.870845
C	0.345145	-4.378638	-0.409419
C	-0.510347	-3.838032	0.609565
C	1.016449	-3.413062	-1.210332
C	-0.696879	-2.426473	0.830799
C	0.839039	-2.059348	-0.999856
C	0.000000	-1.478216	0.000000
H	1.403737	-1.394783	-1.673483
C	1.461835	-6.187987	-1.736282
C	1.936119	-3.798164	-2.306183
N	2.093916	-5.170003	-2.491597
C	-2.104529	-4.424987	2.510310
C	-1.625377	-2.036627	1.936153
N	-2.257873	-3.049156	2.691451
O	1.715561	-7.353131	-2.034222
O	2.528858	-2.986854	-3.014044
O	-2.690385	-5.248946	3.209622
O	-1.891876	-0.878829	2.251529
C	3.002711	-5.563799	-3.573032
H	3.032655	-6.664085	-3.606932
H	4.010326	-5.147101	-3.382888
H	2.640711	-5.148785	-4.533125
C	-3.152408	-2.587487	3.756832
H	-3.564653	-3.483329	4.249778
H	-3.960905	-1.964972	3.328759
H	-2.591422	-1.962932	4.477709
H	-0.044245	-7.822318	0.055524
C	0.000000	0.000000	0.000000
S	0.205093	0.766196	1.580530
C	0.628939	2.348114	0.904911
C	0.258137	0.964028	-0.985400
C	0.599745	2.239309	-0.493528
H	0.197169	0.736404	-2.059934
H	0.827678	3.090243	-1.152593
H	0.856796	3.198808	1.556025
$end

$rem
JOBTYPE		SP
EXCHANGE	HF
CORRELATION	pRIMP2
BASIS		cc-pvtz
METHOD		rimp2
AUX_BASIS	rimp2-cc-pvtz
SOLVENT_METHOD	PCM
PURECART	11111
SYMMETRY	false
MEM_TOTAL	110000
SCF_CONVERGENCE = 6
THRESH=10
GUI = 2
$end

$solvent
dielectric 4.90
$end
--------------------------------------------------------------

             Standard Nuclear Orientation (Angstroms)
    I     Atom           X                Y                Z
 ----------------------------------------------------------------
    1      C      -0.1640180000    -6.7414040000     0.1977670000
    2      C      -1.0032400000    -6.1556380000     1.1981090000
    3      C       0.5331920000    -5.7914520000    -0.6324280000
    4      C      -1.1824820000    -4.8037860000     1.4113640000
    5      H      -1.5674830000    -6.8215180000     1.8708450000
    6      C       0.3451450000    -4.3786380000    -0.4094190000
    7      C      -0.5103470000    -3.8380320000     0.6095650000
    8      C       1.0164490000    -3.4130620000    -1.2103320000
    9      C      -0.6968790000    -2.4264730000     0.8307990000
   10      C       0.8390390000    -2.0593480000    -0.9998560000
   11      C       0.0000000000    -1.4782160000     0.0000000000
   12      H       1.4037370000    -1.3947830000    -1.6734830000
   13      C       1.4618350000    -6.1879870000    -1.7362820000
   14      C       1.9361190000    -3.7981640000    -2.3061830000
   15      N       2.0939160000    -5.1700030000    -2.4915970000
   16      C      -2.1045290000    -4.4249870000     2.5103100000
   17      C      -1.6253770000    -2.0366270000     1.9361530000
   18      N      -2.2578730000    -3.0491560000     2.6914510000
   19      O       1.7155610000    -7.3531310000    -2.0342220000
   20      O       2.5288580000    -2.9868540000    -3.0140440000
   21      O      -2.6903850000    -5.2489460000     3.2096220000
   22      O      -1.8918760000    -0.8788290000     2.2515290000
   23      C       3.0027110000    -5.5637990000    -3.5730320000
   24      H       3.0326550000    -6.6640850000    -3.6069320000
   25      H       4.0103260000    -5.1471010000    -3.3828880000
   26      H       2.6407110000    -5.1487850000    -4.5331250000
   27      C      -3.1524080000    -2.5874870000     3.7568320000
   28      H      -3.5646530000    -3.4833290000     4.2497780000
   29      H      -3.9609050000    -1.9649720000     3.3287590000
   30      H      -2.5914220000    -1.9629320000     4.4777090000
   31      H      -0.0442450000    -7.8223180000     0.0555240000
   32      C       0.0000000000     0.0000000000     0.0000000000
   33      S       0.2050930000     0.7661960000     1.5805300000
   34      C       0.6289390000     2.3481140000     0.9049110000
   35      C       0.2581370000     0.9640280000    -0.9854000000
   36      C       0.5997450000     2.2393090000    -0.4935280000
   37      H       0.1971690000     0.7364040000    -2.0599340000
   38      H       0.8276780000     3.0902430000    -1.1525930000
   39      H       0.8567960000     3.1988080000     1.5560250000
 ----------------------------------------------------------------

   10   -1570.6839382825      7.43e-07  Convergence criterion met
 Total energy in the final basis set =    -1570.6839382825
        RIMP2         total energy =     -1575.3126417718 a.u.

                    Orbital Energies (a.u.)
 --------------------------------------------------------------

 Alpha MOs
 -- Occupied --
-91.9867 -20.5588 -20.5567 -20.5547 -20.5542 -15.6315 -15.6303 -11.4002
-11.3961 -11.3918 -11.3910 -11.3182 -11.3026 -11.3024 -11.3007 -11.2971
-11.2964 -11.2909 -11.2867 -11.2849 -11.2839 -11.2799 -11.2781 -11.2648
-11.2643 -11.2607 -11.2483  -8.9862  -6.6668  -6.6663  -6.6657  -1.4252
 -1.4243  -1.4045  -1.4033  -1.2676  -1.2651  -1.2173  -1.1751  -1.1437
 -1.1171  -1.0627  -1.0497  -0.9929  -0.9892  -0.9837  -0.9589  -0.9477
 -0.8968  -0.8794  -0.8776  -0.8612  -0.7946  -0.7770  -0.7740  -0.7623
 -0.7331  -0.7183  -0.7049  -0.6943  -0.6831  -0.6743  -0.6664  -0.6622
 -0.6567  -0.6410  -0.6372  -0.6336  -0.6286  -0.6134  -0.5842  -0.5837
 -0.5794  -0.5716  -0.5670  -0.5666  -0.5642  -0.5555  -0.5540  -0.5484
 -0.5325  -0.5232  -0.5218  -0.5189  -0.4845  -0.4727  -0.4644  -0.4606
 -0.4580  -0.4477  -0.4279  -0.4180  -0.4090  -0.3691  -0.3476  -0.3366
 -0.3047

          Ground-State Mulliken Net Atomic Charges

     Atom                 Charge (a.u.)
  ----------------------------------------
      1 C                    -0.138981
      2 C                    -0.108622
      3 C                    -0.037194
      4 C                    -0.004755
      5 H                     0.188729
      6 C                     0.002924
      7 C                     0.080006
      8 C                     0.001930
      9 C                    -0.060136
     10 C                    -0.134062
     11 C                     0.089016
     12 H                     0.185160
     13 C                     0.359822
     14 C                     0.364706
     15 N                    -0.101583
     16 C                     0.359279
     17 C                     0.358292
     18 N                    -0.095860
     19 O                    -0.464371
     20 O                    -0.476682
     21 O                    -0.481699
     22 O                    -0.465563
     23 C                    -0.201136
     24 H                     0.141197
     25 H                     0.112457
     26 H                     0.112229
     27 C                    -0.196531
     28 H                     0.133786
     29 H                     0.113188
     30 H                     0.112948
     31 H                     0.213512
     32 C                    -0.020224
     33 S                     0.074149
     34 C                    -0.208951
     35 C                    -0.197246
     36 C                    -0.204690
     37 H                     0.192977
     38 H                     0.190427
     39 H                     0.211552
  ----------------------------------------
  Sum of atomic charges =     0.000000

                    Cartesian Multipole Moments
 -----------------------------------------------------------------
    Charge (ESU x 10^10)
                 0.0000
    Dipole Moment (Debye)
         X       0.4755      Y       1.3616      Z      -0.7323
       Tot       1.6175
    Quadrupole Moments (Debye-Ang)
        XX    -171.8850     XY       3.0047     YY    -167.4080
        XZ      10.0975     YZ       0.6111     ZZ    -169.0685

 Total job time:  262.98s(wall), 8267.67s(cpu)
        *  Thank you very much for using Q-Chem.  Have a nice day.  *
