 Q-Chem 5.4, Q-Chem, Inc., Pleasanton, CA (2021)
 Q-Chem 5.4.0 for Intel X86 EM64T Linux

User input:
--------------------------------------------------------------
$molecule
0 1
C	-0.043160	-6.741404	0.253280
C	-0.269777	-6.155638	1.539213
C	0.145543	-5.791452	-0.814295
C	-0.318377	-4.803786	1.813519
H	-0.422058	-6.821518	2.403941
C	0.094194	-4.378638	-0.527140
C	-0.137191	-3.838032	0.783072
C	0.275104	-3.413062	-1.556403
C	-0.188116	-2.426473	1.067932
C	0.226701	-2.059348	-1.285420
C	-0.000000	-1.478216	-0.000000
H	0.378931	-1.394783	-2.151147
C	0.397845	-6.187987	-2.234582
C	0.523637	-3.798164	-2.965273
N	0.567586	-5.170003	-3.204744
C	-0.567421	-4.424987	3.226257
C	-0.439541	-2.036627	2.489446
N	-0.609650	-3.049156	3.459801
O	0.468608	-7.353131	-2.619468
O	0.683034	-2.986854	-3.874668
O	-0.725131	-5.248946	4.124806
O	-0.512648	-0.878829	2.895819
C	0.813908	-5.563799	-4.595691
H	0.822891	-6.664085	-4.640022
H	1.781600	-5.147101	-4.934830
H	0.020360	-5.148785	-5.246157
C	-0.851649	-2.587487	4.829716
H	-0.962191	-3.483329	5.462742
H	-1.765865	-1.964972	4.863242
H	-0.005383	-1.962932	5.173521
H	-0.010555	-7.822318	0.070208
C	0.000000	0.000000	0.000000
S	0.271091	0.745405	1.580530
C	0.831198	2.284363	0.904911
C	0.341175	0.937861	-0.985400
C	0.792631	2.178516	-0.493528
H	0.260601	0.716417	-2.059934
H	1.093860	3.006347	-1.152593
H	1.132330	3.111961	1.556025
$end

$rem
JOBTYPE		SP
EXCHANGE	HF
CORRELATION	pRIMP2
BASIS		cc-pvtz
METHOD		rimp2
AUX_BASIS	rimp2-cc-pvtz
SOLVENT_METHOD	PCM
PURECART	11111
SYMMETRY	false
MEM_TOTAL	110000
SCF_CONVERGENCE = 6
THRESH=10
GUI = 2
$end

$solvent
dielectric 4.90
$end
--------------------------------------------------------------

             Standard Nuclear Orientation (Angstroms)
    I     Atom           X                Y                Z
 ----------------------------------------------------------------
    1      C      -0.0431600000    -6.7414040000     0.2532800000
    2      C      -0.2697770000    -6.1556380000     1.5392130000
    3      C       0.1455430000    -5.7914520000    -0.8142950000
    4      C      -0.3183770000    -4.8037860000     1.8135190000
    5      H      -0.4220580000    -6.8215180000     2.4039410000
    6      C       0.0941940000    -4.3786380000    -0.5271400000
    7      C      -0.1371910000    -3.8380320000     0.7830720000
    8      C       0.2751040000    -3.4130620000    -1.5564030000
    9      C      -0.1881160000    -2.4264730000     1.0679320000
   10      C       0.2267010000    -2.0593480000    -1.2854200000
   11      C       0.0000000000    -1.4782160000     0.0000000000
   12      H       0.3789310000    -1.3947830000    -2.1511470000
   13      C       0.3978450000    -6.1879870000    -2.2345820000
   14      C       0.5236370000    -3.7981640000    -2.9652730000
   15      N       0.5675860000    -5.1700030000    -3.2047440000
   16      C      -0.5674210000    -4.4249870000     3.2262570000
   17      C      -0.4395410000    -2.0366270000     2.4894460000
   18      N      -0.6096500000    -3.0491560000     3.4598010000
   19      O       0.4686080000    -7.3531310000    -2.6194680000
   20      O       0.6830340000    -2.9868540000    -3.8746680000
   21      O      -0.7251310000    -5.2489460000     4.1248060000
   22      O      -0.5126480000    -0.8788290000     2.8958190000
   23      C       0.8139080000    -5.5637990000    -4.5956910000
   24      H       0.8228910000    -6.6640850000    -4.6400220000
   25      H       1.7816000000    -5.1471010000    -4.9348300000
   26      H       0.0203600000    -5.1487850000    -5.2461570000
   27      C      -0.8516490000    -2.5874870000     4.8297160000
   28      H      -0.9621910000    -3.4833290000     5.4627420000
   29      H      -1.7658650000    -1.9649720000     4.8632420000
   30      H      -0.0053830000    -1.9629320000     5.1735210000
   31      H      -0.0105550000    -7.8223180000     0.0702080000
   32      C       0.0000000000     0.0000000000     0.0000000000
   33      S       0.2710910000     0.7454050000     1.5805300000
   34      C       0.8311980000     2.2843630000     0.9049110000
   35      C       0.3411750000     0.9378610000    -0.9854000000
   36      C       0.7926310000     2.1785160000    -0.4935280000
   37      H       0.2606010000     0.7164170000    -2.0599340000
   38      H       1.0938600000     3.0063470000    -1.1525930000
   39      H       1.1323300000     3.1119610000     1.5560250000
 ----------------------------------------------------------------

   10   -1570.6539159674      8.81e-07  Convergence criterion met
 Total energy in the final basis set =    -1570.6539159674
        RIMP2         total energy =     -1575.2913171239 a.u.

                    Orbital Energies (a.u.)
 --------------------------------------------------------------

 Alpha MOs
 -- Occupied --
-91.9781 -20.5589 -20.5589 -20.5570 -20.5538 -15.6317 -15.6315 -11.4001
-11.3993 -11.3916 -11.3912 -11.3214 -11.3023 -11.3009 -11.2985 -11.2950
-11.2935 -11.2888 -11.2875 -11.2831 -11.2790 -11.2782 -11.2739 -11.2653
-11.2648 -11.2634 -11.2448  -8.9777  -6.6581  -6.6568  -6.6560  -1.4320
 -1.4252  -1.4070  -1.4046  -1.2692  -1.2665  -1.2170  -1.1739  -1.1426
 -1.1166  -1.0618  -1.0495  -0.9931  -0.9898  -0.9822  -0.9593  -0.9469
 -0.8973  -0.8801  -0.8779  -0.8630  -0.7934  -0.7783  -0.7766  -0.7611
 -0.7321  -0.7251  -0.7031  -0.6933  -0.6892  -0.6747  -0.6678  -0.6633
 -0.6573  -0.6406  -0.6382  -0.6363  -0.6271  -0.6146  -0.5841  -0.5834
 -0.5817  -0.5750  -0.5709  -0.5650  -0.5638  -0.5563  -0.5559  -0.5492
 -0.5329  -0.5259  -0.5209  -0.5179  -0.4899  -0.4735  -0.4660  -0.4633
 -0.4570  -0.4324  -0.4212  -0.4103  -0.3956  -0.3754  -0.3454  -0.3374
 -0.2963

          Ground-State Mulliken Net Atomic Charges

     Atom                 Charge (a.u.)
  ----------------------------------------
      1 C                    -0.147511
      2 C                    -0.111443
      3 C                    -0.027765
      4 C                    -0.004162
      5 H                     0.187974
      6 C                     0.003181
      7 C                     0.081037
      8 C                     0.006284
      9 C                    -0.084922
     10 C                    -0.132458
     11 C                     0.064416
     12 H                     0.180443
     13 C                     0.358695
     14 C                     0.363193
     15 N                    -0.101830
     16 C                     0.358639
     17 C                     0.373740
     18 N                    -0.092572
     19 O                    -0.463771
     20 O                    -0.477319
     21 O                    -0.482693
     22 O                    -0.455673
     23 C                    -0.201275
     24 H                     0.141317
     25 H                     0.112375
     26 H                     0.112417
     27 C                    -0.198234
     28 H                     0.134958
     29 H                     0.113438
     30 H                     0.113395
     31 H                     0.212404
     32 C                     0.020828
     33 S                     0.104537
     34 C                    -0.229380
     35 C                    -0.194221
     36 C                    -0.218827
     37 H                     0.187278
     38 H                     0.185916
     39 H                     0.207591
  ----------------------------------------
  Sum of atomic charges =     0.000000

                    Cartesian Multipole Moments
 -----------------------------------------------------------------
    Charge (ESU x 10^10)
                 0.0000
    Dipole Moment (Debye)
         X       0.5504      Y       1.3692      Z      -0.3463
       Tot       1.5158
    Quadrupole Moments (Debye-Ang)
        XX    -163.5113     XY       3.2884     YY    -171.4247
        XZ       3.5171     YZ       0.5137     ZZ    -175.5550

 Total job time:  280.08s(wall), 9067.69s(cpu)
        *  Thank you very much for using Q-Chem.  Have a nice day.  *
