 Q-Chem 5.4, Q-Chem, Inc., Pleasanton, CA (2021)
 Q-Chem 5.4.0 for Intel X86 EM64T Linux

User input:
--------------------------------------------------------------
$molecule
0 1
C	-0.221766	-6.741404	0.129743
C	-1.352515	-6.155638	0.782726
C	0.717339	-5.791452	-0.411926
C	-1.593885	-4.803786	0.921816
H	-2.112819	-6.821518	1.221908
C	0.464360	-4.378638	-0.266682
C	-0.688053	-3.838032	0.398255
C	1.369108	-3.413062	-0.789694
C	-0.939002	-2.426473	0.542349
C	1.130409	-2.059348	-0.652589
C	-0.000000	-1.478216	-0.000000
H	1.891446	-1.394783	-1.092453
C	1.967519	-6.187987	-1.131595
C	2.608118	-3.798164	-1.504912
N	2.819813	-5.170003	-1.625174
C	-2.836188	-4.424987	1.639129
C	-2.189558	-2.036627	1.263477
N	-3.042237	-3.049156	1.756898
O	2.307845	-7.353131	-1.324787
O	3.407213	-2.986854	-1.967354
O	-3.625890	-5.248946	2.095892
O	-2.547850	-0.878829	1.468685
C	4.043674	-5.563799	-2.330564
H	4.083407	-6.664085	-2.352178
H	4.925490	-5.147101	-1.807263
H	4.031877	-5.148785	-3.356568
C	-4.247206	-2.587487	2.452080
H	-4.803187	-3.483329	2.774302
H	-4.860536	-1.964972	1.773301
H	-3.966607	-1.962932	3.321351
H	-0.060567	-7.822318	0.037043
C	0.000000	0.000000	0.000000
S	0.607475	0.509994	1.580530
C	1.862020	1.562717	0.904911
C	0.764397	0.641624	-0.985400
C	1.775697	1.490335	-0.493528
H	0.583895	0.490135	-2.059934
H	2.450484	2.056643	-1.152593
H	2.536607	2.128872	1.556025
$end

$rem
JOBTYPE		SP
EXCHANGE	HF
CORRELATION	pRIMP2
BASIS		cc-pvtz
METHOD		rimp2
AUX_BASIS	rimp2-cc-pvtz
SOLVENT_METHOD	PCM
PURECART	11111
SYMMETRY	false
MEM_TOTAL	110000
SCF_CONVERGENCE = 6
THRESH=10
GUI = 2
$end

$solvent
dielectric 4.90
$end
--------------------------------------------------------------

             Standard Nuclear Orientation (Angstroms)
    I     Atom           X                Y                Z
 ----------------------------------------------------------------
    1      C      -0.2217660000    -6.7414040000     0.1297430000
    2      C      -1.3525150000    -6.1556380000     0.7827260000
    3      C       0.7173390000    -5.7914520000    -0.4119260000
    4      C      -1.5938850000    -4.8037860000     0.9218160000
    5      H      -2.1128190000    -6.8215180000     1.2219080000
    6      C       0.4643600000    -4.3786380000    -0.2666820000
    7      C      -0.6880530000    -3.8380320000     0.3982550000
    8      C       1.3691080000    -3.4130620000    -0.7896940000
    9      C      -0.9390020000    -2.4264730000     0.5423490000
   10      C       1.1304090000    -2.0593480000    -0.6525890000
   11      C       0.0000000000    -1.4782160000     0.0000000000
   12      H       1.8914460000    -1.3947830000    -1.0924530000
   13      C       1.9675190000    -6.1879870000    -1.1315950000
   14      C       2.6081180000    -3.7981640000    -1.5049120000
   15      N       2.8198130000    -5.1700030000    -1.6251740000
   16      C      -2.8361880000    -4.4249870000     1.6391290000
   17      C      -2.1895580000    -2.0366270000     1.2634770000
   18      N      -3.0422370000    -3.0491560000     1.7568980000
   19      O       2.3078450000    -7.3531310000    -1.3247870000
   20      O       3.4072130000    -2.9868540000    -1.9673540000
   21      O      -3.6258900000    -5.2489460000     2.0958920000
   22      O      -2.5478500000    -0.8788290000     1.4686850000
   23      C       4.0436740000    -5.5637990000    -2.3305640000
   24      H       4.0834070000    -6.6640850000    -2.3521780000
   25      H       4.9254900000    -5.1471010000    -1.8072630000
   26      H       4.0318770000    -5.1487850000    -3.3565680000
   27      C      -4.2472060000    -2.5874870000     2.4520800000
   28      H      -4.8031870000    -3.4833290000     2.7743020000
   29      H      -4.8605360000    -1.9649720000     1.7733010000
   30      H      -3.9666070000    -1.9629320000     3.3213510000
   31      H      -0.0605670000    -7.8223180000     0.0370430000
   32      C       0.0000000000     0.0000000000     0.0000000000
   33      S       0.6074750000     0.5099940000     1.5805300000
   34      C       1.8620200000     1.5627170000     0.9049110000
   35      C       0.7643970000     0.6416240000    -0.9854000000
   36      C       1.7756970000     1.4903350000    -0.4935280000
   37      H       0.5838950000     0.4901350000    -2.0599340000
   38      H       2.4504840000     2.0566430000    -1.1525930000
   39      H       2.5366070000     2.1288720000     1.5560250000
 ----------------------------------------------------------------

   11   -1570.6519736883      4.40e-07  Convergence criterion met
 Total energy in the final basis set =    -1570.6519736883
        RIMP2         total energy =     -1575.2866455082 a.u.

                    Orbital Energies (a.u.)
 --------------------------------------------------------------

 Alpha MOs
 -- Occupied --
-91.9960 -20.5582 -20.5562 -20.5541 -20.5530 -15.6309 -15.6287 -11.3995
-11.3938 -11.3906 -11.3903 -11.3158 -11.3013 -11.3003 -11.2983 -11.2956
-11.2946 -11.2945 -11.2846 -11.2829 -11.2785 -11.2779 -11.2737 -11.2688
-11.2646 -11.2633 -11.2553  -8.9954  -6.6761  -6.6755  -6.6750  -1.4246
 -1.4220  -1.4040  -1.4011  -1.2667  -1.2635  -1.2168  -1.1858  -1.1417
 -1.1150  -1.0622  -1.0477  -0.9930  -0.9926  -0.9910  -0.9579  -0.9460
 -0.8956  -0.8775  -0.8746  -0.8578  -0.7939  -0.7756  -0.7745  -0.7662
 -0.7340  -0.7170  -0.7064  -0.6934  -0.6820  -0.6743  -0.6654  -0.6610
 -0.6556  -0.6414  -0.6362  -0.6322  -0.6273  -0.6123  -0.5866  -0.5846
 -0.5787  -0.5765  -0.5670  -0.5637  -0.5630  -0.5548  -0.5526  -0.5474
 -0.5324  -0.5272  -0.5188  -0.5073  -0.4824  -0.4750  -0.4655  -0.4597
 -0.4567  -0.4519  -0.4269  -0.4174  -0.4073  -0.3686  -0.3480  -0.3363
 -0.3122

          Ground-State Mulliken Net Atomic Charges

     Atom                 Charge (a.u.)
  ----------------------------------------
      1 C                    -0.141688
      2 C                    -0.108996
      3 C                    -0.033707
      4 C                    -0.000951
      5 H                     0.188036
      6 C                    -0.008321
      7 C                     0.076812
      8 C                     0.009399
      9 C                    -0.059249
     10 C                    -0.154839
     11 C                     0.086569
     12 H                     0.184334
     13 C                     0.358740
     14 C                     0.363440
     15 N                    -0.101040
     16 C                     0.356698
     17 C                     0.361649
     18 N                    -0.095114
     19 O                    -0.464971
     20 O                    -0.478384
     21 O                    -0.482758
     22 O                    -0.466390
     23 C                    -0.201554
     24 H                     0.141170
     25 H                     0.112179
     26 H                     0.112044
     27 C                    -0.197535
     28 H                     0.133196
     29 H                     0.112889
     30 H                     0.112760
     31 H                     0.212762
     32 C                    -0.087186
     33 S                     0.060698
     34 C                    -0.162557
     35 C                    -0.140006
     36 C                    -0.209607
     37 H                     0.199259
     38 H                     0.195782
     39 H                     0.216437
  ----------------------------------------
  Sum of atomic charges =     0.000000

                    Cartesian Multipole Moments
 -----------------------------------------------------------------
    Charge (ESU x 10^10)
                 0.0000
    Dipole Moment (Debye)
         X       2.5366      Y       1.6300      Z      -0.9342
       Tot       3.1565
    Quadrupole Moments (Debye-Ang)
        XX    -172.7947     XY       6.6689     YY    -174.5991
        XZ      10.2550     YZ       0.6698     ZZ    -162.0782

 Total job time:  286.76s(wall), 8494.85s(cpu)
        *  Thank you very much for using Q-Chem.  Have a nice day.  *
