 Q-Chem 5.4, Q-Chem, Inc., Pleasanton, CA (2021)
 Q-Chem 5.4.0 for Intel X86 EM64T Linux

User input:
--------------------------------------------------------------
$molecule
0 1
C	-0.164018	-6.741404	0.197767
C	-1.003240	-6.155638	1.198109
C	0.533192	-5.791452	-0.632428
C	-1.182482	-4.803786	1.411364
H	-1.567483	-6.821518	1.870845
C	0.345145	-4.378638	-0.409419
C	-0.510347	-3.838032	0.609565
C	1.016449	-3.413062	-1.210332
C	-0.696879	-2.426473	0.830799
C	0.839039	-2.059348	-0.999856
C	0.000000	-1.478216	0.000000
H	1.403737	-1.394783	-1.673483
C	1.461835	-6.187987	-1.736282
C	1.936119	-3.798164	-2.306183
N	2.093916	-5.170003	-2.491597
C	-2.104529	-4.424987	2.510310
C	-1.625377	-2.036627	1.936153
N	-2.257873	-3.049156	2.691451
O	1.715561	-7.353131	-2.034222
O	2.528858	-2.986854	-3.014044
O	-2.690385	-5.248946	3.209622
O	-1.891876	-0.878829	2.251529
C	3.002711	-5.563799	-3.573032
H	3.032655	-6.664085	-3.606932
H	4.010326	-5.147101	-3.382888
H	2.640711	-5.148785	-4.533125
C	-3.152408	-2.587487	3.756832
H	-3.564653	-3.483329	4.249778
H	-3.960905	-1.964972	3.328759
H	-2.591422	-1.962932	4.477709
H	-0.044245	-7.822318	0.055524
C	0.000000	0.000000	0.000000
S	0.068929	0.790170	1.580530
C	0.211639	2.421655	0.904911
C	0.086813	0.994207	-0.985400
C	0.201782	2.309433	-0.493528
H	0.066299	0.759454	-2.059934
H	0.278488	3.187020	-1.152593
H	0.288312	3.298992	1.556025
$end

$rem
JOBTYPE		SP
EXCHANGE	HF
CORRELATION	pRIMP2
BASIS		cc-pvtz
METHOD		rimp2
AUX_BASIS	rimp2-cc-pvtz
SOLVENT_METHOD	PCM
PURECART	11111
SYMMETRY	false
MEM_TOTAL	110000
SCF_CONVERGENCE = 6
THRESH=10
GUI = 2
$end

$solvent
dielectric 4.90
$end
--------------------------------------------------------------

             Standard Nuclear Orientation (Angstroms)
    I     Atom           X                Y                Z
 ----------------------------------------------------------------
    1      C      -0.1640180000    -6.7414040000     0.1977670000
    2      C      -1.0032400000    -6.1556380000     1.1981090000
    3      C       0.5331920000    -5.7914520000    -0.6324280000
    4      C      -1.1824820000    -4.8037860000     1.4113640000
    5      H      -1.5674830000    -6.8215180000     1.8708450000
    6      C       0.3451450000    -4.3786380000    -0.4094190000
    7      C      -0.5103470000    -3.8380320000     0.6095650000
    8      C       1.0164490000    -3.4130620000    -1.2103320000
    9      C      -0.6968790000    -2.4264730000     0.8307990000
   10      C       0.8390390000    -2.0593480000    -0.9998560000
   11      C       0.0000000000    -1.4782160000     0.0000000000
   12      H       1.4037370000    -1.3947830000    -1.6734830000
   13      C       1.4618350000    -6.1879870000    -1.7362820000
   14      C       1.9361190000    -3.7981640000    -2.3061830000
   15      N       2.0939160000    -5.1700030000    -2.4915970000
   16      C      -2.1045290000    -4.4249870000     2.5103100000
   17      C      -1.6253770000    -2.0366270000     1.9361530000
   18      N      -2.2578730000    -3.0491560000     2.6914510000
   19      O       1.7155610000    -7.3531310000    -2.0342220000
   20      O       2.5288580000    -2.9868540000    -3.0140440000
   21      O      -2.6903850000    -5.2489460000     3.2096220000
   22      O      -1.8918760000    -0.8788290000     2.2515290000
   23      C       3.0027110000    -5.5637990000    -3.5730320000
   24      H       3.0326550000    -6.6640850000    -3.6069320000
   25      H       4.0103260000    -5.1471010000    -3.3828880000
   26      H       2.6407110000    -5.1487850000    -4.5331250000
   27      C      -3.1524080000    -2.5874870000     3.7568320000
   28      H      -3.5646530000    -3.4833290000     4.2497780000
   29      H      -3.9609050000    -1.9649720000     3.3287590000
   30      H      -2.5914220000    -1.9629320000     4.4777090000
   31      H      -0.0442450000    -7.8223180000     0.0555240000
   32      C       0.0000000000     0.0000000000     0.0000000000
   33      S       0.0689290000     0.7901700000     1.5805300000
   34      C       0.2116390000     2.4216550000     0.9049110000
   35      C       0.0868130000     0.9942070000    -0.9854000000
   36      C       0.2017820000     2.3094330000    -0.4935280000
   37      H       0.0662990000     0.7594540000    -2.0599340000
   38      H       0.2784880000     3.1870200000    -1.1525930000
   39      H       0.2883120000     3.2989920000     1.5560250000
 ----------------------------------------------------------------

   10   -1570.6822275742      7.38e-07  Convergence criterion met
 Total energy in the final basis set =    -1570.6822275742
        RIMP2         total energy =     -1575.3114977896 a.u.

                    Orbital Energies (a.u.)
 --------------------------------------------------------------

 Alpha MOs
 -- Occupied --
-91.9847 -20.5588 -20.5567 -20.5544 -20.5538 -15.6315 -15.6304 -11.4003
-11.3962 -11.3920 -11.3910 -11.3181 -11.3032 -11.3027 -11.3010 -11.2975
-11.2966 -11.2909 -11.2868 -11.2852 -11.2822 -11.2801 -11.2784 -11.2648
-11.2644 -11.2597 -11.2466  -8.9843  -6.6649  -6.6643  -6.6638  -1.4252
 -1.4245  -1.4045  -1.4035  -1.2677  -1.2653  -1.2174  -1.1737  -1.1437
 -1.1173  -1.0627  -1.0499  -0.9930  -0.9886  -0.9823  -0.9591  -0.9478
 -0.8968  -0.8797  -0.8778  -0.8617  -0.7945  -0.7772  -0.7741  -0.7611
 -0.7331  -0.7188  -0.7044  -0.6942  -0.6833  -0.6741  -0.6665  -0.6623
 -0.6568  -0.6411  -0.6374  -0.6340  -0.6288  -0.6134  -0.5843  -0.5834
 -0.5791  -0.5709  -0.5672  -0.5662  -0.5642  -0.5556  -0.5541  -0.5485
 -0.5333  -0.5240  -0.5210  -0.5183  -0.4844  -0.4724  -0.4643  -0.4612
 -0.4577  -0.4461  -0.4278  -0.4179  -0.4092  -0.3690  -0.3434  -0.3366
 -0.3045

          Ground-State Mulliken Net Atomic Charges

     Atom                 Charge (a.u.)
  ----------------------------------------
      1 C                    -0.138494
      2 C                    -0.108651
      3 C                    -0.038355
      4 C                    -0.004562
      5 H                     0.188771
      6 C                     0.001852
      7 C                     0.078214
      8 C                    -0.000207
      9 C                    -0.063338
     10 C                    -0.137698
     11 C                     0.102584
     12 H                     0.184815
     13 C                     0.360405
     14 C                     0.366648
     15 N                    -0.101600
     16 C                     0.359794
     17 C                     0.366370
     18 N                    -0.095475
     19 O                    -0.464354
     20 O                    -0.476619
     21 O                    -0.481629
     22 O                    -0.463487
     23 C                    -0.201026
     24 H                     0.141176
     25 H                     0.112479
     26 H                     0.112239
     27 C                    -0.196420
     28 H                     0.133854
     29 H                     0.113114
     30 H                     0.112945
     31 H                     0.213623
     32 C                    -0.042948
     33 S                     0.073129
     34 C                    -0.207360
     35 C                    -0.175230
     36 C                    -0.217939
     37 H                     0.192802
     38 H                     0.189356
     39 H                     0.211225
  ----------------------------------------
  Sum of atomic charges =     0.000000

                    Cartesian Multipole Moments
 -----------------------------------------------------------------
    Charge (ESU x 10^10)
                 0.0000
    Dipole Moment (Debye)
         X       0.0062      Y       1.2415      Z      -0.6224
       Tot       1.3888
    Quadrupole Moments (Debye-Ang)
        XX    -172.4879     XY       1.1173     YY    -166.7561
        XZ       9.7470     YZ       0.6160     ZZ    -168.9440

 Total job time:  247.22s(wall), 7634.00s(cpu)
        *  Thank you very much for using Q-Chem.  Have a nice day.  *
