 Q-Chem 5.4, Q-Chem, Inc., Pleasanton, CA (2021)
 Q-Chem 5.4.0 for Intel X86 EM64T Linux

User input:
--------------------------------------------------------------
$molecule
0 1
C	-0.240927	-6.741404	0.089263
C	-1.467886	-6.155638	0.535973
C	0.777972	-5.791452	-0.281103
C	-1.729742	-4.803786	0.631036
H	-2.292903	-6.821518	0.836458
C	0.503614	-4.378638	-0.181995
C	-0.746756	-3.838032	0.272725
C	1.485437	-3.413062	-0.539954
C	-1.018915	-2.426473	0.371053
C	1.226557	-2.059348	-0.446381
C	-0.000000	-1.478216	-0.000000
H	2.052413	-1.394783	-0.747410
C	2.134128	-6.187987	-0.772747
C	2.829820	-3.798164	-1.029154
N	3.059182	-5.170003	-1.110828
C	-3.077731	-4.424987	1.121728
C	-2.375694	-2.036627	0.864069
N	-3.301101	-3.049156	1.201928
O	2.502830	-7.353131	-0.903908
O	3.697078	-2.986854	-1.345809
O	-3.934752	-5.248946	1.434422
O	-2.764177	-0.878829	1.003943
C	4.386939	-5.563799	-1.592981
H	4.429822	-6.664085	-1.607367
H	5.164489	-5.147101	-0.924504
H	4.553486	-5.148785	-2.605446
C	-4.608481	-2.587487	1.677308
H	-5.211969	-3.483329	1.898089
H	-5.094624	-1.964972	0.902337
H	-4.483092	-1.962932	2.582098
H	-0.066080	-7.822318	0.025963
C	0.000000	0.000000	0.000000
S	0.396411	0.687007	1.580530
C	1.215245	2.105322	0.904911
C	0.498850	0.864369	-0.985400
C	1.158885	2.007781	-0.493528
H	0.381046	0.660280	-2.059934
H	1.599289	2.770727	-1.152593
H	1.655514	2.868056	1.556025
$end

$rem
JOBTYPE		SP
EXCHANGE	HF
CORRELATION	pRIMP2
BASIS		cc-pvtz
METHOD		rimp2
AUX_BASIS	rimp2-cc-pvtz
SOLVENT_METHOD	PCM
PURECART	11111
SYMMETRY	false
MEM_TOTAL	110000
SCF_CONVERGENCE = 6
THRESH=10
GUI = 2
$end

$solvent
dielectric 4.90
$end
--------------------------------------------------------------

             Standard Nuclear Orientation (Angstroms)
    I     Atom           X                Y                Z
 ----------------------------------------------------------------
    1      C      -0.2409270000    -6.7414040000     0.0892630000
    2      C      -1.4678860000    -6.1556380000     0.5359730000
    3      C       0.7779720000    -5.7914520000    -0.2811030000
    4      C      -1.7297420000    -4.8037860000     0.6310360000
    5      H      -2.2929030000    -6.8215180000     0.8364580000
    6      C       0.5036140000    -4.3786380000    -0.1819950000
    7      C      -0.7467560000    -3.8380320000     0.2727250000
    8      C       1.4854370000    -3.4130620000    -0.5399540000
    9      C      -1.0189150000    -2.4264730000     0.3710530000
   10      C       1.2265570000    -2.0593480000    -0.4463810000
   11      C       0.0000000000    -1.4782160000     0.0000000000
   12      H       2.0524130000    -1.3947830000    -0.7474100000
   13      C       2.1341280000    -6.1879870000    -0.7727470000
   14      C       2.8298200000    -3.7981640000    -1.0291540000
   15      N       3.0591820000    -5.1700030000    -1.1108280000
   16      C      -3.0777310000    -4.4249870000     1.1217280000
   17      C      -2.3756940000    -2.0366270000     0.8640690000
   18      N      -3.3011010000    -3.0491560000     1.2019280000
   19      O       2.5028300000    -7.3531310000    -0.9039080000
   20      O       3.6970780000    -2.9868540000    -1.3458090000
   21      O      -3.9347520000    -5.2489460000     1.4344220000
   22      O      -2.7641770000    -0.8788290000     1.0039430000
   23      C       4.3869390000    -5.5637990000    -1.5929810000
   24      H       4.4298220000    -6.6640850000    -1.6073670000
   25      H       5.1644890000    -5.1471010000    -0.9245040000
   26      H       4.5534860000    -5.1487850000    -2.6054460000
   27      C      -4.6084810000    -2.5874870000     1.6773080000
   28      H      -5.2119690000    -3.4833290000     1.8980890000
   29      H      -5.0946240000    -1.9649720000     0.9023370000
   30      H      -4.4830920000    -1.9629320000     2.5820980000
   31      H      -0.0660800000    -7.8223180000     0.0259630000
   32      C       0.0000000000     0.0000000000     0.0000000000
   33      S       0.3964110000     0.6870070000     1.5805300000
   34      C       1.2152450000     2.1053220000     0.9049110000
   35      C       0.4988500000     0.8643690000    -0.9854000000
   36      C       1.1588850000     2.0077810000    -0.4935280000
   37      H       0.3810460000     0.6602800000    -2.0599340000
   38      H       1.5992890000     2.7707270000    -1.1525930000
   39      H       1.6555140000     2.8680560000     1.5560250000
 ----------------------------------------------------------------

   10   -1570.6789310882      7.83e-07  Convergence criterion met
 Total energy in the final basis set =    -1570.6789310882
        RIMP2         total energy =     -1575.3060766346 a.u.

                    Orbital Energies (a.u.)
 --------------------------------------------------------------

 Alpha MOs
 -- Occupied --
-91.9928 -20.5586 -20.5568 -20.5563 -20.5551 -15.6314 -15.6308 -11.4002
-11.3967 -11.3926 -11.3907 -11.3162 -11.3042 -11.3027 -11.3003 -11.2983
-11.2979 -11.2897 -11.2865 -11.2861 -11.2858 -11.2802 -11.2779 -11.2647
-11.2644 -11.2592 -11.2519  -8.9921  -6.6729  -6.6723  -6.6718  -1.4250
 -1.4241  -1.4043  -1.4032  -1.2676  -1.2652  -1.2178  -1.1784  -1.1437
 -1.1174  -1.0631  -1.0498  -0.9930  -0.9907  -0.9859  -0.9591  -0.9477
 -0.8973  -0.8792  -0.8773  -0.8601  -0.7952  -0.7770  -0.7735  -0.7626
 -0.7352  -0.7187  -0.7059  -0.6947  -0.6819  -0.6742  -0.6664  -0.6623
 -0.6570  -0.6419  -0.6377  -0.6338  -0.6296  -0.6129  -0.5850  -0.5847
 -0.5779  -0.5745  -0.5671  -0.5642  -0.5635  -0.5553  -0.5532  -0.5484
 -0.5330  -0.5264  -0.5216  -0.5133  -0.4835  -0.4726  -0.4670  -0.4608
 -0.4591  -0.4535  -0.4282  -0.4182  -0.4086  -0.3627  -0.3479  -0.3359
 -0.3184

          Ground-State Mulliken Net Atomic Charges

     Atom                 Charge (a.u.)
  ----------------------------------------
      1 C                    -0.132781
      2 C                    -0.109604
      3 C                    -0.040933
      4 C                     0.001945
      5 H                     0.188799
      6 C                     0.000499
      7 C                     0.072962
      8 C                    -0.001646
      9 C                    -0.022808
     10 C                    -0.098567
     11 C                     0.019917
     12 H                     0.188635
     13 C                     0.360067
     14 C                     0.364024
     15 N                    -0.101591
     16 C                     0.358757
     17 C                     0.353733
     18 N                    -0.097555
     19 O                    -0.464898
     20 O                    -0.476779
     21 O                    -0.480103
     22 O                    -0.460374
     23 C                    -0.201220
     24 H                     0.141100
     25 H                     0.112549
     26 H                     0.112231
     27 C                    -0.196205
     28 H                     0.133535
     29 H                     0.113336
     30 H                     0.113283
     31 H                     0.214165
     32 C                     0.011612
     33 S                     0.041176
     34 C                    -0.204915
     35 C                    -0.231901
     36 C                    -0.179324
     37 H                     0.192637
     38 H                     0.193860
     39 H                     0.212381
  ----------------------------------------
  Sum of atomic charges =     0.000000

                    Cartesian Multipole Moments
 -----------------------------------------------------------------
    Charge (ESU x 10^10)
                 0.0000
    Dipole Moment (Debye)
         X       1.1793      Y       0.9749      Z      -0.8966
       Tot       1.7734
    Quadrupole Moments (Debye-Ang)
        XX    -179.3619     XY       6.0077     YY    -167.6249
        XZ       6.9836     YZ       0.4333     ZZ    -159.6753

 Total job time:  259.36s(wall), 8427.92s(cpu)
        *  Thank you very much for using Q-Chem.  Have a nice day.  *
