 Q-Chem 5.4, Q-Chem, Inc., Pleasanton, CA (2021)
 Q-Chem 5.4.0 for Intel X86 EM64T Linux

User input:
--------------------------------------------------------------
$molecule
0 1
C	-0.240927	-6.741404	0.089263
C	-1.467886	-6.155638	0.535973
C	0.777972	-5.791452	-0.281103
C	-1.729742	-4.803786	0.631036
H	-2.292903	-6.821518	0.836458
C	0.503614	-4.378638	-0.181995
C	-0.746756	-3.838032	0.272725
C	1.485437	-3.413062	-0.539954
C	-1.018915	-2.426473	0.371053
C	1.226557	-2.059348	-0.446381
C	-0.000000	-1.478216	-0.000000
H	2.052413	-1.394783	-0.747410
C	2.134128	-6.187987	-0.772747
C	2.829820	-3.798164	-1.029154
N	3.059182	-5.170003	-1.110828
C	-3.077731	-4.424987	1.121728
C	-2.375694	-2.036627	0.864069
N	-3.301101	-3.049156	1.201928
O	2.502830	-7.353131	-0.903908
O	3.697078	-2.986854	-1.345809
O	-3.934752	-5.248946	1.434422
O	-2.764177	-0.878829	1.003943
C	4.386939	-5.563799	-1.592981
H	4.429822	-6.664085	-1.607367
H	5.164489	-5.147101	-0.924504
H	4.553486	-5.148785	-2.605446
C	-4.608481	-2.587487	1.677308
H	-5.211969	-3.483329	1.898089
H	-5.094624	-1.964972	0.902337
H	-4.483092	-1.962932	2.582098
H	-0.066080	-7.822318	0.025963
C	0.000000	0.000000	0.000000
S	0.686805	0.396760	1.580530
C	2.105095	1.215640	0.904911
C	0.864201	0.499140	-0.985400
C	2.007514	1.159347	-0.493528
H	0.660136	0.381296	-2.059934
H	2.770388	1.599875	-1.152593
H	2.867745	1.656053	1.556025
$end

$rem
JOBTYPE		SP
EXCHANGE	HF
CORRELATION	pRIMP2
BASIS		cc-pvtz
METHOD		rimp2
AUX_BASIS	rimp2-cc-pvtz
SOLVENT_METHOD	PCM
PURECART	11111
SYMMETRY	false
MEM_TOTAL	110000
SCF_CONVERGENCE = 6
THRESH=10
GUI = 2
$end

$solvent
dielectric 4.90
$end
--------------------------------------------------------------

             Standard Nuclear Orientation (Angstroms)
    I     Atom           X                Y                Z
 ----------------------------------------------------------------
    1      C      -0.2409270000    -6.7414040000     0.0892630000
    2      C      -1.4678860000    -6.1556380000     0.5359730000
    3      C       0.7779720000    -5.7914520000    -0.2811030000
    4      C      -1.7297420000    -4.8037860000     0.6310360000
    5      H      -2.2929030000    -6.8215180000     0.8364580000
    6      C       0.5036140000    -4.3786380000    -0.1819950000
    7      C      -0.7467560000    -3.8380320000     0.2727250000
    8      C       1.4854370000    -3.4130620000    -0.5399540000
    9      C      -1.0189150000    -2.4264730000     0.3710530000
   10      C       1.2265570000    -2.0593480000    -0.4463810000
   11      C       0.0000000000    -1.4782160000     0.0000000000
   12      H       2.0524130000    -1.3947830000    -0.7474100000
   13      C       2.1341280000    -6.1879870000    -0.7727470000
   14      C       2.8298200000    -3.7981640000    -1.0291540000
   15      N       3.0591820000    -5.1700030000    -1.1108280000
   16      C      -3.0777310000    -4.4249870000     1.1217280000
   17      C      -2.3756940000    -2.0366270000     0.8640690000
   18      N      -3.3011010000    -3.0491560000     1.2019280000
   19      O       2.5028300000    -7.3531310000    -0.9039080000
   20      O       3.6970780000    -2.9868540000    -1.3458090000
   21      O      -3.9347520000    -5.2489460000     1.4344220000
   22      O      -2.7641770000    -0.8788290000     1.0039430000
   23      C       4.3869390000    -5.5637990000    -1.5929810000
   24      H       4.4298220000    -6.6640850000    -1.6073670000
   25      H       5.1644890000    -5.1471010000    -0.9245040000
   26      H       4.5534860000    -5.1487850000    -2.6054460000
   27      C      -4.6084810000    -2.5874870000     1.6773080000
   28      H      -5.2119690000    -3.4833290000     1.8980890000
   29      H      -5.0946240000    -1.9649720000     0.9023370000
   30      H      -4.4830920000    -1.9629320000     2.5820980000
   31      H      -0.0660800000    -7.8223180000     0.0259630000
   32      C       0.0000000000     0.0000000000     0.0000000000
   33      S       0.6868050000     0.3967600000     1.5805300000
   34      C       2.1050950000     1.2156400000     0.9049110000
   35      C       0.8642010000     0.4991400000    -0.9854000000
   36      C       2.0075140000     1.1593470000    -0.4935280000
   37      H       0.6601360000     0.3812960000    -2.0599340000
   38      H       2.7703880000     1.5998750000    -1.1525930000
   39      H       2.8677450000     1.6560530000     1.5560250000
 ----------------------------------------------------------------

   11   -1570.6299072170      5.04e-07  Convergence criterion met
 Total energy in the final basis set =    -1570.6299072170
        RIMP2         total energy =     -1575.2690947489 a.u.

                    Orbital Energies (a.u.)
 --------------------------------------------------------------

 Alpha MOs
 -- Occupied --
-91.9981 -20.5578 -20.5556 -20.5524 -20.5523 -15.6305 -15.6279 -11.3990
-11.3923 -11.3899 -11.3897 -11.3152 -11.3077 -11.3004 -11.2968 -11.2936
-11.2934 -11.2929 -11.2829 -11.2821 -11.2774 -11.2746 -11.2717 -11.2699
-11.2644 -11.2628 -11.2569  -8.9977  -6.6784  -6.6777  -6.6773  -1.4242
 -1.4208  -1.4035  -1.3999  -1.2662  -1.2626  -1.2178  -1.1911  -1.1402
 -1.1139  -1.0621  -1.0466  -0.9965  -0.9941  -0.9907  -0.9574  -0.9452
 -0.8947  -0.8767  -0.8730  -0.8564  -0.7941  -0.7764  -0.7740  -0.7664
 -0.7352  -0.7174  -0.7064  -0.6927  -0.6821  -0.6741  -0.6649  -0.6604
 -0.6550  -0.6426  -0.6357  -0.6315  -0.6266  -0.6116  -0.5897  -0.5847
 -0.5789  -0.5760  -0.5670  -0.5629  -0.5618  -0.5544  -0.5521  -0.5468
 -0.5361  -0.5264  -0.5165  -0.4986  -0.4816  -0.4775  -0.4648  -0.4591
 -0.4556  -0.4512  -0.4260  -0.4168  -0.4064  -0.3726  -0.3419  -0.3349
 -0.3161

          Ground-State Mulliken Net Atomic Charges

     Atom                 Charge (a.u.)
  ----------------------------------------
      1 C                    -0.143304
      2 C                    -0.110805
      3 C                    -0.032031
      4 C                     0.001158
      5 H                     0.187611
      6 C                    -0.011965
      7 C                     0.073908
      8 C                     0.012339
      9 C                    -0.051699
     10 C                    -0.178468
     11 C                     0.087276
     12 H                     0.186343
     13 C                     0.358553
     14 C                     0.360114
     15 N                    -0.100778
     16 C                     0.356194
     17 C                     0.363239
     18 N                    -0.095620
     19 O                    -0.465527
     20 O                    -0.480249
     21 O                    -0.483413
     22 O                    -0.463547
     23 C                    -0.201689
     24 H                     0.141116
     25 H                     0.111998
     26 H                     0.111813
     27 C                    -0.197915
     28 H                     0.132877
     29 H                     0.112702
     30 H                     0.112506
     31 H                     0.212439
     32 C                    -0.130465
     33 S                     0.061053
     34 C                    -0.136960
     35 C                    -0.074437
     36 C                    -0.240094
     37 H                     0.199927
     38 H                     0.197455
     39 H                     0.218343
  ----------------------------------------
  Sum of atomic charges =     0.000000

                    Cartesian Multipole Moments
 -----------------------------------------------------------------
    Charge (ESU x 10^10)
                 0.0000
    Dipole Moment (Debye)
         X       3.2212      Y       1.6898      Z      -0.8600
       Tot       3.7379
    Quadrupole Moments (Debye-Ang)
        XX    -173.5758     XY       6.2435     YY    -178.1935
        XZ       8.2959     YZ       0.6193     ZZ    -158.8730

 Total job time:  274.38s(wall), 8361.27s(cpu)
        *  Thank you very much for using Q-Chem.  Have a nice day.  *
