 Q-Chem 5.4, Q-Chem, Inc., Pleasanton, CA (2021)
 Q-Chem 5.4.0 for Intel X86 EM64T Linux

User input:
--------------------------------------------------------------
$molecule
0 1
C	0.252767	-6.741404	-0.046070
C	1.538656	-6.155638	-0.272935
C	-0.814966	-5.791452	0.141739
C	1.813042	-4.803786	-0.321083
H	2.403318	-6.821518	-0.425592
C	-0.527566	-4.378638	0.091779
C	0.782769	-3.838032	-0.138909
C	-1.556632	-3.413062	0.273808
C	1.067868	-2.426473	-0.188483
C	-1.285436	-2.059348	0.226610
C	-0.000000	-1.478216	-0.000000
H	-2.151019	-1.394783	0.379657
C	-2.235891	-6.187987	0.390420
C	-2.965540	-3.798164	0.522125
N	-3.205600	-5.170003	0.562731
C	3.225760	-4.424987	-0.570244
C	2.489646	-2.036627	-0.438407
N	3.459662	-3.049156	-0.610438
O	-2.621768	-7.353131	0.455563
O	-3.874608	-2.986854	0.683373
O	4.124059	-5.248946	-0.729367
O	2.896516	-0.878829	-0.508697
C	-4.596910	-5.563799	0.806996
H	-4.641640	-6.664085	0.813717
H	-5.246567	-5.147101	0.013655
H	-4.936739	-5.148785	1.775159
C	4.829729	-2.587487	-0.851572
H	5.462387	-3.483329	-0.964204
H	5.173914	-1.964972	-0.003956
H	4.863360	-1.962932	-1.764390
H	0.069584	-7.822318	-0.014094
C	0.000000	0.000000	0.000000
S	0.396411	0.687007	1.580530
C	1.215245	2.105322	0.904911
C	0.498850	0.864369	-0.985400
C	1.158885	2.007781	-0.493528
H	0.381046	0.660280	-2.059934
H	1.599289	2.770727	-1.152593
H	1.655514	2.868056	1.556025
$end

$rem
JOBTYPE		SP
EXCHANGE	HF
CORRELATION	pRIMP2
BASIS		cc-pvtz
METHOD		rimp2
AUX_BASIS	rimp2-cc-pvtz
SOLVENT_METHOD	PCM
PURECART	11111
SYMMETRY	false
MEM_TOTAL	110000
SCF_CONVERGENCE = 6
THRESH=10
GUI = 2
$end

$solvent
dielectric 4.90
$end
--------------------------------------------------------------

             Standard Nuclear Orientation (Angstroms)
    I     Atom           X                Y                Z
 ----------------------------------------------------------------
    1      C       0.2527670000    -6.7414040000    -0.0460700000
    2      C       1.5386560000    -6.1556380000    -0.2729350000
    3      C      -0.8149660000    -5.7914520000     0.1417390000
    4      C       1.8130420000    -4.8037860000    -0.3210830000
    5      H       2.4033180000    -6.8215180000    -0.4255920000
    6      C      -0.5275660000    -4.3786380000     0.0917790000
    7      C       0.7827690000    -3.8380320000    -0.1389090000
    8      C      -1.5566320000    -3.4130620000     0.2738080000
    9      C       1.0678680000    -2.4264730000    -0.1884830000
   10      C      -1.2854360000    -2.0593480000     0.2266100000
   11      C       0.0000000000    -1.4782160000     0.0000000000
   12      H      -2.1510190000    -1.3947830000     0.3796570000
   13      C      -2.2358910000    -6.1879870000     0.3904200000
   14      C      -2.9655400000    -3.7981640000     0.5221250000
   15      N      -3.2056000000    -5.1700030000     0.5627310000
   16      C       3.2257600000    -4.4249870000    -0.5702440000
   17      C       2.4896460000    -2.0366270000    -0.4384070000
   18      N       3.4596620000    -3.0491560000    -0.6104380000
   19      O      -2.6217680000    -7.3531310000     0.4555630000
   20      O      -3.8746080000    -2.9868540000     0.6833730000
   21      O       4.1240590000    -5.2489460000    -0.7293670000
   22      O       2.8965160000    -0.8788290000    -0.5086970000
   23      C      -4.5969100000    -5.5637990000     0.8069960000
   24      H      -4.6416400000    -6.6640850000     0.8137170000
   25      H      -5.2465670000    -5.1471010000     0.0136550000
   26      H      -4.9367390000    -5.1487850000     1.7751590000
   27      C       4.8297290000    -2.5874870000    -0.8515720000
   28      H       5.4623870000    -3.4833290000    -0.9642040000
   29      H       5.1739140000    -1.9649720000    -0.0039560000
   30      H       4.8633600000    -1.9629320000    -1.7643900000
   31      H       0.0695840000    -7.8223180000    -0.0140940000
   32      C       0.0000000000     0.0000000000     0.0000000000
   33      S       0.3964110000     0.6870070000     1.5805300000
   34      C       1.2152450000     2.1053220000     0.9049110000
   35      C       0.4988500000     0.8643690000    -0.9854000000
   36      C       1.1588850000     2.0077810000    -0.4935280000
   37      H       0.3810460000     0.6602800000    -2.0599340000
   38      H       1.5992890000     2.7707270000    -1.1525930000
   39      H       1.6555140000     2.8680560000     1.5560250000
 ----------------------------------------------------------------

   10   -1570.6729885717      8.43e-07  Convergence criterion met
 Total energy in the final basis set =    -1570.6729885717
        RIMP2         total energy =     -1575.3017100049 a.u.

                    Orbital Energies (a.u.)
 --------------------------------------------------------------

 Alpha MOs
 -- Occupied --
-91.9909 -20.5582 -20.5556 -20.5548 -20.5546 -15.6307 -15.6302 -11.3998
-11.3951 -11.3923 -11.3897 -11.3133 -11.3046 -11.3025 -11.3003 -11.2980
-11.2979 -11.2870 -11.2861 -11.2844 -11.2802 -11.2799 -11.2748 -11.2645
-11.2643 -11.2591 -11.2487  -8.9903  -6.6711  -6.6705  -6.6700  -1.4244
 -1.4232  -1.4037  -1.4023  -1.2670  -1.2646  -1.2168  -1.1746  -1.1432
 -1.1167  -1.0617  -1.0491  -0.9926  -0.9884  -0.9832  -0.9588  -0.9483
 -0.8963  -0.8792  -0.8752  -0.8607  -0.7936  -0.7763  -0.7725  -0.7593
 -0.7365  -0.7180  -0.7049  -0.6947  -0.6796  -0.6713  -0.6659  -0.6618
 -0.6564  -0.6422  -0.6368  -0.6338  -0.6291  -0.6118  -0.5851  -0.5839
 -0.5766  -0.5738  -0.5657  -0.5636  -0.5599  -0.5548  -0.5521  -0.5483
 -0.5358  -0.5264  -0.5199  -0.5091  -0.4821  -0.4704  -0.4646  -0.4597
 -0.4570  -0.4516  -0.4275  -0.4177  -0.4083  -0.3563  -0.3471  -0.3325
 -0.3223

          Ground-State Mulliken Net Atomic Charges

     Atom                 Charge (a.u.)
  ----------------------------------------
      1 C                    -0.132197
      2 C                    -0.107741
      3 C                    -0.043377
      4 C                    -0.001127
      5 H                     0.188400
      6 C                    -0.009931
      7 C                     0.070347
      8 C                     0.022828
      9 C                     0.007226
     10 C                    -0.163133
     11 C                     0.079097
     12 H                     0.180298
     13 C                     0.361138
     14 C                     0.366538
     15 N                    -0.101478
     16 C                     0.358111
     17 C                     0.364977
     18 N                    -0.094362
     19 O                    -0.465122
     20 O                    -0.476204
     21 O                    -0.480908
     22 O                    -0.456861
     23 C                    -0.201146
     24 H                     0.140941
     25 H                     0.112264
     26 H                     0.112405
     27 C                    -0.196731
     28 H                     0.133709
     29 H                     0.113255
     30 H                     0.112053
     31 H                     0.214193
     32 C                    -0.074388
     33 S                     0.029791
     34 C                    -0.197928
     35 C                    -0.171850
     36 C                    -0.180909
     37 H                     0.186183
     38 H                     0.189188
     39 H                     0.212451
  ----------------------------------------
  Sum of atomic charges =     0.000000

                    Cartesian Multipole Moments
 -----------------------------------------------------------------
    Charge (ESU x 10^10)
                 0.0000
    Dipole Moment (Debye)
         X       1.4151      Y       1.1582      Z      -1.0371
       Tot       2.1022
    Quadrupole Moments (Debye-Ang)
        XX    -181.2080     XY       4.3384     YY    -168.1245
        XZ       3.9173     YZ       0.8131     ZZ    -158.0303

 Total job time:  254.34s(wall), 7898.37s(cpu)
        *  Thank you very much for using Q-Chem.  Have a nice day.  *
