 Q-Chem 5.4, Q-Chem, Inc., Pleasanton, CA (2021)
 Q-Chem 5.4.0 for Intel X86 EM64T Linux

User input:
--------------------------------------------------------------
$molecule
0 1
C	0.164018	-6.741404	-0.197767
C	1.003240	-6.155638	-1.198109
C	-0.533192	-5.791452	0.632428
C	1.182482	-4.803786	-1.411364
H	1.567483	-6.821518	-1.870845
C	-0.345145	-4.378638	0.409419
C	0.510347	-3.838032	-0.609565
C	-1.016449	-3.413062	1.210332
C	0.696879	-2.426473	-0.830799
C	-0.839039	-2.059348	0.999856
C	-0.000000	-1.478216	-0.000000
H	-1.403737	-1.394783	1.673483
C	-1.461835	-6.187987	1.736282
C	-1.936119	-3.798164	2.306183
N	-2.093916	-5.170003	2.491597
C	2.104529	-4.424987	-2.510310
C	1.625377	-2.036627	-1.936153
N	2.257873	-3.049156	-2.691451
O	-1.715561	-7.353131	2.034222
O	-2.528858	-2.986854	3.014044
O	2.690385	-5.248946	-3.209622
O	1.891876	-0.878829	-2.251529
C	-3.002711	-5.563799	3.573032
H	-3.032655	-6.664085	3.606932
H	-4.010326	-5.147101	3.382888
H	-2.640711	-5.148785	4.533125
C	3.152408	-2.587487	-3.756832
H	3.564653	-3.483329	-4.249778
H	3.960905	-1.964972	-3.328759
H	2.591422	-1.962932	-4.477709
H	0.044245	-7.822318	-0.055524
C	0.000000	0.000000	0.000000
S	0.686805	0.396760	1.580530
C	2.105095	1.215640	0.904911
C	0.864201	0.499140	-0.985400
C	2.007514	1.159347	-0.493528
H	0.660136	0.381296	-2.059934
H	2.770388	1.599875	-1.152593
H	2.867745	1.656053	1.556025
$end

$rem
JOBTYPE		SP
EXCHANGE	HF
CORRELATION	pRIMP2
BASIS		cc-pvtz
METHOD		rimp2
AUX_BASIS	rimp2-cc-pvtz
SOLVENT_METHOD	PCM
PURECART	11111
SYMMETRY	false
MEM_TOTAL	110000
SCF_CONVERGENCE = 6
THRESH=10
GUI = 2
$end

$solvent
dielectric 4.90
$end
--------------------------------------------------------------

             Standard Nuclear Orientation (Angstroms)
    I     Atom           X                Y                Z
 ----------------------------------------------------------------
    1      C       0.1640180000    -6.7414040000    -0.1977670000
    2      C       1.0032400000    -6.1556380000    -1.1981090000
    3      C      -0.5331920000    -5.7914520000     0.6324280000
    4      C       1.1824820000    -4.8037860000    -1.4113640000
    5      H       1.5674830000    -6.8215180000    -1.8708450000
    6      C      -0.3451450000    -4.3786380000     0.4094190000
    7      C       0.5103470000    -3.8380320000    -0.6095650000
    8      C      -1.0164490000    -3.4130620000     1.2103320000
    9      C       0.6968790000    -2.4264730000    -0.8307990000
   10      C      -0.8390390000    -2.0593480000     0.9998560000
   11      C       0.0000000000    -1.4782160000     0.0000000000
   12      H      -1.4037370000    -1.3947830000     1.6734830000
   13      C      -1.4618350000    -6.1879870000     1.7362820000
   14      C      -1.9361190000    -3.7981640000     2.3061830000
   15      N      -2.0939160000    -5.1700030000     2.4915970000
   16      C       2.1045290000    -4.4249870000    -2.5103100000
   17      C       1.6253770000    -2.0366270000    -1.9361530000
   18      N       2.2578730000    -3.0491560000    -2.6914510000
   19      O      -1.7155610000    -7.3531310000     2.0342220000
   20      O      -2.5288580000    -2.9868540000     3.0140440000
   21      O       2.6903850000    -5.2489460000    -3.2096220000
   22      O       1.8918760000    -0.8788290000    -2.2515290000
   23      C      -3.0027110000    -5.5637990000     3.5730320000
   24      H      -3.0326550000    -6.6640850000     3.6069320000
   25      H      -4.0103260000    -5.1471010000     3.3828880000
   26      H      -2.6407110000    -5.1487850000     4.5331250000
   27      C       3.1524080000    -2.5874870000    -3.7568320000
   28      H       3.5646530000    -3.4833290000    -4.2497780000
   29      H       3.9609050000    -1.9649720000    -3.3287590000
   30      H       2.5914220000    -1.9629320000    -4.4777090000
   31      H       0.0442450000    -7.8223180000    -0.0555240000
   32      C       0.0000000000     0.0000000000     0.0000000000
   33      S       0.6868050000     0.3967600000     1.5805300000
   34      C       2.1050950000     1.2156400000     0.9049110000
   35      C       0.8642010000     0.4991400000    -0.9854000000
   36      C       2.0075140000     1.1593470000    -0.4935280000
   37      H       0.6601360000     0.3812960000    -2.0599340000
   38      H       2.7703880000     1.5998750000    -1.1525930000
   39      H       2.8677450000     1.6560530000     1.5560250000
 ----------------------------------------------------------------

   11   -1570.5976899018      5.34e-07  Convergence criterion met
 Total energy in the final basis set =    -1570.5976899018
        RIMP2         total energy =     -1575.2354986621 a.u.

                    Orbital Energies (a.u.)
 --------------------------------------------------------------

 Alpha MOs
 -- Occupied --
-91.9853 -20.5573 -20.5545 -20.5542 -20.5530 -15.6316 -15.6295 -11.3999
-11.3982 -11.3905 -11.3885 -11.3188 -11.3089 -11.2997 -11.2970 -11.2891
-11.2881 -11.2867 -11.2833 -11.2793 -11.2788 -11.2760 -11.2708 -11.2659
-11.2634 -11.2534 -11.2488  -8.9860  -6.6668  -6.6661  -6.6655  -1.4317
 -1.4232  -1.4064  -1.4025  -1.2687  -1.2647  -1.2154  -1.1855  -1.1403
 -1.1125  -1.0604  -1.0457  -0.9974  -0.9913  -0.9887  -0.9580  -0.9466
 -0.8954  -0.8775  -0.8710  -0.8599  -0.7941  -0.7769  -0.7737  -0.7668
 -0.7369  -0.7307  -0.7020  -0.6911  -0.6797  -0.6716  -0.6670  -0.6618
 -0.6540  -0.6402  -0.6358  -0.6338  -0.6251  -0.6108  -0.5944  -0.5884
 -0.5802  -0.5739  -0.5640  -0.5615  -0.5566  -0.5550  -0.5523  -0.5467
 -0.5356  -0.5220  -0.5177  -0.5067  -0.4812  -0.4694  -0.4677  -0.4608
 -0.4539  -0.4423  -0.4283  -0.4179  -0.4065  -0.3745  -0.3358  -0.3331
 -0.3006

          Ground-State Mulliken Net Atomic Charges

     Atom                 Charge (a.u.)
  ----------------------------------------
      1 C                    -0.162279
      2 C                    -0.109139
      3 C                    -0.024505
      4 C                    -0.007752
      5 H                     0.186416
      6 C                    -0.016263
      7 C                     0.087014
      8 C                     0.000428
      9 C                    -0.105947
     10 C                    -0.150029
     11 C                     0.106097
     12 H                     0.172938
     13 C                     0.360213
     14 C                     0.364803
     15 N                    -0.101269
     16 C                     0.357451
     17 C                     0.404082
     18 N                    -0.088435
     19 O                    -0.464712
     20 O                    -0.476851
     21 O                    -0.484065
     22 O                    -0.478601
     23 C                    -0.201665
     24 H                     0.140732
     25 H                     0.112156
     26 H                     0.112084
     27 C                    -0.200215
     28 H                     0.135476
     29 H                     0.112609
     30 H                     0.112543
     31 H                     0.210374
     32 C                    -0.206141
     33 S                     0.016517
     34 C                    -0.123936
     35 C                     0.032472
     36 C                    -0.235076
     37 H                     0.205456
     38 H                     0.188376
     39 H                     0.218643
  ----------------------------------------
  Sum of atomic charges =     0.000000

                    Cartesian Multipole Moments
 -----------------------------------------------------------------
    Charge (ESU x 10^10)
                 0.0000
    Dipole Moment (Debye)
         X       3.4324      Y       2.4415      Z      -1.5416
       Tot       4.4854
    Quadrupole Moments (Debye-Ang)
        XX    -162.2603     XY       6.3037     YY    -182.9535
        XZ      10.7769     YZ       0.0586     ZZ    -169.0643

 Total job time:  272.78s(wall), 8368.69s(cpu)
        *  Thank you very much for using Q-Chem.  Have a nice day.  *
