 Q-Chem 5.4, Q-Chem, Inc., Pleasanton, CA (2021)
 Q-Chem 5.4.0 for Intel X86 EM64T Linux

User input:
--------------------------------------------------------------
$molecule
0 1
C	0.001478	-6.741404	0.256927
C	0.001603	-6.155638	1.562675
C	0.001931	-5.791452	-0.827197
C	0.001374	-4.803786	1.841253
H	0.001794	-6.821518	2.440709
C	0.001227	-4.378638	-0.535488
C	0.000872	-3.838032	0.794999
C	0.000658	-3.413062	-1.580529
C	0.000186	-2.426473	1.084374
C	0.000046	-2.059348	-1.305258
C	-0.000000	-1.478216	-0.000000
H	-0.000369	-1.394783	-2.184267
C	0.003770	-6.187987	-2.269719
C	0.000767	-3.798164	-3.011152
N	0.002465	-5.170003	-3.254617
C	0.001433	-4.424987	3.275775
C	-0.000576	-2.036627	2.527951
N	0.000400	-3.049156	3.513104
O	0.006623	-7.353131	-2.661046
O	-0.000172	-2.986854	-3.934410
O	0.002151	-5.248946	4.188059
O	-0.002006	-0.878829	2.940845
C	0.003509	-5.563799	-4.667206
H	0.004658	-6.664085	-4.712423
H	0.897610	-5.147101	-5.169231
H	-0.890935	-5.148785	-5.169992
C	-0.000039	-2.587487	4.904229
H	0.001022	-3.483329	5.546833
H	-0.894545	-1.964972	5.095998
H	0.893071	-1.962932	5.095858
H	0.001797	-7.822318	0.070974
C	0.000000	0.000000	0.000000
S	0.686805	0.396760	1.580530
C	2.105095	1.215640	0.904911
C	0.864201	0.499140	-0.985400
C	2.007514	1.159347	-0.493528
H	0.660136	0.381296	-2.059934
H	2.770388	1.599875	-1.152593
H	2.867745	1.656053	1.556025
$end

$rem
JOBTYPE		SP
EXCHANGE	HF
CORRELATION	pRIMP2
BASIS		cc-pvtz
METHOD		rimp2
AUX_BASIS	rimp2-cc-pvtz
SOLVENT_METHOD	PCM
PURECART	11111
SYMMETRY	false
MEM_TOTAL	110000
SCF_CONVERGENCE = 6
THRESH=10
GUI = 2
$end

$solvent
dielectric 4.90
$end
--------------------------------------------------------------

             Standard Nuclear Orientation (Angstroms)
    I     Atom           X                Y                Z
 ----------------------------------------------------------------
    1      C       0.0014780000    -6.7414040000     0.2569270000
    2      C       0.0016030000    -6.1556380000     1.5626750000
    3      C       0.0019310000    -5.7914520000    -0.8271970000
    4      C       0.0013740000    -4.8037860000     1.8412530000
    5      H       0.0017940000    -6.8215180000     2.4407090000
    6      C       0.0012270000    -4.3786380000    -0.5354880000
    7      C       0.0008720000    -3.8380320000     0.7949990000
    8      C       0.0006580000    -3.4130620000    -1.5805290000
    9      C       0.0001860000    -2.4264730000     1.0843740000
   10      C       0.0000460000    -2.0593480000    -1.3052580000
   11      C       0.0000000000    -1.4782160000     0.0000000000
   12      H      -0.0003690000    -1.3947830000    -2.1842670000
   13      C       0.0037700000    -6.1879870000    -2.2697190000
   14      C       0.0007670000    -3.7981640000    -3.0111520000
   15      N       0.0024650000    -5.1700030000    -3.2546170000
   16      C       0.0014330000    -4.4249870000     3.2757750000
   17      C      -0.0005760000    -2.0366270000     2.5279510000
   18      N       0.0004000000    -3.0491560000     3.5131040000
   19      O       0.0066230000    -7.3531310000    -2.6610460000
   20      O      -0.0001720000    -2.9868540000    -3.9344100000
   21      O       0.0021510000    -5.2489460000     4.1880590000
   22      O      -0.0020060000    -0.8788290000     2.9408450000
   23      C       0.0035090000    -5.5637990000    -4.6672060000
   24      H       0.0046580000    -6.6640850000    -4.7124230000
   25      H       0.8976100000    -5.1471010000    -5.1692310000
   26      H      -0.8909350000    -5.1487850000    -5.1699920000
   27      C      -0.0000390000    -2.5874870000     4.9042290000
   28      H       0.0010220000    -3.4833290000     5.5468330000
   29      H      -0.8945450000    -1.9649720000     5.0959980000
   30      H       0.8930710000    -1.9629320000     5.0958580000
   31      H       0.0017970000    -7.8223180000     0.0709740000
   32      C       0.0000000000     0.0000000000     0.0000000000
   33      S       0.6868050000     0.3967600000     1.5805300000
   34      C       2.1050950000     1.2156400000     0.9049110000
   35      C       0.8642010000     0.4991400000    -0.9854000000
   36      C       2.0075140000     1.1593470000    -0.4935280000
   37      H       0.6601360000     0.3812960000    -2.0599340000
   38      H       2.7703880000     1.5998750000    -1.1525930000
   39      H       2.8677450000     1.6560530000     1.5560250000
 ----------------------------------------------------------------

   11   -1570.5458254233      7.06e-07  Convergence criterion met
 Total energy in the final basis set =    -1570.5458254233
        RIMP2         total energy =     -1575.2052406131 a.u.

                    Orbital Energies (a.u.)
 --------------------------------------------------------------

 Alpha MOs
 -- Occupied --
-91.9816 -20.5653 -20.5581 -20.5562 -20.5513 -15.6323 -15.6306 -11.4002
-11.3988 -11.3901 -11.3894 -11.3242 -11.3000 -11.2979 -11.2882 -11.2863
-11.2856 -11.2849 -11.2843 -11.2776 -11.2763 -11.2756 -11.2725 -11.2687
-11.2657 -11.2643 -11.2441  -8.9816  -6.6621  -6.6598  -6.6587  -1.4464
 -1.4243  -1.4078  -1.4038  -1.2712  -1.2658  -1.2165  -1.1840  -1.1387
 -1.1127  -1.0595  -1.0467  -0.9958  -0.9917  -0.9893  -0.9584  -0.9450
 -0.8972  -0.8786  -0.8732  -0.8622  -0.7916  -0.7819  -0.7768  -0.7641
 -0.7358  -0.7271  -0.7027  -0.6922  -0.6908  -0.6743  -0.6698  -0.6630
 -0.6566  -0.6419  -0.6374  -0.6349  -0.6245  -0.6144  -0.5932  -0.5863
 -0.5806  -0.5781  -0.5742  -0.5644  -0.5636  -0.5570  -0.5555  -0.5488
 -0.5341  -0.5308  -0.5191  -0.5108  -0.4904  -0.4736  -0.4616  -0.4562
 -0.4512  -0.4344  -0.4199  -0.4077  -0.3825  -0.3743  -0.3360  -0.3160
 -0.2951

          Ground-State Mulliken Net Atomic Charges

     Atom                 Charge (a.u.)
  ----------------------------------------
      1 C                    -0.167965
      2 C                    -0.110087
      3 C                    -0.017304
      4 C                    -0.007445
      5 H                     0.186395
      6 C                    -0.015737
      7 C                     0.082372
      8 C                     0.010224
      9 C                    -0.139467
     10 C                    -0.137312
     11 C                     0.101753
     12 H                     0.177013
     13 C                     0.359593
     14 C                     0.362262
     15 N                    -0.101469
     16 C                     0.356075
     17 C                     0.389465
     18 N                    -0.085642
     19 O                    -0.463709
     20 O                    -0.478615
     21 O                    -0.486356
     22 O                    -0.415741
     23 C                    -0.201424
     24 H                     0.141134
     25 H                     0.111864
     26 H                     0.112139
     27 C                    -0.198575
     28 H                     0.135511
     29 H                     0.112890
     30 H                     0.112856
     31 H                     0.209643
     32 C                    -0.119407
     33 S                     0.115796
     34 C                    -0.178408
     35 C                    -0.083257
     36 C                    -0.257317
     37 H                     0.198860
     38 H                     0.183144
     39 H                     0.206249
  ----------------------------------------
  Sum of atomic charges =     0.000000

                    Cartesian Multipole Moments
 -----------------------------------------------------------------
    Charge (ESU x 10^10)
                 0.0000
    Dipole Moment (Debye)
         X       2.3245      Y       1.9891      Z       0.0634
       Tot       3.0600
    Quadrupole Moments (Debye-Ang)
        XX    -155.9832     XY       4.6338     YY    -185.0920
        XZ       1.5052     YZ       0.7812     ZZ    -174.9956

 Total job time:  279.41s(wall), 8588.53s(cpu)
        *  Thank you very much for using Q-Chem.  Have a nice day.  *
