 Q-Chem 5.4, Q-Chem, Inc., Pleasanton, CA (2021)
 Q-Chem 5.4.0 for Intel X86 EM64T Linux

User input:
--------------------------------------------------------------
$molecule
0 1
C	0.586080	-6.715879	-0.256927
C	0.534902	-6.132354	-1.562675
C	0.502834	-5.769583	0.827197
C	0.417309	-4.785626	-1.841253
H	0.592747	-6.795716	-2.440709
C	0.380402	-4.362083	0.535488
C	0.333638	-3.823504	-0.794999
C	0.296812	-3.400131	1.580529
C	0.211295	-2.417255	-1.084374
C	0.179438	-2.051515	1.305258
C	0.128835	-1.472591	-0.000000
H	0.121931	-1.389444	2.184267
C	0.535563	-6.164769	2.269719
C	0.330267	-3.783778	3.011152
N	0.448140	-5.150545	3.254617
C	0.384235	-4.408274	-3.275775
C	0.178078	-2.028827	-2.527951
N	0.265353	-3.037588	-3.513104
O	0.634270	-7.325728	2.661046
O	0.260493	-2.975473	3.934410
O	0.455333	-5.229160	-4.188059
O	0.078594	-0.875310	-2.940845
C	0.481421	-5.542933	4.667206
H	0.576173	-6.639132	4.712423
H	-0.445595	-5.205747	5.169231
H	1.336290	-5.051542	5.169992
C	0.225553	-2.577637	-4.904229
H	0.302574	-3.470163	-5.546833
H	1.062399	-1.879530	-5.095998
H	-0.718592	-2.033299	-5.095858
H	0.679970	-7.792708	-0.070974
C	0.000000	0.000000	0.000000
S	0.271091	0.745405	1.580530
C	0.831198	2.284363	0.904911
C	0.341175	0.937861	-0.985400
C	0.792631	2.178516	-0.493528
H	0.260601	0.716417	-2.059934
H	1.093860	3.006347	-1.152593
H	1.132330	3.111961	1.556025
$end

$rem
JOBTYPE		SP
EXCHANGE	HF
CORRELATION	pRIMP2
BASIS		cc-pvtz
METHOD		rimp2
AUX_BASIS	rimp2-cc-pvtz
SOLVENT_METHOD	PCM
PURECART	11111
SYMMETRY	false
MEM_TOTAL	110000
SCF_CONVERGENCE = 6
THRESH=10
GUI = 2
$end

$solvent
dielectric 4.90
$end
--------------------------------------------------------------

             Standard Nuclear Orientation (Angstroms)
    I     Atom           X                Y                Z
 ----------------------------------------------------------------
    1      C       0.5860800000    -6.7158790000    -0.2569270000
    2      C       0.5349020000    -6.1323540000    -1.5626750000
    3      C       0.5028340000    -5.7695830000     0.8271970000
    4      C       0.4173090000    -4.7856260000    -1.8412530000
    5      H       0.5927470000    -6.7957160000    -2.4407090000
    6      C       0.3804020000    -4.3620830000     0.5354880000
    7      C       0.3336380000    -3.8235040000    -0.7949990000
    8      C       0.2968120000    -3.4001310000     1.5805290000
    9      C       0.2112950000    -2.4172550000    -1.0843740000
   10      C       0.1794380000    -2.0515150000     1.3052580000
   11      C       0.1288350000    -1.4725910000     0.0000000000
   12      H       0.1219310000    -1.3894440000     2.1842670000
   13      C       0.5355630000    -6.1647690000     2.2697190000
   14      C       0.3302670000    -3.7837780000     3.0111520000
   15      N       0.4481400000    -5.1505450000     3.2546170000
   16      C       0.3842350000    -4.4082740000    -3.2757750000
   17      C       0.1780780000    -2.0288270000    -2.5279510000
   18      N       0.2653530000    -3.0375880000    -3.5131040000
   19      O       0.6342700000    -7.3257280000     2.6610460000
   20      O       0.2604930000    -2.9754730000     3.9344100000
   21      O       0.4553330000    -5.2291600000    -4.1880590000
   22      O       0.0785940000    -0.8753100000    -2.9408450000
   23      C       0.4814210000    -5.5429330000     4.6672060000
   24      H       0.5761730000    -6.6391320000     4.7124230000
   25      H      -0.4455950000    -5.2057470000     5.1692310000
   26      H       1.3362900000    -5.0515420000     5.1699920000
   27      C       0.2255530000    -2.5776370000    -4.9042290000
   28      H       0.3025740000    -3.4701630000    -5.5468330000
   29      H       1.0623990000    -1.8795300000    -5.0959980000
   30      H      -0.7185920000    -2.0332990000    -5.0958580000
   31      H       0.6799700000    -7.7927080000    -0.0709740000
   32      C       0.0000000000     0.0000000000     0.0000000000
   33      S       0.2710910000     0.7454050000     1.5805300000
   34      C       0.8311980000     2.2843630000     0.9049110000
   35      C       0.3411750000     0.9378610000    -0.9854000000
   36      C       0.7926310000     2.1785160000    -0.4935280000
   37      H       0.2606010000     0.7164170000    -2.0599340000
   38      H       1.0938600000     3.0063470000    -1.1525930000
   39      H       1.1323300000     3.1119610000     1.5560250000
 ----------------------------------------------------------------

   10   -1570.6721285636      9.00e-07  Convergence criterion met
 Total energy in the final basis set =    -1570.6721285636
        RIMP2         total energy =     -1575.3024618665 a.u.

                    Orbital Energies (a.u.)
 --------------------------------------------------------------

 Alpha MOs
 -- Occupied --
-91.9928 -20.5582 -20.5561 -20.5552 -20.5529 -15.6308 -15.6302 -11.3994
-11.3968 -11.3907 -11.3904 -11.3199 -11.3014 -11.2991 -11.2955 -11.2944
-11.2936 -11.2926 -11.2879 -11.2866 -11.2820 -11.2781 -11.2769 -11.2647
-11.2642 -11.2555 -11.2502  -8.9930  -6.6738  -6.6732  -6.6726  -1.4255
 -1.4245  -1.4039  -1.4038  -1.2672  -1.2651  -1.2163  -1.1794  -1.1432
 -1.1152  -1.0632  -1.0486  -0.9921  -0.9905  -0.9890  -0.9584  -0.9467
 -0.8968  -0.8785  -0.8778  -0.8610  -0.7962  -0.7799  -0.7728  -0.7629
 -0.7351  -0.7251  -0.7027  -0.6938  -0.6820  -0.6738  -0.6662  -0.6620
 -0.6556  -0.6411  -0.6374  -0.6337  -0.6272  -0.6127  -0.5912  -0.5833
 -0.5791  -0.5706  -0.5681  -0.5637  -0.5612  -0.5560  -0.5539  -0.5467
 -0.5352  -0.5249  -0.5241  -0.5142  -0.4810  -0.4677  -0.4647  -0.4613
 -0.4576  -0.4496  -0.4289  -0.4190  -0.4095  -0.3775  -0.3557  -0.3357
 -0.2988

          Ground-State Mulliken Net Atomic Charges

     Atom                 Charge (a.u.)
  ----------------------------------------
      1 C                    -0.148524
      2 C                    -0.111975
      3 C                    -0.027515
      4 C                    -0.002337
      5 H                     0.187529
      6 C                    -0.001583
      7 C                     0.074558
      8 C                     0.051805
      9 C                    -0.081547
     10 C                    -0.165332
     11 C                     0.042557
     12 H                     0.170833
     13 C                     0.358425
     14 C                     0.362270
     15 N                    -0.101288
     16 C                     0.358407
     17 C                     0.383453
     18 N                    -0.091986
     19 O                    -0.464359
     20 O                    -0.476891
     21 O                    -0.483912
     22 O                    -0.481211
     23 C                    -0.201253
     24 H                     0.141047
     25 H                     0.112430
     26 H                     0.112350
     27 C                    -0.198458
     28 H                     0.134583
     29 H                     0.112120
     30 H                     0.112681
     31 H                     0.212085
     32 C                     0.013718
     33 S                     0.014860
     34 C                    -0.183005
     35 C                    -0.151702
     36 C                    -0.231988
     37 H                     0.236771
     38 H                     0.193306
     39 H                     0.219078
  ----------------------------------------
  Sum of atomic charges =     0.000000

                    Cartesian Multipole Moments
 -----------------------------------------------------------------
    Charge (ESU x 10^10)
                -0.0000
    Dipole Moment (Debye)
         X       0.9645      Y       2.5507      Z      -0.7685
       Tot       2.8332
    Quadrupole Moments (Debye-Ang)
        XX    -162.6171     XY       5.3688     YY    -170.5978
        XZ       0.3258     YZ       0.3218     ZZ    -178.2654

 Total job time:  261.55s(wall), 8259.02s(cpu)
        *  Thank you very much for using Q-Chem.  Have a nice day.  *
