 Q-Chem 5.4, Q-Chem, Inc., Pleasanton, CA (2021)
 Q-Chem 5.4.0 for Intel X86 EM64T Linux

User input:
--------------------------------------------------------------
$molecule
0 1
C	-0.221766	-6.741404	0.129743
C	-1.352515	-6.155638	0.782726
C	0.717339	-5.791452	-0.411926
C	-1.593885	-4.803786	0.921816
H	-2.112819	-6.821518	1.221908
C	0.464360	-4.378638	-0.266682
C	-0.688053	-3.838032	0.398255
C	1.369108	-3.413062	-0.789694
C	-0.939002	-2.426473	0.542349
C	1.130409	-2.059348	-0.652589
C	-0.000000	-1.478216	-0.000000
H	1.891446	-1.394783	-1.092453
C	1.967519	-6.187987	-1.131595
C	2.608118	-3.798164	-1.504912
N	2.819813	-5.170003	-1.625174
C	-2.836188	-4.424987	1.639129
C	-2.189558	-2.036627	1.263477
N	-3.042237	-3.049156	1.756898
O	2.307845	-7.353131	-1.324787
O	3.407213	-2.986854	-1.967354
O	-3.625890	-5.248946	2.095892
O	-2.547850	-0.878829	1.468685
C	4.043674	-5.563799	-2.330564
H	4.083407	-6.664085	-2.352178
H	4.925490	-5.147101	-1.807263
H	4.031877	-5.148785	-3.356568
C	-4.247206	-2.587487	2.452080
H	-4.803187	-3.483329	2.774302
H	-4.860536	-1.964972	1.773301
H	-3.966607	-1.962932	3.321351
H	-0.060567	-7.822318	0.037043
C	0.000000	0.000000	0.000000
S	-0.000201	0.793171	1.580530
C	-0.000228	2.430885	0.904911
C	-0.000168	0.997990	-0.985400
C	-0.000267	2.318231	-0.493528
H	-0.000145	0.762343	-2.059934
H	-0.000339	3.199164	-1.152593
H	-0.000311	3.311566	1.556025
$end

$rem
JOBTYPE		SP
EXCHANGE	HF
CORRELATION	pRIMP2
BASIS		cc-pvtz
METHOD		rimp2
AUX_BASIS	rimp2-cc-pvtz
SOLVENT_METHOD	PCM
PURECART	11111
SYMMETRY	false
MEM_TOTAL	110000
SCF_CONVERGENCE = 6
THRESH=10
GUI = 2
$end

$solvent
dielectric 4.90
$end
--------------------------------------------------------------

             Standard Nuclear Orientation (Angstroms)
    I     Atom           X                Y                Z
 ----------------------------------------------------------------
    1      C      -0.2217660000    -6.7414040000     0.1297430000
    2      C      -1.3525150000    -6.1556380000     0.7827260000
    3      C       0.7173390000    -5.7914520000    -0.4119260000
    4      C      -1.5938850000    -4.8037860000     0.9218160000
    5      H      -2.1128190000    -6.8215180000     1.2219080000
    6      C       0.4643600000    -4.3786380000    -0.2666820000
    7      C      -0.6880530000    -3.8380320000     0.3982550000
    8      C       1.3691080000    -3.4130620000    -0.7896940000
    9      C      -0.9390020000    -2.4264730000     0.5423490000
   10      C       1.1304090000    -2.0593480000    -0.6525890000
   11      C       0.0000000000    -1.4782160000     0.0000000000
   12      H       1.8914460000    -1.3947830000    -1.0924530000
   13      C       1.9675190000    -6.1879870000    -1.1315950000
   14      C       2.6081180000    -3.7981640000    -1.5049120000
   15      N       2.8198130000    -5.1700030000    -1.6251740000
   16      C      -2.8361880000    -4.4249870000     1.6391290000
   17      C      -2.1895580000    -2.0366270000     1.2634770000
   18      N      -3.0422370000    -3.0491560000     1.7568980000
   19      O       2.3078450000    -7.3531310000    -1.3247870000
   20      O       3.4072130000    -2.9868540000    -1.9673540000
   21      O      -3.6258900000    -5.2489460000     2.0958920000
   22      O      -2.5478500000    -0.8788290000     1.4686850000
   23      C       4.0436740000    -5.5637990000    -2.3305640000
   24      H       4.0834070000    -6.6640850000    -2.3521780000
   25      H       4.9254900000    -5.1471010000    -1.8072630000
   26      H       4.0318770000    -5.1487850000    -3.3565680000
   27      C      -4.2472060000    -2.5874870000     2.4520800000
   28      H      -4.8031870000    -3.4833290000     2.7743020000
   29      H      -4.8605360000    -1.9649720000     1.7733010000
   30      H      -3.9666070000    -1.9629320000     3.3213510000
   31      H      -0.0605670000    -7.8223180000     0.0370430000
   32      C       0.0000000000     0.0000000000     0.0000000000
   33      S      -0.0002010000     0.7931710000     1.5805300000
   34      C      -0.0002280000     2.4308850000     0.9049110000
   35      C      -0.0001680000     0.9979900000    -0.9854000000
   36      C      -0.0002670000     2.3182310000    -0.4935280000
   37      H      -0.0001450000     0.7623430000    -2.0599340000
   38      H      -0.0003390000     3.1991640000    -1.1525930000
   39      H      -0.0003110000     3.3115660000     1.5560250000
 ----------------------------------------------------------------

   10   -1570.6885006515      7.12e-07  Convergence criterion met
 Total energy in the final basis set =    -1570.6885006515
        RIMP2         total energy =     -1575.3139510069 a.u.

                    Orbital Energies (a.u.)
 --------------------------------------------------------------

 Alpha MOs
 -- Occupied --
-91.9875 -20.5589 -20.5566 -20.5553 -20.5551 -15.6315 -15.6307 -11.4005
-11.3963 -11.3927 -11.3909 -11.3166 -11.3068 -11.3032 -11.3015 -11.2992
-11.2986 -11.2925 -11.2867 -11.2865 -11.2815 -11.2808 -11.2787 -11.2648
-11.2645 -11.2574 -11.2485  -8.9869  -6.6677  -6.6672  -6.6666  -1.4252
 -1.4240  -1.4045  -1.4031  -1.2678  -1.2653  -1.2181  -1.1738  -1.1443
 -1.1181  -1.0633  -1.0505  -0.9933  -0.9889  -0.9822  -0.9593  -0.9485
 -0.8973  -0.8799  -0.8781  -0.8616  -0.7952  -0.7774  -0.7736  -0.7604
 -0.7348  -0.7190  -0.7052  -0.6950  -0.6815  -0.6737  -0.6665  -0.6623
 -0.6572  -0.6421  -0.6378  -0.6338  -0.6300  -0.6131  -0.5850  -0.5843
 -0.5783  -0.5719  -0.5663  -0.5643  -0.5642  -0.5554  -0.5534  -0.5485
 -0.5340  -0.5258  -0.5203  -0.5166  -0.4834  -0.4713  -0.4658  -0.4598
 -0.4587  -0.4529  -0.4284  -0.4183  -0.4092  -0.3605  -0.3487  -0.3362
 -0.3139

          Ground-State Mulliken Net Atomic Charges

     Atom                 Charge (a.u.)
  ----------------------------------------
      1 C                    -0.132332
      2 C                    -0.108168
      3 C                    -0.042351
      4 C                    -0.002181
      5 H                     0.189031
      6 C                    -0.000776
      7 C                     0.074367
      8 C                     0.003939
      9 C                    -0.033116
     10 C                    -0.130717
     11 C                     0.077601
     12 H                     0.184359
     13 C                     0.360960
     14 C                     0.368236
     15 N                    -0.101715
     16 C                     0.359718
     17 C                     0.359829
     18 N                    -0.095416
     19 O                    -0.464666
     20 O                    -0.476469
     21 O                    -0.480396
     22 O                    -0.455696
     23 C                    -0.200970
     24 H                     0.141122
     25 H                     0.112564
     26 H                     0.112345
     27 C                    -0.196132
     28 H                     0.133676
     29 H                     0.113251
     30 H                     0.113131
     31 H                     0.214347
     32 C                    -0.045719
     33 S                     0.047685
     34 C                    -0.206341
     35 C                    -0.179861
     36 C                    -0.207641
     37 H                     0.192809
     38 H                     0.190819
     39 H                     0.210872
  ----------------------------------------
  Sum of atomic charges =     0.000000

                    Cartesian Multipole Moments
 -----------------------------------------------------------------
    Charge (ESU x 10^10)
                 0.0000
    Dipole Moment (Debye)
         X      -0.1438      Y       0.8672      Z      -0.7963
       Tot       1.1860
    Quadrupole Moments (Debye-Ang)
        XX    -179.4068     XY       0.6787     YY    -164.5370
        XZ       8.5204     YZ       0.3709     ZZ    -162.4435

 Total job time:  257.16s(wall), 7565.52s(cpu)
        *  Thank you very much for using Q-Chem.  Have a nice day.  *
