 Q-Chem 5.4, Q-Chem, Inc., Pleasanton, CA (2021)
 Q-Chem 5.4.0 for Intel X86 EM64T Linux

User input:
--------------------------------------------------------------
$molecule
0 1
C	0.586080	-6.715879	-0.256927
C	0.534902	-6.132354	-1.562675
C	0.502834	-5.769583	0.827197
C	0.417309	-4.785626	-1.841253
H	0.592747	-6.795716	-2.440709
C	0.380402	-4.362083	0.535488
C	0.333638	-3.823504	-0.794999
C	0.296812	-3.400131	1.580529
C	0.211295	-2.417255	-1.084374
C	0.179438	-2.051515	1.305258
C	0.128835	-1.472591	0.000000
H	0.121931	-1.389444	2.184267
C	0.535563	-6.164769	2.269719
C	0.330267	-3.783778	3.011152
N	0.448140	-5.150545	3.254617
C	0.384235	-4.408274	-3.275775
C	0.178078	-2.028827	-2.527951
N	0.265353	-3.037588	-3.513104
O	0.634270	-7.325728	2.661046
O	0.260493	-2.975473	3.934410
O	0.455333	-5.229160	-4.188059
O	0.078594	-0.875310	-2.940845
C	0.481421	-5.542933	4.667206
H	0.576173	-6.639132	4.712423
H	-0.445595	-5.205747	5.169231
H	1.336290	-5.051542	5.169992
C	0.225553	-2.577637	-4.904229
H	0.302574	-3.470163	-5.546833
H	1.062399	-1.879530	-5.095998
H	-0.718592	-2.033299	-5.095858
H	0.679970	-7.792708	-0.070974
C	0.000000	0.000000	0.000000
S	-0.000201	0.793171	1.580530
C	-0.000228	2.430885	0.904911
C	-0.000168	0.997990	-0.985400
C	-0.000267	2.318231	-0.493528
H	-0.000145	0.762343	-2.059934
H	-0.000339	3.199164	-1.152593
H	-0.000311	3.311566	1.556025
$end

$rem
JOBTYPE		SP
EXCHANGE	HF
CORRELATION	pRIMP2
BASIS		cc-pvtz
METHOD		rimp2
AUX_BASIS	rimp2-cc-pvtz
SOLVENT_METHOD	PCM
PURECART	11111
SYMMETRY	false
MEM_TOTAL	110000
SCF_CONVERGENCE = 6
THRESH=10
GUI = 2
$end

$solvent
dielectric 4.90
$end
--------------------------------------------------------------

             Standard Nuclear Orientation (Angstroms)
    I     Atom           X                Y                Z
 ----------------------------------------------------------------
    1      C       0.5860800000    -6.7158790000    -0.2569270000
    2      C       0.5349020000    -6.1323540000    -1.5626750000
    3      C       0.5028340000    -5.7695830000     0.8271970000
    4      C       0.4173090000    -4.7856260000    -1.8412530000
    5      H       0.5927470000    -6.7957160000    -2.4407090000
    6      C       0.3804020000    -4.3620830000     0.5354880000
    7      C       0.3336380000    -3.8235040000    -0.7949990000
    8      C       0.2968120000    -3.4001310000     1.5805290000
    9      C       0.2112950000    -2.4172550000    -1.0843740000
   10      C       0.1794380000    -2.0515150000     1.3052580000
   11      C       0.1288350000    -1.4725910000     0.0000000000
   12      H       0.1219310000    -1.3894440000     2.1842670000
   13      C       0.5355630000    -6.1647690000     2.2697190000
   14      C       0.3302670000    -3.7837780000     3.0111520000
   15      N       0.4481400000    -5.1505450000     3.2546170000
   16      C       0.3842350000    -4.4082740000    -3.2757750000
   17      C       0.1780780000    -2.0288270000    -2.5279510000
   18      N       0.2653530000    -3.0375880000    -3.5131040000
   19      O       0.6342700000    -7.3257280000     2.6610460000
   20      O       0.2604930000    -2.9754730000     3.9344100000
   21      O       0.4553330000    -5.2291600000    -4.1880590000
   22      O       0.0785940000    -0.8753100000    -2.9408450000
   23      C       0.4814210000    -5.5429330000     4.6672060000
   24      H       0.5761730000    -6.6391320000     4.7124230000
   25      H      -0.4455950000    -5.2057470000     5.1692310000
   26      H       1.3362900000    -5.0515420000     5.1699920000
   27      C       0.2255530000    -2.5776370000    -4.9042290000
   28      H       0.3025740000    -3.4701630000    -5.5468330000
   29      H       1.0623990000    -1.8795300000    -5.0959980000
   30      H      -0.7185920000    -2.0332990000    -5.0958580000
   31      H       0.6799700000    -7.7927080000    -0.0709740000
   32      C       0.0000000000     0.0000000000     0.0000000000
   33      S      -0.0002010000     0.7931710000     1.5805300000
   34      C      -0.0002280000     2.4308850000     0.9049110000
   35      C      -0.0001680000     0.9979900000    -0.9854000000
   36      C      -0.0002670000     2.3182310000    -0.4935280000
   37      H      -0.0001450000     0.7623430000    -2.0599340000
   38      H      -0.0003390000     3.1991640000    -1.1525930000
   39      H      -0.0003110000     3.3115660000     1.5560250000
 ----------------------------------------------------------------

   10   -1570.6849519500      7.95e-07  Convergence criterion met
 Total energy in the final basis set =    -1570.6849519500
        RIMP2         total energy =     -1575.3127910398 a.u.

                    Orbital Energies (a.u.)
 --------------------------------------------------------------

 Alpha MOs
 -- Occupied --
-91.9933 -20.5585 -20.5565 -20.5561 -20.5537 -15.6312 -15.6308 -11.3998
-11.3977 -11.3915 -11.3909 -11.3200 -11.3021 -11.3003 -11.2987 -11.2955
-11.2942 -11.2917 -11.2900 -11.2876 -11.2834 -11.2790 -11.2789 -11.2650
-11.2644 -11.2521 -11.2497  -8.9932  -6.6740  -6.6735  -6.6728  -1.4260
 -1.4249  -1.4043  -1.4042  -1.2677  -1.2656  -1.2171  -1.1774  -1.1441
 -1.1164  -1.0638  -1.0496  -0.9926  -0.9902  -0.9870  -0.9589  -0.9474
 -0.8975  -0.8795  -0.8788  -0.8618  -0.7966  -0.7802  -0.7733  -0.7623
 -0.7359  -0.7243  -0.7034  -0.6941  -0.6824  -0.6741  -0.6667  -0.6624
 -0.6562  -0.6416  -0.6378  -0.6341  -0.6282  -0.6130  -0.5914  -0.5837
 -0.5791  -0.5709  -0.5660  -0.5641  -0.5615  -0.5562  -0.5543  -0.5471
 -0.5351  -0.5254  -0.5250  -0.5162  -0.4818  -0.4696  -0.4655  -0.4620
 -0.4581  -0.4506  -0.4295  -0.4194  -0.4100  -0.3777  -0.3553  -0.3367
 -0.2993

          Ground-State Mulliken Net Atomic Charges

     Atom                 Charge (a.u.)
  ----------------------------------------
      1 C                    -0.143599
      2 C                    -0.111762
      3 C                    -0.029378
      4 C                    -0.002288
      5 H                     0.187967
      6 C                     0.006105
      7 C                     0.070432
      8 C                     0.060437
      9 C                    -0.072534
     10 C                    -0.179011
     11 C                     0.042692
     12 H                     0.168642
     13 C                     0.358046
     14 C                     0.364946
     15 N                    -0.101307
     16 C                     0.359306
     17 C                     0.386997
     18 N                    -0.091150
     19 O                    -0.464194
     20 O                    -0.476557
     21 O                    -0.483094
     22 O                    -0.478940
     23 C                    -0.201096
     24 H                     0.141094
     25 H                     0.112555
     26 H                     0.112518
     27 C                    -0.198163
     28 H                     0.134652
     29 H                     0.112586
     30 H                     0.112756
     31 H                     0.212670
     32 C                    -0.005206
     33 S                     0.005516
     34 C                    -0.190287
     35 C                    -0.119608
     36 C                    -0.248458
     37 H                     0.234760
     38 H                     0.191728
     39 H                     0.220228
  ----------------------------------------
  Sum of atomic charges =     0.000000

                    Cartesian Multipole Moments
 -----------------------------------------------------------------
    Charge (ESU x 10^10)
                -0.0000
    Dipole Moment (Debye)
         X       0.0390      Y       2.1321      Z      -0.8535
       Tot       2.2969
    Quadrupole Moments (Debye-Ang)
        XX    -164.1010     XY       1.2834     YY    -167.5122
        XZ       0.0199     YZ       0.5702     ZZ    -178.0243

 Total job time:  272.94s(wall), 7999.34s(cpu)
        *  Thank you very much for using Q-Chem.  Have a nice day.  *
