 Q-Chem 5.4, Q-Chem, Inc., Pleasanton, CA (2021)
 Q-Chem 5.4.0 for Intel X86 EM64T Linux

User input:
--------------------------------------------------------------
$molecule
0 1
C	0.240927	-6.741404	-0.089263
C	1.467886	-6.155638	-0.535973
C	-0.777972	-5.791452	0.281103
C	1.729742	-4.803786	-0.631036
H	2.292903	-6.821518	-0.836458
C	-0.503614	-4.378638	0.181995
C	0.746756	-3.838032	-0.272725
C	-1.485437	-3.413062	0.539954
C	1.018915	-2.426473	-0.371053
C	-1.226557	-2.059348	0.446381
C	-0.000000	-1.478216	-0.000000
H	-2.052413	-1.394783	0.747410
C	-2.134128	-6.187987	0.772747
C	-2.829820	-3.798164	1.029154
N	-3.059182	-5.170003	1.110828
C	3.077731	-4.424987	-1.121728
C	2.375694	-2.036627	-0.864069
N	3.301101	-3.049156	-1.201928
O	-2.502830	-7.353131	0.903908
O	-3.697078	-2.986854	1.345809
O	3.934752	-5.248946	-1.434422
O	2.764177	-0.878829	-1.003943
C	-4.386939	-5.563799	1.592981
H	-4.429822	-6.664085	1.607367
H	-5.164489	-5.147101	0.924504
H	-4.553486	-5.148785	2.605446
C	4.608481	-2.587487	-1.677308
H	5.211969	-3.483329	-1.898089
H	5.094624	-1.964972	-0.902337
H	4.483092	-1.962932	-2.582098
H	0.066080	-7.822318	-0.025963
C	0.000000	0.000000	0.000000
S	0.271091	0.745405	1.580530
C	0.831198	2.284363	0.904911
C	0.341175	0.937861	-0.985400
C	0.792631	2.178516	-0.493528
H	0.260601	0.716417	-2.059934
H	1.093860	3.006347	-1.152593
H	1.132330	3.111961	1.556025
$end

$rem
JOBTYPE		SP
EXCHANGE	HF
CORRELATION	pRIMP2
BASIS		cc-pvtz
METHOD		rimp2
AUX_BASIS	rimp2-cc-pvtz
SOLVENT_METHOD	PCM
PURECART	11111
SYMMETRY	false
MEM_TOTAL	110000
SCF_CONVERGENCE = 6
THRESH=10
GUI = 2
$end

$solvent
dielectric 4.90
$end
--------------------------------------------------------------

             Standard Nuclear Orientation (Angstroms)
    I     Atom           X                Y                Z
 ----------------------------------------------------------------
    1      C       0.2409270000    -6.7414040000    -0.0892630000
    2      C       1.4678860000    -6.1556380000    -0.5359730000
    3      C      -0.7779720000    -5.7914520000     0.2811030000
    4      C       1.7297420000    -4.8037860000    -0.6310360000
    5      H       2.2929030000    -6.8215180000    -0.8364580000
    6      C      -0.5036140000    -4.3786380000     0.1819950000
    7      C       0.7467560000    -3.8380320000    -0.2727250000
    8      C      -1.4854370000    -3.4130620000     0.5399540000
    9      C       1.0189150000    -2.4264730000    -0.3710530000
   10      C      -1.2265570000    -2.0593480000     0.4463810000
   11      C       0.0000000000    -1.4782160000     0.0000000000
   12      H      -2.0524130000    -1.3947830000     0.7474100000
   13      C      -2.1341280000    -6.1879870000     0.7727470000
   14      C      -2.8298200000    -3.7981640000     1.0291540000
   15      N      -3.0591820000    -5.1700030000     1.1108280000
   16      C       3.0777310000    -4.4249870000    -1.1217280000
   17      C       2.3756940000    -2.0366270000    -0.8640690000
   18      N       3.3011010000    -3.0491560000    -1.2019280000
   19      O      -2.5028300000    -7.3531310000     0.9039080000
   20      O      -3.6970780000    -2.9868540000     1.3458090000
   21      O       3.9347520000    -5.2489460000    -1.4344220000
   22      O       2.7641770000    -0.8788290000    -1.0039430000
   23      C      -4.3869390000    -5.5637990000     1.5929810000
   24      H      -4.4298220000    -6.6640850000     1.6073670000
   25      H      -5.1644890000    -5.1471010000     0.9245040000
   26      H      -4.5534860000    -5.1487850000     2.6054460000
   27      C       4.6084810000    -2.5874870000    -1.6773080000
   28      H       5.2119690000    -3.4833290000    -1.8980890000
   29      H       5.0946240000    -1.9649720000    -0.9023370000
   30      H       4.4830920000    -1.9629320000    -2.5820980000
   31      H       0.0660800000    -7.8223180000    -0.0259630000
   32      C       0.0000000000     0.0000000000     0.0000000000
   33      S       0.2710910000     0.7454050000     1.5805300000
   34      C       0.8311980000     2.2843630000     0.9049110000
   35      C       0.3411750000     0.9378610000    -0.9854000000
   36      C       0.7926310000     2.1785160000    -0.4935280000
   37      H       0.2606010000     0.7164170000    -2.0599340000
   38      H       1.0938600000     3.0063470000    -1.1525930000
   39      H       1.1323300000     3.1119610000     1.5560250000
 ----------------------------------------------------------------

   10   -1570.6826781324      7.72e-07  Convergence criterion met
 Total energy in the final basis set =    -1570.6826781324
        RIMP2         total energy =     -1575.3086893600 a.u.

                    Orbital Energies (a.u.)
 --------------------------------------------------------------

 Alpha MOs
 -- Occupied --
-91.9927 -20.5585 -20.5559 -20.5551 -20.5550 -15.6311 -15.6306 -11.4001
-11.3960 -11.3927 -11.3902 -11.3147 -11.3056 -11.3028 -11.3008 -11.2986
-11.2983 -11.2864 -11.2855 -11.2854 -11.2851 -11.2805 -11.2768 -11.2647
-11.2644 -11.2568 -11.2497  -8.9919  -6.6727  -6.6722  -6.6716  -1.4247
 -1.4236  -1.4040  -1.4027  -1.2674  -1.2650  -1.2174  -1.1745  -1.1440
 -1.1174  -1.0627  -1.0498  -0.9929  -0.9890  -0.9832  -0.9591  -0.9485
 -0.8968  -0.8796  -0.8767  -0.8612  -0.7949  -0.7770  -0.7728  -0.7594
 -0.7372  -0.7180  -0.7051  -0.6950  -0.6802  -0.6721  -0.6662  -0.6621
 -0.6567  -0.6423  -0.6372  -0.6337  -0.6296  -0.6123  -0.5856  -0.5843
 -0.5774  -0.5737  -0.5657  -0.5638  -0.5605  -0.5551  -0.5521  -0.5485
 -0.5355  -0.5265  -0.5199  -0.5150  -0.4829  -0.4708  -0.4654  -0.4605
 -0.4593  -0.4530  -0.4280  -0.4180  -0.4087  -0.3578  -0.3511  -0.3344
 -0.3175

          Ground-State Mulliken Net Atomic Charges

     Atom                 Charge (a.u.)
  ----------------------------------------
      1 C                    -0.132108
      2 C                    -0.107370
      3 C                    -0.043210
      4 C                    -0.001580
      5 H                     0.188665
      6 C                    -0.012064
      7 C                     0.075198
      8 C                     0.021407
      9 C                     0.003287
     10 C                    -0.168921
     11 C                     0.096443
     12 H                     0.181799
     13 C                     0.361278
     14 C                     0.368526
     15 N                    -0.101628
     16 C                     0.359093
     17 C                     0.363170
     18 N                    -0.095179
     19 O                    -0.464944
     20 O                    -0.476143
     21 O                    -0.480392
     22 O                    -0.457582
     23 C                    -0.200987
     24 H                     0.140950
     25 H                     0.112408
     26 H                     0.112494
     27 C                    -0.196324
     28 H                     0.133748
     29 H                     0.113518
     30 H                     0.112167
     31 H                     0.214329
     32 C                    -0.084275
     33 S                     0.032993
     34 C                    -0.204040
     35 C                    -0.157355
     36 C                    -0.195496
     37 H                     0.185583
     38 H                     0.189901
     39 H                     0.212641
  ----------------------------------------
  Sum of atomic charges =     0.000000

                    Cartesian Multipole Moments
 -----------------------------------------------------------------
    Charge (ESU x 10^10)
                 0.0000
    Dipole Moment (Debye)
         X       0.8872      Y       1.0985      Z      -1.0365
       Tot       1.7516
    Quadrupole Moments (Debye-Ang)
        XX    -180.9215     XY       2.9372     YY    -165.9584
        XZ       6.8307     YZ       0.9946     ZZ    -159.8463

 Total job time:  291.89s(wall), 9873.28s(cpu)
        *  Thank you very much for using Q-Chem.  Have a nice day.  *
