 Q-Chem 5.4, Q-Chem, Inc., Pleasanton, CA (2021)
 Q-Chem 5.4.0 for Intel X86 EM64T Linux

User input:
--------------------------------------------------------------
$molecule
0 1
C	0.223244	-6.741404	0.127184
C	1.354118	-6.155638	0.779949
C	-0.715408	-5.791452	-0.415271
C	1.595259	-4.803786	0.919437
H	2.114613	-6.821518	1.218801
C	-0.463133	-4.378638	-0.268806
C	0.688925	-3.838032	0.396744
C	-1.368449	-3.413062	-0.790835
C	0.939189	-2.426473	0.542026
C	-1.130363	-2.059348	-0.652669
C	-0.000000	-1.478216	-0.000000
H	-1.891815	-1.394783	-1.091814
C	-1.963749	-6.187987	-1.138124
C	-2.607351	-3.798164	-1.506241
N	-2.817348	-5.170003	-1.629443
C	2.837621	-4.424987	1.636646
C	2.188982	-2.036627	1.264474
N	3.042637	-3.049156	1.756205
O	-2.301222	-7.353131	-1.336258
O	-3.407386	-2.986854	-1.967056
O	3.628041	-5.248946	2.092167
O	2.545844	-0.878829	1.472160
C	-4.040164	-5.563799	-2.336642
H	-4.078749	-6.664085	-2.360245
H	-4.027880	-5.147101	-3.361968
H	-4.922811	-5.148785	-1.813424
C	4.247167	-2.587487	2.452149
H	4.804209	-3.483329	2.772531
H	3.965991	-1.964972	3.322697
H	4.859678	-1.962932	1.774507
H	0.062364	-7.822318	0.033931
C	0.000000	0.000000	0.000000
S	0.396411	0.687007	1.580530
C	1.215245	2.105322	0.904911
C	0.498850	0.864369	-0.985400
C	1.158885	2.007781	-0.493528
H	0.381046	0.660280	-2.059934
H	1.599289	2.770727	-1.152593
H	1.655514	2.868056	1.556025
$end

$rem
JOBTYPE		SP
EXCHANGE	HF
CORRELATION	pRIMP2
BASIS		cc-pvtz
METHOD		rimp2
AUX_BASIS	rimp2-cc-pvtz
SOLVENT_METHOD	PCM
PURECART	11111
SYMMETRY	false
MEM_TOTAL	110000
SCF_CONVERGENCE = 6
THRESH=10
GUI = 2
$end

$solvent
dielectric 4.90
$end
--------------------------------------------------------------

             Standard Nuclear Orientation (Angstroms)
    I     Atom           X                Y                Z
 ----------------------------------------------------------------
    1      C       0.2232440000    -6.7414040000     0.1271840000
    2      C       1.3541180000    -6.1556380000     0.7799490000
    3      C      -0.7154080000    -5.7914520000    -0.4152710000
    4      C       1.5952590000    -4.8037860000     0.9194370000
    5      H       2.1146130000    -6.8215180000     1.2188010000
    6      C      -0.4631330000    -4.3786380000    -0.2688060000
    7      C       0.6889250000    -3.8380320000     0.3967440000
    8      C      -1.3684490000    -3.4130620000    -0.7908350000
    9      C       0.9391890000    -2.4264730000     0.5420260000
   10      C      -1.1303630000    -2.0593480000    -0.6526690000
   11      C       0.0000000000    -1.4782160000     0.0000000000
   12      H      -1.8918150000    -1.3947830000    -1.0918140000
   13      C      -1.9637490000    -6.1879870000    -1.1381240000
   14      C      -2.6073510000    -3.7981640000    -1.5062410000
   15      N      -2.8173480000    -5.1700030000    -1.6294430000
   16      C       2.8376210000    -4.4249870000     1.6366460000
   17      C       2.1889820000    -2.0366270000     1.2644740000
   18      N       3.0426370000    -3.0491560000     1.7562050000
   19      O      -2.3012220000    -7.3531310000    -1.3362580000
   20      O      -3.4073860000    -2.9868540000    -1.9670560000
   21      O       3.6280410000    -5.2489460000     2.0921670000
   22      O       2.5458440000    -0.8788290000     1.4721600000
   23      C      -4.0401640000    -5.5637990000    -2.3366420000
   24      H      -4.0787490000    -6.6640850000    -2.3602450000
   25      H      -4.0278800000    -5.1471010000    -3.3619680000
   26      H      -4.9228110000    -5.1487850000    -1.8134240000
   27      C       4.2471670000    -2.5874870000     2.4521490000
   28      H       4.8042090000    -3.4833290000     2.7725310000
   29      H       3.9659910000    -1.9649720000     3.3226970000
   30      H       4.8596780000    -1.9629320000     1.7745070000
   31      H       0.0623640000    -7.8223180000     0.0339310000
   32      C       0.0000000000     0.0000000000     0.0000000000
   33      S       0.3964110000     0.6870070000     1.5805300000
   34      C       1.2152450000     2.1053220000     0.9049110000
   35      C       0.4988500000     0.8643690000    -0.9854000000
   36      C       1.1588850000     2.0077810000    -0.4935280000
   37      H       0.3810460000     0.6602800000    -2.0599340000
   38      H       1.5992890000     2.7707270000    -1.1525930000
   39      H       1.6555140000     2.8680560000     1.5560250000
 ----------------------------------------------------------------

   10   -1570.6609497718      8.28e-07  Convergence criterion met
 Total energy in the final basis set =    -1570.6609497718
        RIMP2         total energy =     -1575.2950565390 a.u.

                    Orbital Energies (a.u.)
 --------------------------------------------------------------

 Alpha MOs
 -- Occupied --
-91.9821 -20.5583 -20.5558 -20.5539 -20.5516 -15.6308 -15.6294 -11.3998
-11.3938 -11.3915 -11.3899 -11.3150 -11.3029 -11.3022 -11.3001 -11.2970
-11.2967 -11.2861 -11.2851 -11.2848 -11.2813 -11.2797 -11.2748 -11.2644
-11.2642 -11.2625 -11.2474  -8.9820  -6.6626  -6.6620  -6.6618  -1.4246
 -1.4230  -1.4039  -1.4022  -1.2669  -1.2644  -1.2165  -1.1740  -1.1427
 -1.1163  -1.0614  -1.0488  -0.9924  -0.9880  -0.9819  -0.9586  -0.9478
 -0.8957  -0.8790  -0.8750  -0.8608  -0.7924  -0.7762  -0.7732  -0.7594
 -0.7339  -0.7186  -0.7043  -0.6939  -0.6807  -0.6722  -0.6657  -0.6615
 -0.6563  -0.6419  -0.6367  -0.6347  -0.6287  -0.6120  -0.5849  -0.5832
 -0.5766  -0.5719  -0.5665  -0.5638  -0.5626  -0.5550  -0.5531  -0.5481
 -0.5369  -0.5253  -0.5204  -0.5073  -0.4812  -0.4697  -0.4635  -0.4576
 -0.4553  -0.4495  -0.4271  -0.4180  -0.4085  -0.3600  -0.3366  -0.3345
 -0.3140

          Ground-State Mulliken Net Atomic Charges

     Atom                 Charge (a.u.)
  ----------------------------------------
      1 C                    -0.136242
      2 C                    -0.108180
      3 C                    -0.040153
      4 C                    -0.002075
      5 H                     0.188388
      6 C                    -0.009559
      7 C                     0.070858
      8 C                     0.014497
      9 C                    -0.024923
     10 C                    -0.154466
     11 C                     0.079860
     12 H                     0.180166
     13 C                     0.360924
     14 C                     0.365777
     15 N                    -0.101409
     16 C                     0.357329
     17 C                     0.384818
     18 N                    -0.094926
     19 O                    -0.465019
     20 O                    -0.476394
     21 O                    -0.482045
     22 O                    -0.459550
     23 C                    -0.201116
     24 H                     0.140984
     25 H                     0.112144
     26 H                     0.112420
     27 C                    -0.196272
     28 H                     0.133779
     29 H                     0.112287
     30 H                     0.112394
     31 H                     0.213617
     32 C                    -0.070661
     33 S                     0.041476
     34 C                    -0.172829
     35 C                    -0.158727
     36 C                    -0.218909
     37 H                     0.191225
     38 H                     0.190463
     39 H                     0.210051
  ----------------------------------------
  Sum of atomic charges =     0.000000

                    Cartesian Multipole Moments
 -----------------------------------------------------------------
    Charge (ESU x 10^10)
                 0.0000
    Dipole Moment (Debye)
         X       1.5641      Y       1.1966      Z      -0.6870
       Tot       2.0857
    Quadrupole Moments (Debye-Ang)
        XX    -176.6203     XY       4.8893     YY    -169.8651
        XZ      -7.7611     YZ       0.2966     ZZ    -162.2991

 Total job time:  250.23s(wall), 7774.87s(cpu)
        *  Thank you very much for using Q-Chem.  Have a nice day.  *
