 Q-Chem 5.4, Q-Chem, Inc., Pleasanton, CA (2021)
 Q-Chem 5.4.0 for Intel X86 EM64T Linux

User input:
--------------------------------------------------------------
$molecule
0 1
C	0.046070	-6.741404	0.252767
C	0.272935	-6.155638	1.538656
C	-0.141739	-5.791452	-0.814966
C	0.321083	-4.803786	1.813042
H	0.425592	-6.821518	2.403318
C	-0.091779	-4.378638	-0.527566
C	0.138909	-3.838032	0.782769
C	-0.273808	-3.413062	-1.556632
C	0.188483	-2.426473	1.067868
C	-0.226610	-2.059348	-1.285436
C	-0.000000	-1.478216	-0.000000
H	-0.379657	-1.394783	-2.151019
C	-0.390420	-6.187987	-2.235891
C	-0.522125	-3.798164	-2.965540
N	-0.562731	-5.170003	-3.205600
C	0.570244	-4.424987	3.225760
C	0.438407	-2.036627	2.489646
N	0.610438	-3.049156	3.459662
O	-0.455563	-7.353131	-2.621768
O	-0.683373	-2.986854	-3.874608
O	0.729367	-5.248946	4.124059
O	0.508697	-0.878829	2.896516
C	-0.806996	-5.563799	-4.596910
H	-0.813717	-6.664085	-4.641640
H	-0.013655	-5.147101	-5.246567
H	-1.775159	-5.148785	-4.936739
C	0.851572	-2.587487	4.829729
H	0.964204	-3.483329	5.462387
H	0.003956	-1.964972	5.173914
H	1.764390	-1.962932	4.863360
H	0.014094	-7.822318	0.069584
C	0.000000	0.000000	0.000000
S	0.396411	0.687007	1.580530
C	1.215245	2.105322	0.904911
C	0.498850	0.864369	-0.985400
C	1.158885	2.007781	-0.493528
H	0.381046	0.660280	-2.059934
H	1.599289	2.770727	-1.152593
H	1.655514	2.868056	1.556025
$end

$rem
JOBTYPE		SP
EXCHANGE	HF
CORRELATION	pRIMP2
BASIS		cc-pvtz
METHOD		rimp2
AUX_BASIS	rimp2-cc-pvtz
SOLVENT_METHOD	PCM
PURECART	11111
SYMMETRY	false
MEM_TOTAL	110000
SCF_CONVERGENCE = 6
THRESH=10
GUI = 2
$end

$solvent
dielectric 4.90
$end
--------------------------------------------------------------

             Standard Nuclear Orientation (Angstroms)
    I     Atom           X                Y                Z
 ----------------------------------------------------------------
    1      C       0.0460700000    -6.7414040000     0.2527670000
    2      C       0.2729350000    -6.1556380000     1.5386560000
    3      C      -0.1417390000    -5.7914520000    -0.8149660000
    4      C       0.3210830000    -4.8037860000     1.8130420000
    5      H       0.4255920000    -6.8215180000     2.4033180000
    6      C      -0.0917790000    -4.3786380000    -0.5275660000
    7      C       0.1389090000    -3.8380320000     0.7827690000
    8      C      -0.2738080000    -3.4130620000    -1.5566320000
    9      C       0.1884830000    -2.4264730000     1.0678680000
   10      C      -0.2266100000    -2.0593480000    -1.2854360000
   11      C       0.0000000000    -1.4782160000     0.0000000000
   12      H      -0.3796570000    -1.3947830000    -2.1510190000
   13      C      -0.3904200000    -6.1879870000    -2.2358910000
   14      C      -0.5221250000    -3.7981640000    -2.9655400000
   15      N      -0.5627310000    -5.1700030000    -3.2056000000
   16      C       0.5702440000    -4.4249870000     3.2257600000
   17      C       0.4384070000    -2.0366270000     2.4896460000
   18      N       0.6104380000    -3.0491560000     3.4596620000
   19      O      -0.4555630000    -7.3531310000    -2.6217680000
   20      O      -0.6833730000    -2.9868540000    -3.8746080000
   21      O       0.7293670000    -5.2489460000     4.1240590000
   22      O       0.5086970000    -0.8788290000     2.8965160000
   23      C      -0.8069960000    -5.5637990000    -4.5969100000
   24      H      -0.8137170000    -6.6640850000    -4.6416400000
   25      H      -0.0136550000    -5.1471010000    -5.2465670000
   26      H      -1.7751590000    -5.1487850000    -4.9367390000
   27      C       0.8515720000    -2.5874870000     4.8297290000
   28      H       0.9642040000    -3.4833290000     5.4623870000
   29      H       0.0039560000    -1.9649720000     5.1739140000
   30      H       1.7643900000    -1.9629320000     4.8633600000
   31      H       0.0140940000    -7.8223180000     0.0695840000
   32      C       0.0000000000     0.0000000000     0.0000000000
   33      S       0.3964110000     0.6870070000     1.5805300000
   34      C       1.2152450000     2.1053220000     0.9049110000
   35      C       0.4988500000     0.8643690000    -0.9854000000
   36      C       1.1588850000     2.0077810000    -0.4935280000
   37      H       0.3810460000     0.6602800000    -2.0599340000
   38      H       1.5992890000     2.7707270000    -1.1525930000
   39      H       1.6555140000     2.8680560000     1.5560250000
 ----------------------------------------------------------------

   11   -1570.6055125436      5.34e-07  Convergence criterion met
 Total energy in the final basis set =    -1570.6055125436
        RIMP2         total energy =     -1575.2539224420 a.u.

                    Orbital Energies (a.u.)
 --------------------------------------------------------------

 Alpha MOs
 -- Occupied --
-91.9784 -20.5616 -20.5589 -20.5569 -20.5540 -15.6336 -15.6315 -11.4029
-11.4000 -11.3919 -11.3911 -11.3226 -11.3021 -11.3010 -11.2960 -11.2936
-11.2917 -11.2876 -11.2824 -11.2821 -11.2785 -11.2771 -11.2699 -11.2664
-11.2647 -11.2609 -11.2395  -8.9781  -6.6586  -6.6567  -6.6557  -1.4410
 -1.4252  -1.4092  -1.4046  -1.2720  -1.2667  -1.2167  -1.1730  -1.1413
 -1.1161  -1.0607  -1.0493  -0.9935  -0.9913  -0.9812  -0.9597  -0.9463
 -0.8985  -0.8806  -0.8772  -0.8639  -0.7926  -0.7808  -0.7778  -0.7589
 -0.7345  -0.7304  -0.7026  -0.6930  -0.6892  -0.6742  -0.6697  -0.6637
 -0.6577  -0.6420  -0.6389  -0.6368  -0.6268  -0.6149  -0.5862  -0.5831
 -0.5811  -0.5776  -0.5713  -0.5652  -0.5617  -0.5572  -0.5566  -0.5495
 -0.5333  -0.5269  -0.5225  -0.5172  -0.4882  -0.4726  -0.4672  -0.4631
 -0.4568  -0.4341  -0.4209  -0.4098  -0.3884  -0.3742  -0.3382  -0.3170
 -0.2940

          Ground-State Mulliken Net Atomic Charges

     Atom                 Charge (a.u.)
  ----------------------------------------
      1 C                    -0.153143
      2 C                    -0.110593
      3 C                    -0.025982
      4 C                    -0.006297
      5 H                     0.187546
      6 C                    -0.002469
      7 C                     0.084847
      8 C                     0.002070
      9 C                    -0.117247
     10 C                    -0.134533
     11 C                     0.077235
     12 H                     0.182800
     13 C                     0.359856
     14 C                     0.362964
     15 N                    -0.101764
     16 C                     0.358775
     17 C                     0.397970
     18 N                    -0.091449
     19 O                    -0.463350
     20 O                    -0.476530
     21 O                    -0.482715
     22 O                    -0.420011
     23 C                    -0.201189
     24 H                     0.141254
     25 H                     0.112323
     26 H                     0.112409
     27 C                    -0.199806
     28 H                     0.135598
     29 H                     0.113908
     30 H                     0.113676
     31 H                     0.211750
     32 C                    -0.035154
     33 S                     0.105647
     34 C                    -0.220109
     35 C                    -0.144636
     36 C                    -0.248285
     37 H                     0.187261
     38 H                     0.182709
     39 H                     0.204664
  ----------------------------------------
  Sum of atomic charges =     0.000000

                    Cartesian Multipole Moments
 -----------------------------------------------------------------
    Charge (ESU x 10^10)
                 0.0000
    Dipole Moment (Debye)
         X       1.1164      Y       1.0572      Z       0.2530
       Tot       1.5582
    Quadrupole Moments (Debye-Ang)
        XX    -162.1632     XY       4.0948     YY    -174.8667
        XZ      -2.0563     YZ       0.3081     ZZ    -174.2182

 Total job time:  311.42s(wall), 8489.78s(cpu)
        *  Thank you very much for using Q-Chem.  Have a nice day.  *
