 Q-Chem 5.4, Q-Chem, Inc., Pleasanton, CA (2021)
 Q-Chem 5.4.0 for Intel X86 EM64T Linux

User input:
--------------------------------------------------------------
$molecule
0 1
C	0.221766	-6.741404	-0.129743
C	1.352515	-6.155638	-0.782726
C	-0.717339	-5.791452	0.411926
C	1.593885	-4.803786	-0.921816
H	2.112819	-6.821518	-1.221908
C	-0.464360	-4.378638	0.266682
C	0.688053	-3.838032	-0.398255
C	-1.369108	-3.413062	0.789694
C	0.939002	-2.426473	-0.542349
C	-1.130409	-2.059348	0.652589
C	0.000000	-1.478216	0.000000
H	-1.891446	-1.394783	1.092453
C	-1.967519	-6.187987	1.131595
C	-2.608118	-3.798164	1.504912
N	-2.819813	-5.170003	1.625174
C	2.836188	-4.424987	-1.639129
C	2.189558	-2.036627	-1.263477
N	3.042237	-3.049156	-1.756898
O	-2.307845	-7.353131	1.324787
O	-3.407213	-2.986854	1.967354
O	3.625890	-5.248946	-2.095892
O	2.547850	-0.878829	-1.468685
C	-4.043674	-5.563799	2.330564
H	-4.083407	-6.664085	2.352178
H	-4.925490	-5.147101	1.807263
H	-4.031877	-5.148785	3.356568
C	4.247206	-2.587487	-2.452080
H	4.803187	-3.483329	-2.774302
H	4.860536	-1.964972	-1.773301
H	3.966607	-1.962932	-3.321351
H	0.060567	-7.822318	-0.037043
C	0.000000	0.000000	0.000000
S	0.509686	0.607733	1.580530
C	1.562368	1.862312	0.904911
C	0.641367	0.764613	-0.985400
C	1.489926	1.776040	-0.493528
H	0.489914	0.584081	-2.059934
H	2.056124	2.450920	-1.152593
H	2.128395	2.537007	1.556025
$end

$rem
JOBTYPE		SP
EXCHANGE	HF
CORRELATION	pRIMP2
BASIS		cc-pvtz
METHOD		rimp2
AUX_BASIS	rimp2-cc-pvtz
SOLVENT_METHOD	PCM
PURECART	11111
SYMMETRY	false
MEM_TOTAL	110000
SCF_CONVERGENCE = 6
THRESH=10
GUI = 2
$end

$solvent
dielectric 4.90
$end
--------------------------------------------------------------

             Standard Nuclear Orientation (Angstroms)
    I     Atom           X                Y                Z
 ----------------------------------------------------------------
    1      C       0.2217660000    -6.7414040000    -0.1297430000
    2      C       1.3525150000    -6.1556380000    -0.7827260000
    3      C      -0.7173390000    -5.7914520000     0.4119260000
    4      C       1.5938850000    -4.8037860000    -0.9218160000
    5      H       2.1128190000    -6.8215180000    -1.2219080000
    6      C      -0.4643600000    -4.3786380000     0.2666820000
    7      C       0.6880530000    -3.8380320000    -0.3982550000
    8      C      -1.3691080000    -3.4130620000     0.7896940000
    9      C       0.9390020000    -2.4264730000    -0.5423490000
   10      C      -1.1304090000    -2.0593480000     0.6525890000
   11      C       0.0000000000    -1.4782160000     0.0000000000
   12      H      -1.8914460000    -1.3947830000     1.0924530000
   13      C      -1.9675190000    -6.1879870000     1.1315950000
   14      C      -2.6081180000    -3.7981640000     1.5049120000
   15      N      -2.8198130000    -5.1700030000     1.6251740000
   16      C       2.8361880000    -4.4249870000    -1.6391290000
   17      C       2.1895580000    -2.0366270000    -1.2634770000
   18      N       3.0422370000    -3.0491560000    -1.7568980000
   19      O      -2.3078450000    -7.3531310000     1.3247870000
   20      O      -3.4072130000    -2.9868540000     1.9673540000
   21      O       3.6258900000    -5.2489460000    -2.0958920000
   22      O       2.5478500000    -0.8788290000    -1.4686850000
   23      C      -4.0436740000    -5.5637990000     2.3305640000
   24      H      -4.0834070000    -6.6640850000     2.3521780000
   25      H      -4.9254900000    -5.1471010000     1.8072630000
   26      H      -4.0318770000    -5.1487850000     3.3565680000
   27      C       4.2472060000    -2.5874870000    -2.4520800000
   28      H       4.8031870000    -3.4833290000    -2.7743020000
   29      H       4.8605360000    -1.9649720000    -1.7733010000
   30      H       3.9666070000    -1.9629320000    -3.3213510000
   31      H       0.0605670000    -7.8223180000    -0.0370430000
   32      C       0.0000000000     0.0000000000     0.0000000000
   33      S       0.5096860000     0.6077330000     1.5805300000
   34      C       1.5623680000     1.8623120000     0.9049110000
   35      C       0.6413670000     0.7646130000    -0.9854000000
   36      C       1.4899260000     1.7760400000    -0.4935280000
   37      H       0.4899140000     0.5840810000    -2.0599340000
   38      H       2.0561240000     2.4509200000    -1.1525930000
   39      H       2.1283950000     2.5370070000     1.5560250000
 ----------------------------------------------------------------

   10   -1570.6584359401      9.97e-07  Convergence criterion met
 Total energy in the final basis set =    -1570.6584359401
        RIMP2         total energy =     -1575.2897324795 a.u.

                    Orbital Energies (a.u.)
 --------------------------------------------------------------

 Alpha MOs
 -- Occupied --
-91.9903 -20.5578 -20.5550 -20.5539 -20.5521 -15.6302 -15.6297 -11.3992
-11.3949 -11.3914 -11.3891 -11.3138 -11.3014 -11.2991 -11.2980 -11.2949
-11.2948 -11.2945 -11.2838 -11.2836 -11.2788 -11.2726 -11.2697 -11.2661
-11.2646 -11.2639 -11.2486  -8.9900  -6.6708  -6.6702  -6.6696  -1.4239
 -1.4232  -1.4032  -1.4023  -1.2665  -1.2643  -1.2154  -1.1770  -1.1421
 -1.1150  -1.0607  -1.0475  -0.9919  -0.9885  -0.9859  -0.9582  -0.9474
 -0.8952  -0.8782  -0.8733  -0.8597  -0.7928  -0.7754  -0.7721  -0.7609
 -0.7355  -0.7181  -0.7040  -0.6933  -0.6802  -0.6709  -0.6654  -0.6614
 -0.6553  -0.6415  -0.6360  -0.6336  -0.6272  -0.6111  -0.5856  -0.5839
 -0.5771  -0.5752  -0.5647  -0.5625  -0.5580  -0.5543  -0.5510  -0.5480
 -0.5362  -0.5250  -0.5195  -0.5099  -0.4817  -0.4704  -0.4636  -0.4602
 -0.4557  -0.4513  -0.4270  -0.4175  -0.4074  -0.3639  -0.3435  -0.3338
 -0.3110

          Ground-State Mulliken Net Atomic Charges

     Atom                 Charge (a.u.)
  ----------------------------------------
      1 C                    -0.141741
      2 C                    -0.107779
      3 C                    -0.037400
      4 C                    -0.004831
      5 H                     0.187771
      6 C                    -0.013919
      7 C                     0.078340
      8 C                     0.020958
      9 C                    -0.039953
     10 C                    -0.168829
     11 C                     0.098707
     12 H                     0.182060
     13 C                     0.360888
     14 C                     0.364288
     15 N                    -0.101171
     16 C                     0.358659
     17 C                     0.383065
     18 N                    -0.092817
     19 O                    -0.465246
     20 O                    -0.476512
     21 O                    -0.482254
     22 O                    -0.470001
     23 C                    -0.201354
     24 H                     0.140815
     25 H                     0.112177
     26 H                     0.112339
     27 C                    -0.196919
     28 H                     0.134210
     29 H                     0.112779
     30 H                     0.111314
     31 H                     0.212871
     32 C                    -0.129831
     33 S                     0.033506
     34 C                    -0.181226
     35 C                    -0.096470
     36 C                    -0.184653
     37 H                     0.186754
     38 H                     0.186579
     39 H                     0.214827
  ----------------------------------------
  Sum of atomic charges =     0.000000

                    Cartesian Multipole Moments
 -----------------------------------------------------------------
    Charge (ESU x 10^10)
                 0.0000
    Dipole Moment (Debye)
         X       2.0458      Y       1.8070      Z      -1.2215
       Tot       2.9904
    Quadrupole Moments (Debye-Ang)
        XX    -174.5897     XY       5.9737     YY    -172.8845
        XZ       9.5590     YZ       0.7778     ZZ    -162.5183

 Total job time:  251.51s(wall), 7851.88s(cpu)
        *  Thank you very much for using Q-Chem.  Have a nice day.  *
