 Q-Chem 5.4, Q-Chem, Inc., Pleasanton, CA (2021)
 Q-Chem 5.4.0 for Intel X86 EM64T Linux

User input:
--------------------------------------------------------------
$molecule
0 1
C	-0.241938	-6.741404	-0.086486
C	-1.468983	-6.155638	-0.532960
C	0.776651	-5.791452	0.284733
C	-1.730681	-4.803786	-0.628455
H	-2.294130	-6.821518	-0.833086
C	0.502775	-4.378638	0.184300
C	-0.747353	-3.838032	-0.271086
C	1.484986	-3.413062	0.541191
C	-1.019042	-2.426473	-0.370703
C	1.226525	-2.059348	0.446468
C	0.000000	-1.478216	0.000000
H	2.052666	-1.394783	0.746717
C	2.131549	-6.187987	0.779832
C	2.829295	-3.798164	1.030596
N	3.057496	-5.170003	1.115461
C	-3.078712	-4.424987	-1.119034
C	-2.375300	-2.036627	-0.865151
N	-3.301374	-3.049156	-1.201176
O	2.498300	-7.353131	0.916355
O	3.697195	-2.986854	1.345486
O	-3.936224	-5.248946	-1.430379
O	-2.762805	-0.878829	-1.007714
C	4.384539	-5.563799	1.599576
H	4.426636	-6.664085	1.616121
H	4.550487	-5.147101	2.611458
H	5.162921	-5.148785	0.931037
C	-4.608454	-2.587487	-1.677382
H	-5.212668	-3.483329	-1.896168
H	-4.482719	-1.964972	-2.583531
H	-5.093988	-1.962932	-0.903674
H	-0.067309	-7.822318	-0.022586
C	0.000000	0.000000	0.000000
S	0.068929	0.790170	1.580530
C	0.211639	2.421655	0.904911
C	0.086813	0.994207	-0.985400
C	0.201782	2.309433	-0.493528
H	0.066299	0.759454	-2.059934
H	0.278488	3.187020	-1.152593
H	0.288312	3.298992	1.556025
$end

$rem
JOBTYPE		SP
EXCHANGE	HF
CORRELATION	pRIMP2
BASIS		cc-pvtz
METHOD		rimp2
AUX_BASIS	rimp2-cc-pvtz
SOLVENT_METHOD	PCM
PURECART	11111
SYMMETRY	false
MEM_TOTAL	110000
SCF_CONVERGENCE = 6
THRESH=10
GUI = 2
$end

$solvent
dielectric 4.90
$end
--------------------------------------------------------------

             Standard Nuclear Orientation (Angstroms)
    I     Atom           X                Y                Z
 ----------------------------------------------------------------
    1      C      -0.2419380000    -6.7414040000    -0.0864860000
    2      C      -1.4689830000    -6.1556380000    -0.5329600000
    3      C       0.7766510000    -5.7914520000     0.2847330000
    4      C      -1.7306810000    -4.8037860000    -0.6284550000
    5      H      -2.2941300000    -6.8215180000    -0.8330860000
    6      C       0.5027750000    -4.3786380000     0.1843000000
    7      C      -0.7473530000    -3.8380320000    -0.2710860000
    8      C       1.4849860000    -3.4130620000     0.5411910000
    9      C      -1.0190420000    -2.4264730000    -0.3707030000
   10      C       1.2265250000    -2.0593480000     0.4464680000
   11      C       0.0000000000    -1.4782160000     0.0000000000
   12      H       2.0526660000    -1.3947830000     0.7467170000
   13      C       2.1315490000    -6.1879870000     0.7798320000
   14      C       2.8292950000    -3.7981640000     1.0305960000
   15      N       3.0574960000    -5.1700030000     1.1154610000
   16      C      -3.0787120000    -4.4249870000    -1.1190340000
   17      C      -2.3753000000    -2.0366270000    -0.8651510000
   18      N      -3.3013740000    -3.0491560000    -1.2011760000
   19      O       2.4983000000    -7.3531310000     0.9163550000
   20      O       3.6971950000    -2.9868540000     1.3454860000
   21      O      -3.9362240000    -5.2489460000    -1.4303790000
   22      O      -2.7628050000    -0.8788290000    -1.0077140000
   23      C       4.3845390000    -5.5637990000     1.5995760000
   24      H       4.4266360000    -6.6640850000     1.6161210000
   25      H       4.5504870000    -5.1471010000     2.6114580000
   26      H       5.1629210000    -5.1487850000     0.9310370000
   27      C      -4.6084540000    -2.5874870000    -1.6773820000
   28      H      -5.2126680000    -3.4833290000    -1.8961680000
   29      H      -4.4827190000    -1.9649720000    -2.5835310000
   30      H      -5.0939880000    -1.9629320000    -0.9036740000
   31      H      -0.0673090000    -7.8223180000    -0.0225860000
   32      C       0.0000000000     0.0000000000     0.0000000000
   33      S       0.0689290000     0.7901700000     1.5805300000
   34      C       0.2116390000     2.4216550000     0.9049110000
   35      C       0.0868130000     0.9942070000    -0.9854000000
   36      C       0.2017820000     2.3094330000    -0.4935280000
   37      H       0.0662990000     0.7594540000    -2.0599340000
   38      H       0.2784880000     3.1870200000    -1.1525930000
   39      H       0.2883120000     3.2989920000     1.5560250000
 ----------------------------------------------------------------

   10   -1570.6910293304      6.95e-07  Convergence criterion met
 Total energy in the final basis set =    -1570.6910293304
        RIMP2         total energy =     -1575.3145298640 a.u.

                    Orbital Energies (a.u.)
 --------------------------------------------------------------

 Alpha MOs
 -- Occupied --
-91.9931 -20.5588 -20.5571 -20.5564 -20.5557 -15.6315 -15.6314 -11.4005
-11.3975 -11.3933 -11.3908 -11.3164 -11.3076 -11.3033 -11.3015 -11.2998
-11.2992 -11.2937 -11.2873 -11.2867 -11.2812 -11.2811 -11.2793 -11.2649
-11.2647 -11.2548 -11.2503  -8.9923  -6.6731  -6.6727  -6.6720  -1.4251
 -1.4246  -1.4044  -1.4036  -1.2680  -1.2657  -1.2185  -1.1752  -1.1447
 -1.1184  -1.0639  -1.0508  -0.9935  -0.9899  -0.9831  -0.9596  -0.9487
 -0.8979  -0.8800  -0.8786  -0.8616  -0.7963  -0.7781  -0.7734  -0.7594
 -0.7381  -0.7187  -0.7055  -0.6955  -0.6811  -0.6733  -0.6668  -0.6626
 -0.6574  -0.6428  -0.6380  -0.6342  -0.6306  -0.6130  -0.5859  -0.5848
 -0.5785  -0.5731  -0.5664  -0.5644  -0.5612  -0.5555  -0.5528  -0.5488
 -0.5363  -0.5270  -0.5207  -0.5169  -0.4839  -0.4709  -0.4671  -0.4622
 -0.4607  -0.4539  -0.4287  -0.4185  -0.4093  -0.3588  -0.3522  -0.3353
 -0.3185

          Ground-State Mulliken Net Atomic Charges

     Atom                 Charge (a.u.)
  ----------------------------------------
      1 C                    -0.130293
      2 C                    -0.107579
      3 C                    -0.043359
      4 C                    -0.001240
      5 H                     0.189088
      6 C                    -0.001982
      7 C                     0.072751
      8 C                     0.002888
      9 C                    -0.011767
     10 C                    -0.123846
     11 C                     0.055750
     12 H                     0.187342
     13 C                     0.360950
     14 C                     0.367509
     15 N                    -0.102019
     16 C                     0.360302
     17 C                     0.348548
     18 N                    -0.097057
     19 O                    -0.464744
     20 O                    -0.476083
     21 O                    -0.479593
     22 O                    -0.457068
     23 C                    -0.200945
     24 H                     0.141028
     25 H                     0.112579
     26 H                     0.112528
     27 C                    -0.195762
     28 H                     0.133771
     29 H                     0.112815
     30 H                     0.113765
     31 H                     0.214681
     32 C                    -0.033627
     33 S                     0.031099
     34 C                    -0.212416
     35 C                    -0.166829
     36 C                    -0.202025
     37 H                     0.187949
     38 H                     0.191448
     39 H                     0.211443
  ----------------------------------------
  Sum of atomic charges =     0.000000

                    Cartesian Multipole Moments
 -----------------------------------------------------------------
    Charge (ESU x 10^10)
                 0.0000
    Dipole Moment (Debye)
         X       0.1358      Y       0.7665      Z      -0.9767
       Tot       1.2490
    Quadrupole Moments (Debye-Ang)
        XX    -181.8795     XY       1.9933     YY    -163.7400
        XZ      -6.4639     YZ       1.1430     ZZ    -159.8887

 Total job time:  251.09s(wall), 7819.59s(cpu)
        *  Thank you very much for using Q-Chem.  Have a nice day.  *
