 Q-Chem 5.4, Q-Chem, Inc., Pleasanton, CA (2021)
 Q-Chem 5.4.0 for Intel X86 EM64T Linux

User input:
--------------------------------------------------------------
$molecule
0 1
C	0.221766	-6.741404	-0.129743
C	1.352515	-6.155638	-0.782726
C	-0.717339	-5.791452	0.411926
C	1.593885	-4.803786	-0.921816
H	2.112819	-6.821518	-1.221908
C	-0.464360	-4.378638	0.266682
C	0.688053	-3.838032	-0.398255
C	-1.369108	-3.413062	0.789694
C	0.939002	-2.426473	-0.542349
C	-1.130409	-2.059348	0.652589
C	-0.000000	-1.478216	-0.000000
H	-1.891446	-1.394783	1.092453
C	-1.967519	-6.187987	1.131595
C	-2.608118	-3.798164	1.504912
N	-2.819813	-5.170003	1.625174
C	2.836188	-4.424987	-1.639129
C	2.189558	-2.036627	-1.263477
N	3.042237	-3.049156	-1.756898
O	-2.307845	-7.353131	1.324787
O	-3.407213	-2.986854	1.967354
O	3.625890	-5.248946	-2.095892
O	2.547850	-0.878829	-1.468685
C	-4.043674	-5.563799	2.330564
H	-4.083407	-6.664085	2.352178
H	-4.925490	-5.147101	1.807263
H	-4.031877	-5.148785	3.356568
C	4.247206	-2.587487	-2.452080
H	4.803187	-3.483329	-2.774302
H	4.860536	-1.964972	-1.773301
H	3.966607	-1.962932	-3.321351
H	0.060567	-7.822318	-0.037043
C	0.000000	0.000000	0.000000
S	0.396411	0.687007	1.580530
C	1.215245	2.105322	0.904911
C	0.498850	0.864369	-0.985400
C	1.158885	2.007781	-0.493528
H	0.381046	0.660280	-2.059934
H	1.599289	2.770727	-1.152593
H	1.655514	2.868056	1.556025
$end

$rem
JOBTYPE		SP
EXCHANGE	HF
CORRELATION	pRIMP2
BASIS		cc-pvtz
METHOD		rimp2
AUX_BASIS	rimp2-cc-pvtz
SOLVENT_METHOD	PCM
PURECART	11111
SYMMETRY	false
MEM_TOTAL	110000
SCF_CONVERGENCE = 6
THRESH=10
GUI = 2
$end

$solvent
dielectric 4.90
$end
--------------------------------------------------------------

             Standard Nuclear Orientation (Angstroms)
    I     Atom           X                Y                Z
 ----------------------------------------------------------------
    1      C       0.2217660000    -6.7414040000    -0.1297430000
    2      C       1.3525150000    -6.1556380000    -0.7827260000
    3      C      -0.7173390000    -5.7914520000     0.4119260000
    4      C       1.5938850000    -4.8037860000    -0.9218160000
    5      H       2.1128190000    -6.8215180000    -1.2219080000
    6      C      -0.4643600000    -4.3786380000     0.2666820000
    7      C       0.6880530000    -3.8380320000    -0.3982550000
    8      C      -1.3691080000    -3.4130620000     0.7896940000
    9      C       0.9390020000    -2.4264730000    -0.5423490000
   10      C      -1.1304090000    -2.0593480000     0.6525890000
   11      C       0.0000000000    -1.4782160000     0.0000000000
   12      H      -1.8914460000    -1.3947830000     1.0924530000
   13      C      -1.9675190000    -6.1879870000     1.1315950000
   14      C      -2.6081180000    -3.7981640000     1.5049120000
   15      N      -2.8198130000    -5.1700030000     1.6251740000
   16      C       2.8361880000    -4.4249870000    -1.6391290000
   17      C       2.1895580000    -2.0366270000    -1.2634770000
   18      N       3.0422370000    -3.0491560000    -1.7568980000
   19      O      -2.3078450000    -7.3531310000     1.3247870000
   20      O      -3.4072130000    -2.9868540000     1.9673540000
   21      O       3.6258900000    -5.2489460000    -2.0958920000
   22      O       2.5478500000    -0.8788290000    -1.4686850000
   23      C      -4.0436740000    -5.5637990000     2.3305640000
   24      H      -4.0834070000    -6.6640850000     2.3521780000
   25      H      -4.9254900000    -5.1471010000     1.8072630000
   26      H      -4.0318770000    -5.1487850000     3.3565680000
   27      C       4.2472060000    -2.5874870000    -2.4520800000
   28      H       4.8031870000    -3.4833290000    -2.7743020000
   29      H       4.8605360000    -1.9649720000    -1.7733010000
   30      H       3.9666070000    -1.9629320000    -3.3213510000
   31      H       0.0605670000    -7.8223180000    -0.0370430000
   32      C       0.0000000000     0.0000000000     0.0000000000
   33      S       0.3964110000     0.6870070000     1.5805300000
   34      C       1.2152450000     2.1053220000     0.9049110000
   35      C       0.4988500000     0.8643690000    -0.9854000000
   36      C       1.1588850000     2.0077810000    -0.4935280000
   37      H       0.3810460000     0.6602800000    -2.0599340000
   38      H       1.5992890000     2.7707270000    -1.1525930000
   39      H       1.6555140000     2.8680560000     1.5560250000
 ----------------------------------------------------------------

   10   -1570.6731335429      8.78e-07  Convergence criterion met
 Total energy in the final basis set =    -1570.6731335429
        RIMP2         total energy =     -1575.3016306495 a.u.

                    Orbital Energies (a.u.)
 --------------------------------------------------------------

 Alpha MOs
 -- Occupied --
-91.9923 -20.5581 -20.5555 -20.5543 -20.5530 -15.6306 -15.6299 -11.3996
-11.3951 -11.3918 -11.3897 -11.3144 -11.3020 -11.3015 -11.2996 -11.2965
-11.2962 -11.2905 -11.2848 -11.2847 -11.2795 -11.2780 -11.2749 -11.2645
-11.2641 -11.2611 -11.2494  -8.9916  -6.6724  -6.6719  -6.6713  -1.4243
 -1.4230  -1.4036  -1.4022  -1.2668  -1.2645  -1.2162  -1.1757  -1.1431
 -1.1160  -1.0617  -1.0485  -0.9923  -0.9888  -0.9847  -0.9586  -0.9479
 -0.8959  -0.8788  -0.8751  -0.8604  -0.7939  -0.7761  -0.7722  -0.7604
 -0.7363  -0.7176  -0.7046  -0.6940  -0.6800  -0.6715  -0.6657  -0.6616
 -0.6559  -0.6417  -0.6364  -0.6334  -0.6282  -0.6117  -0.5857  -0.5839
 -0.5765  -0.5751  -0.5651  -0.5628  -0.5594  -0.5547  -0.5513  -0.5482
 -0.5358  -0.5256  -0.5201  -0.5135  -0.4823  -0.4706  -0.4644  -0.4604
 -0.4579  -0.4524  -0.4274  -0.4177  -0.4080  -0.3631  -0.3478  -0.3345
 -0.3116

          Ground-State Mulliken Net Atomic Charges

     Atom                 Charge (a.u.)
  ----------------------------------------
      1 C                    -0.137739
      2 C                    -0.107534
      3 C                    -0.040208
      4 C                    -0.003912
      5 H                     0.188178
      6 C                    -0.014757
      7 C                     0.079254
      8 C                     0.027033
      9 C                    -0.019491
     10 C                    -0.181598
     11 C                     0.106601
     12 H                     0.182160
     13 C                     0.361168
     14 C                     0.365395
     15 N                    -0.101221
     16 C                     0.358967
     17 C                     0.374177
     18 N                    -0.094056
     19 O                    -0.465086
     20 O                    -0.476243
     21 O                    -0.481550
     22 O                    -0.465276
     23 C                    -0.201167
     24 H                     0.140903
     25 H                     0.112258
     26 H                     0.112416
     27 C                    -0.196677
     28 H                     0.133957
     29 H                     0.113114
     30 H                     0.111598
     31 H                     0.213435
     32 C                    -0.104180
     33 S                     0.036220
     34 C                    -0.192723
     35 C                    -0.130932
     36 C                    -0.190318
     37 H                     0.184819
     38 H                     0.188687
     39 H                     0.214327
  ----------------------------------------
  Sum of atomic charges =     0.000000

                    Cartesian Multipole Moments
 -----------------------------------------------------------------
    Charge (ESU x 10^10)
                 0.0000
    Dipole Moment (Debye)
         X       1.4024      Y       1.5991      Z      -1.1096
       Tot       2.3990
    Quadrupole Moments (Debye-Ang)
        XX    -176.7488     XY       4.8886     YY    -169.4134
        XZ       9.4023     YZ       0.9358     ZZ    -162.5550

 Total job time:  250.62s(wall), 7772.11s(cpu)
        *  Thank you very much for using Q-Chem.  Have a nice day.  *
