 Q-Chem 5.4, Q-Chem, Inc., Pleasanton, CA (2021)
 Q-Chem 5.4.0 for Intel X86 EM64T Linux

User input:
--------------------------------------------------------------
$molecule
0 1
C	-0.166281	-6.741404	-0.195868
C	-1.005696	-6.155638	-1.196048
C	0.530233	-5.791452	0.634911
C	-1.184587	-4.803786	-1.409599
H	-1.570232	-6.821518	-1.868538
C	0.343266	-4.378638	0.410996
C	-0.511683	-3.838032	-0.608444
C	1.015440	-3.413062	1.211179
C	-0.697165	-2.426473	-0.830559
C	0.838968	-2.059348	0.999915
C	-0.000000	-1.478216	-0.000000
H	1.404302	-1.394783	1.673009
C	1.456059	-6.187987	1.741129
C	1.934944	-3.798164	2.307170
N	2.090139	-5.170003	2.494766
C	-2.106725	-4.424987	-2.508468
C	-1.624494	-2.036627	-1.936893
N	-2.258486	-3.049156	-2.690936
O	1.705414	-7.353131	2.042736
O	2.529122	-2.986854	3.013823
O	-2.693680	-5.248946	-3.206857
O	-1.888802	-0.878829	-2.254108
C	2.997334	-5.563799	3.577543
H	3.025519	-6.664085	3.612920
H	2.635109	-5.147101	4.536833
H	4.005702	-5.148785	3.387762
C	-3.152347	-2.587487	-3.756883
H	-3.566218	-3.483329	-4.248464
H	-2.590383	-1.964972	-4.478763
H	-3.959687	-1.962932	-3.329599
H	-0.046998	-7.822318	-0.053215
C	0.000000	0.000000	0.000000
S	0.137535	0.781156	1.580530
C	0.421895	2.393994	0.904911
C	0.173134	0.982857	-0.985400
C	0.402294	2.283058	-0.493528
H	0.132237	0.750786	-2.059934
H	0.555196	3.150621	-1.152593
H	0.574741	3.261310	1.556025
$end

$rem
JOBTYPE		SP
EXCHANGE	HF
CORRELATION	pRIMP2
BASIS		cc-pvtz
METHOD		rimp2
AUX_BASIS	rimp2-cc-pvtz
SOLVENT_METHOD	PCM
PURECART	11111
SYMMETRY	false
MEM_TOTAL	110000
SCF_CONVERGENCE = 6
THRESH=10
GUI = 2
$end

$solvent
dielectric 4.90
$end
--------------------------------------------------------------

             Standard Nuclear Orientation (Angstroms)
    I     Atom           X                Y                Z
 ----------------------------------------------------------------
    1      C      -0.1662810000    -6.7414040000    -0.1958680000
    2      C      -1.0056960000    -6.1556380000    -1.1960480000
    3      C       0.5302330000    -5.7914520000     0.6349110000
    4      C      -1.1845870000    -4.8037860000    -1.4095990000
    5      H      -1.5702320000    -6.8215180000    -1.8685380000
    6      C       0.3432660000    -4.3786380000     0.4109960000
    7      C      -0.5116830000    -3.8380320000    -0.6084440000
    8      C       1.0154400000    -3.4130620000     1.2111790000
    9      C      -0.6971650000    -2.4264730000    -0.8305590000
   10      C       0.8389680000    -2.0593480000     0.9999150000
   11      C       0.0000000000    -1.4782160000     0.0000000000
   12      H       1.4043020000    -1.3947830000     1.6730090000
   13      C       1.4560590000    -6.1879870000     1.7411290000
   14      C       1.9349440000    -3.7981640000     2.3071700000
   15      N       2.0901390000    -5.1700030000     2.4947660000
   16      C      -2.1067250000    -4.4249870000    -2.5084680000
   17      C      -1.6244940000    -2.0366270000    -1.9368930000
   18      N      -2.2584860000    -3.0491560000    -2.6909360000
   19      O       1.7054140000    -7.3531310000     2.0427360000
   20      O       2.5291220000    -2.9868540000     3.0138230000
   21      O      -2.6936800000    -5.2489460000    -3.2068570000
   22      O      -1.8888020000    -0.8788290000    -2.2541080000
   23      C       2.9973340000    -5.5637990000     3.5775430000
   24      H       3.0255190000    -6.6640850000     3.6129200000
   25      H       2.6351090000    -5.1471010000     4.5368330000
   26      H       4.0057020000    -5.1487850000     3.3877620000
   27      C      -3.1523470000    -2.5874870000    -3.7568830000
   28      H      -3.5662180000    -3.4833290000    -4.2484640000
   29      H      -2.5903830000    -1.9649720000    -4.4787630000
   30      H      -3.9596870000    -1.9629320000    -3.3295990000
   31      H      -0.0469980000    -7.8223180000    -0.0532150000
   32      C       0.0000000000     0.0000000000     0.0000000000
   33      S       0.1375350000     0.7811560000     1.5805300000
   34      C       0.4218950000     2.3939940000     0.9049110000
   35      C       0.1731340000     0.9828570000    -0.9854000000
   36      C       0.4022940000     2.2830580000    -0.4935280000
   37      H       0.1322370000     0.7507860000    -2.0599340000
   38      H       0.5551960000     3.1506210000    -1.1525930000
   39      H       0.5747410000     3.2613100000     1.5560250000
 ----------------------------------------------------------------

   10   -1570.6902296690      7.11e-07  Convergence criterion met
 Total energy in the final basis set =    -1570.6902296690
        RIMP2         total energy =     -1575.3160857517 a.u.

                    Orbital Energies (a.u.)
 --------------------------------------------------------------

 Alpha MOs
 -- Occupied --
-91.9935 -20.5586 -20.5564 -20.5553 -20.5544 -15.6313 -15.6304 -11.4001
-11.3959 -11.3920 -11.3907 -11.3179 -11.3026 -11.3025 -11.3005 -11.2973
-11.2966 -11.2925 -11.2868 -11.2868 -11.2851 -11.2800 -11.2775 -11.2646
-11.2645 -11.2584 -11.2512  -8.9930  -6.6738  -6.6734  -6.6728  -1.4249
 -1.4236  -1.4042  -1.4027  -1.2674  -1.2649  -1.2175  -1.1771  -1.1443
 -1.1171  -1.0638  -1.0498  -0.9928  -0.9903  -0.9857  -0.9589  -0.9478
 -0.8972  -0.8792  -0.8783  -0.8609  -0.7965  -0.7785  -0.7728  -0.7612
 -0.7370  -0.7173  -0.7052  -0.6950  -0.6808  -0.6733  -0.6663  -0.6621
 -0.6565  -0.6419  -0.6370  -0.6329  -0.6292  -0.6128  -0.5874  -0.5842
 -0.5791  -0.5733  -0.5660  -0.5635  -0.5611  -0.5555  -0.5524  -0.5480
 -0.5389  -0.5264  -0.5220  -0.5155  -0.4834  -0.4694  -0.4674  -0.4638
 -0.4600  -0.4532  -0.4283  -0.4183  -0.4092  -0.3698  -0.3542  -0.3365
 -0.3059

          Ground-State Mulliken Net Atomic Charges

     Atom                 Charge (a.u.)
  ----------------------------------------
      1 C                    -0.137635
      2 C                    -0.108070
      3 C                    -0.038368
      4 C                    -0.004663
      5 H                     0.188717
      6 C                     0.000693
      7 C                     0.072422
      8 C                     0.018082
      9 C                    -0.039254
     10 C                    -0.158473
     11 C                     0.085701
     12 H                     0.182525
     13 C                     0.359938
     14 C                     0.364670
     15 N                    -0.101654
     16 C                     0.359759
     17 C                     0.349173
     18 N                    -0.094833
     19 O                    -0.464489
     20 O                    -0.475842
     21 O                    -0.481685
     22 O                    -0.464348
     23 C                    -0.201029
     24 H                     0.141049
     25 H                     0.112483
     26 H                     0.112430
     27 C                    -0.196545
     28 H                     0.133842
     29 H                     0.112107
     30 H                     0.113343
     31 H                     0.213649
     32 C                    -0.037969
     33 S                     0.021040
     34 C                    -0.190116
     35 C                    -0.127253
     36 C                    -0.219123
     37 H                     0.193588
     38 H                     0.191658
     39 H                     0.214478
  ----------------------------------------
  Sum of atomic charges =     0.000000

                    Cartesian Multipole Moments
 -----------------------------------------------------------------
    Charge (ESU x 10^10)
                 0.0000
    Dipole Moment (Debye)
         X       0.5220      Y       1.5460      Z      -0.8502
       Tot       1.8399
    Quadrupole Moments (Debye-Ang)
        XX    -172.2896     XY       2.1437     YY    -166.1041
        XZ     -10.0973     YZ       1.0787     ZZ    -169.5563

 Total job time:  268.85s(wall), 8212.19s(cpu)
        *  Thank you very much for using Q-Chem.  Have a nice day.  *
