 Q-Chem 5.4, Q-Chem, Inc., Pleasanton, CA (2021)
 Q-Chem 5.4.0 for Intel X86 EM64T Linux

User input:
--------------------------------------------------------------
$molecule
0 1
C	0.256927	-6.741404	-0.001478
C	1.562675	-6.155638	-0.001603
C	-0.827197	-5.791452	-0.001931
C	1.841253	-4.803786	-0.001374
H	2.440709	-6.821518	-0.001794
C	-0.535488	-4.378638	-0.001227
C	0.794999	-3.838032	-0.000872
C	-1.580529	-3.413062	-0.000658
C	1.084374	-2.426473	-0.000186
C	-1.305258	-2.059348	-0.000046
C	0.000000	-1.478216	0.000000
H	-2.184267	-1.394783	0.000369
C	-2.269719	-6.187987	-0.003770
C	-3.011152	-3.798164	-0.000767
N	-3.254617	-5.170003	-0.002465
C	3.275775	-4.424987	-0.001433
C	2.527951	-2.036627	0.000576
N	3.513104	-3.049156	-0.000400
O	-2.661046	-7.353131	-0.006623
O	-3.934410	-2.986854	0.000172
O	4.188059	-5.248946	-0.002151
O	2.940845	-0.878829	0.002006
C	-4.667206	-5.563799	-0.003509
H	-4.712423	-6.664085	-0.004658
H	-5.169231	-5.147101	-0.897610
H	-5.169992	-5.148785	0.890935
C	4.904229	-2.587487	0.000039
H	5.546833	-3.483329	-0.001022
H	5.095998	-1.964972	0.894545
H	5.095858	-1.962932	-0.893071
H	0.070974	-7.822318	-0.001797
C	0.000000	0.000000	0.000000
S	0.509686	0.607733	1.580530
C	1.562368	1.862312	0.904911
C	0.641367	0.764613	-0.985400
C	1.489926	1.776040	-0.493528
H	0.489914	0.584081	-2.059934
H	2.056124	2.450920	-1.152593
H	2.128395	2.537007	1.556025
$end

$rem
JOBTYPE		SP
EXCHANGE	HF
CORRELATION	pRIMP2
BASIS		cc-pvtz
METHOD		rimp2
AUX_BASIS	rimp2-cc-pvtz
SOLVENT_METHOD	PCM
PURECART	11111
SYMMETRY	false
MEM_TOTAL	110000
SCF_CONVERGENCE = 6
THRESH=10
GUI = 2
$end

$solvent
dielectric 4.90
$end
--------------------------------------------------------------

             Standard Nuclear Orientation (Angstroms)
    I     Atom           X                Y                Z
 ----------------------------------------------------------------
    1      C       0.2569270000    -6.7414040000    -0.0014780000
    2      C       1.5626750000    -6.1556380000    -0.0016030000
    3      C      -0.8271970000    -5.7914520000    -0.0019310000
    4      C       1.8412530000    -4.8037860000    -0.0013740000
    5      H       2.4407090000    -6.8215180000    -0.0017940000
    6      C      -0.5354880000    -4.3786380000    -0.0012270000
    7      C       0.7949990000    -3.8380320000    -0.0008720000
    8      C      -1.5805290000    -3.4130620000    -0.0006580000
    9      C       1.0843740000    -2.4264730000    -0.0001860000
   10      C      -1.3052580000    -2.0593480000    -0.0000460000
   11      C       0.0000000000    -1.4782160000     0.0000000000
   12      H      -2.1842670000    -1.3947830000     0.0003690000
   13      C      -2.2697190000    -6.1879870000    -0.0037700000
   14      C      -3.0111520000    -3.7981640000    -0.0007670000
   15      N      -3.2546170000    -5.1700030000    -0.0024650000
   16      C       3.2757750000    -4.4249870000    -0.0014330000
   17      C       2.5279510000    -2.0366270000     0.0005760000
   18      N       3.5131040000    -3.0491560000    -0.0004000000
   19      O      -2.6610460000    -7.3531310000    -0.0066230000
   20      O      -3.9344100000    -2.9868540000     0.0001720000
   21      O       4.1880590000    -5.2489460000    -0.0021510000
   22      O       2.9408450000    -0.8788290000     0.0020060000
   23      C      -4.6672060000    -5.5637990000    -0.0035090000
   24      H      -4.7124230000    -6.6640850000    -0.0046580000
   25      H      -5.1692310000    -5.1471010000    -0.8976100000
   26      H      -5.1699920000    -5.1487850000     0.8909350000
   27      C       4.9042290000    -2.5874870000     0.0000390000
   28      H       5.5468330000    -3.4833290000    -0.0010220000
   29      H       5.0959980000    -1.9649720000     0.8945450000
   30      H       5.0958580000    -1.9629320000    -0.8930710000
   31      H       0.0709740000    -7.8223180000    -0.0017970000
   32      C       0.0000000000     0.0000000000     0.0000000000
   33      S       0.5096860000     0.6077330000     1.5805300000
   34      C       1.5623680000     1.8623120000     0.9049110000
   35      C       0.6413670000     0.7646130000    -0.9854000000
   36      C       1.4899260000     1.7760400000    -0.4935280000
   37      H       0.4899140000     0.5840810000    -2.0599340000
   38      H       2.0561240000     2.4509200000    -1.1525930000
   39      H       2.1283950000     2.5370070000     1.5560250000
 ----------------------------------------------------------------

   10   -1570.6584427681      9.45e-07  Convergence criterion met
 Total energy in the final basis set =    -1570.6584427681
        RIMP2         total energy =     -1575.2919510441 a.u.

                    Orbital Energies (a.u.)
 --------------------------------------------------------------

 Alpha MOs
 -- Occupied --
-91.9879 -20.5578 -20.5550 -20.5538 -20.5530 -15.6302 -15.6291 -11.3993
-11.3929 -11.3914 -11.3890 -11.3119 -11.3021 -11.3017 -11.2991 -11.2969
-11.2966 -11.2891 -11.2851 -11.2830 -11.2794 -11.2730 -11.2722 -11.2642
-11.2640 -11.2629 -11.2469  -8.9875  -6.6683  -6.6677  -6.6672  -1.4240
 -1.4222  -1.4032  -1.4013  -1.2663  -1.2638  -1.2158  -1.1752  -1.1418
 -1.1155  -1.0604  -1.0479  -0.9920  -0.9874  -0.9831  -0.9582  -0.9476
 -0.8953  -0.8783  -0.8730  -0.8596  -0.7919  -0.7753  -0.7720  -0.7589
 -0.7353  -0.7175  -0.7044  -0.6940  -0.6787  -0.6702  -0.6653  -0.6612
 -0.6557  -0.6418  -0.6361  -0.6337  -0.6281  -0.6110  -0.5845  -0.5832
 -0.5755  -0.5738  -0.5658  -0.5632  -0.5586  -0.5543  -0.5519  -0.5479
 -0.5364  -0.5257  -0.5191  -0.5024  -0.4805  -0.4694  -0.4633  -0.4587
 -0.4548  -0.4465  -0.4266  -0.4174  -0.4078  -0.3562  -0.3426  -0.3288
 -0.3261

          Ground-State Mulliken Net Atomic Charges

     Atom                 Charge (a.u.)
  ----------------------------------------
      1 C                    -0.134329
      2 C                    -0.108806
      3 C                    -0.042316
      4 C                    -0.000369
      5 H                     0.188096
      6 C                    -0.007093
      7 C                     0.068213
      8 C                     0.016633
      9 C                    -0.006858
     10 C                    -0.151011
     11 C                     0.066787
     12 H                     0.180062
     13 C                     0.360651
     14 C                     0.364785
     15 N                    -0.101422
     16 C                     0.356565
     17 C                     0.364777
     18 N                    -0.092397
     19 O                    -0.465560
     20 O                    -0.476470
     21 O                    -0.482290
     22 O                    -0.455074
     23 C                    -0.201303
     24 H                     0.140808
     25 H                     0.112085
     26 H                     0.112313
     27 C                    -0.197017
     28 H                     0.133894
     29 H                     0.112343
     30 H                     0.111565
     31 H                     0.213777
     32 C                    -0.083214
     33 S                     0.026372
     34 C                    -0.171025
     35 C                    -0.161337
     36 C                    -0.178277
     37 H                     0.187621
     38 H                     0.187444
     39 H                     0.211378
  ----------------------------------------
  Sum of atomic charges =     0.000000

                    Cartesian Multipole Moments
 -----------------------------------------------------------------
    Charge (ESU x 10^10)
                 0.0000
    Dipole Moment (Debye)
         X       2.0495      Y       1.3010      Z      -0.9977
       Tot       2.6246
    Quadrupole Moments (Debye-Ang)
        XX    -179.8782     XY       5.4311     YY    -171.7001
        XZ       0.6994     YZ       0.5935     ZZ    -157.3719

 Total job time:  252.23s(wall), 7872.03s(cpu)
        *  Thank you very much for using Q-Chem.  Have a nice day.  *
