 Q-Chem 5.4, Q-Chem, Inc., Pleasanton, CA (2021)
 Q-Chem 5.4.0 for Intel X86 EM64T Linux

User input:
--------------------------------------------------------------
$molecule
0 1
C	0.043160	-6.741404	-0.253280
C	0.269777	-6.155638	-1.539213
C	-0.145543	-5.791452	0.814295
C	0.318377	-4.803786	-1.813519
H	0.422058	-6.821518	-2.403941
C	-0.094194	-4.378638	0.527140
C	0.137191	-3.838032	-0.783072
C	-0.275104	-3.413062	1.556403
C	0.188116	-2.426473	-1.067932
C	-0.226701	-2.059348	1.285420
C	-0.000000	-1.478216	-0.000000
H	-0.378931	-1.394783	2.151147
C	-0.397845	-6.187987	2.234582
C	-0.523637	-3.798164	2.965273
N	-0.567586	-5.170003	3.204744
C	0.567421	-4.424987	-3.226257
C	0.439541	-2.036627	-2.489446
N	0.609650	-3.049156	-3.459801
O	-0.468608	-7.353131	2.619468
O	-0.683034	-2.986854	3.874668
O	0.725131	-5.248946	-4.124806
O	0.512648	-0.878829	-2.895819
C	-0.813908	-5.563799	4.595691
H	-0.822891	-6.664085	4.640022
H	-1.781600	-5.147101	4.934830
H	-0.020360	-5.148785	5.246157
C	0.851649	-2.587487	-4.829716
H	0.962191	-3.483329	-5.462742
H	1.765865	-1.964972	-4.863242
H	0.005383	-1.962932	-5.173521
H	0.010555	-7.822318	-0.070208
C	0.000000	0.000000	0.000000
S	0.205093	0.766196	1.580530
C	0.628939	2.348114	0.904911
C	0.258137	0.964028	-0.985400
C	0.599745	2.239309	-0.493528
H	0.197169	0.736404	-2.059934
H	0.827678	3.090243	-1.152593
H	0.856796	3.198808	1.556025
$end

$rem
JOBTYPE		SP
EXCHANGE	HF
CORRELATION	pRIMP2
BASIS		cc-pvtz
METHOD		rimp2
AUX_BASIS	rimp2-cc-pvtz
SOLVENT_METHOD	PCM
PURECART	11111
SYMMETRY	false
MEM_TOTAL	110000
SCF_CONVERGENCE = 6
THRESH=10
GUI = 2
$end

$solvent
dielectric 4.90
$end
--------------------------------------------------------------

             Standard Nuclear Orientation (Angstroms)
    I     Atom           X                Y                Z
 ----------------------------------------------------------------
    1      C       0.0431600000    -6.7414040000    -0.2532800000
    2      C       0.2697770000    -6.1556380000    -1.5392130000
    3      C      -0.1455430000    -5.7914520000     0.8142950000
    4      C       0.3183770000    -4.8037860000    -1.8135190000
    5      H       0.4220580000    -6.8215180000    -2.4039410000
    6      C      -0.0941940000    -4.3786380000     0.5271400000
    7      C       0.1371910000    -3.8380320000    -0.7830720000
    8      C      -0.2751040000    -3.4130620000     1.5564030000
    9      C       0.1881160000    -2.4264730000    -1.0679320000
   10      C      -0.2267010000    -2.0593480000     1.2854200000
   11      C       0.0000000000    -1.4782160000     0.0000000000
   12      H      -0.3789310000    -1.3947830000     2.1511470000
   13      C      -0.3978450000    -6.1879870000     2.2345820000
   14      C      -0.5236370000    -3.7981640000     2.9652730000
   15      N      -0.5675860000    -5.1700030000     3.2047440000
   16      C       0.5674210000    -4.4249870000    -3.2262570000
   17      C       0.4395410000    -2.0366270000    -2.4894460000
   18      N       0.6096500000    -3.0491560000    -3.4598010000
   19      O      -0.4686080000    -7.3531310000     2.6194680000
   20      O      -0.6830340000    -2.9868540000     3.8746680000
   21      O       0.7251310000    -5.2489460000    -4.1248060000
   22      O       0.5126480000    -0.8788290000    -2.8958190000
   23      C      -0.8139080000    -5.5637990000     4.5956910000
   24      H      -0.8228910000    -6.6640850000     4.6400220000
   25      H      -1.7816000000    -5.1471010000     4.9348300000
   26      H      -0.0203600000    -5.1487850000     5.2461570000
   27      C       0.8516490000    -2.5874870000    -4.8297160000
   28      H       0.9621910000    -3.4833290000    -5.4627420000
   29      H       1.7658650000    -1.9649720000    -4.8632420000
   30      H       0.0053830000    -1.9629320000    -5.1735210000
   31      H       0.0105550000    -7.8223180000    -0.0702080000
   32      C       0.0000000000     0.0000000000     0.0000000000
   33      S       0.2050930000     0.7661960000     1.5805300000
   34      C       0.6289390000     2.3481140000     0.9049110000
   35      C       0.2581370000     0.9640280000    -0.9854000000
   36      C       0.5997450000     2.2393090000    -0.4935280000
   37      H       0.1971690000     0.7364040000    -2.0599340000
   38      H       0.8276780000     3.0902430000    -1.1525930000
   39      H       0.8567960000     3.1988080000     1.5560250000
 ----------------------------------------------------------------

   10   -1570.6805828492      8.32e-07  Convergence criterion met
 Total energy in the final basis set =    -1570.6805828492
        RIMP2         total energy =     -1575.3091962292 a.u.

                    Orbital Energies (a.u.)
 --------------------------------------------------------------

 Alpha MOs
 -- Occupied --
-91.9933 -20.5584 -20.5564 -20.5553 -20.5535 -15.6311 -15.6306 -11.3997
-11.3973 -11.3913 -11.3907 -11.3199 -11.3019 -11.3000 -11.2978 -11.2950
-11.2937 -11.2914 -11.2896 -11.2873 -11.2830 -11.2788 -11.2786 -11.2649
-11.2643 -11.2528 -11.2498  -8.9932  -6.6740  -6.6735  -6.6728  -1.4258
 -1.4247  -1.4042  -1.4041  -1.2675  -1.2654  -1.2168  -1.1777  -1.1439
 -1.1161  -1.0635  -1.0493  -0.9925  -0.9902  -0.9873  -0.9587  -0.9473
 -0.8972  -0.8792  -0.8784  -0.8616  -0.7963  -0.7796  -0.7732  -0.7624
 -0.7357  -0.7248  -0.7033  -0.6938  -0.6821  -0.6739  -0.6665  -0.6623
 -0.6560  -0.6414  -0.6376  -0.6341  -0.6279  -0.6128  -0.5909  -0.5836
 -0.5786  -0.5715  -0.5660  -0.5639  -0.5611  -0.5560  -0.5541  -0.5469
 -0.5344  -0.5253  -0.5241  -0.5168  -0.4815  -0.4687  -0.4651  -0.4628
 -0.4580  -0.4499  -0.4293  -0.4192  -0.4098  -0.3773  -0.3547  -0.3365
 -0.2992

          Ground-State Mulliken Net Atomic Charges

     Atom                 Charge (a.u.)
  ----------------------------------------
      1 C                    -0.145197
      2 C                    -0.111457
      3 C                    -0.031093
      4 C                    -0.003282
      5 H                     0.187778
      6 C                     0.000407
      7 C                     0.073599
      8 C                     0.047369
      9 C                    -0.074160
     10 C                    -0.173050
     11 C                     0.068406
     12 H                     0.166145
     13 C                     0.358988
     14 C                     0.365398
     15 N                    -0.101417
     16 C                     0.359211
     17 C                     0.383475
     18 N                    -0.091522
     19 O                    -0.464137
     20 O                    -0.476463
     21 O                    -0.483281
     22 O                    -0.477309
     23 C                    -0.201166
     24 H                     0.141122
     25 H                     0.112428
     26 H                     0.112536
     27 C                    -0.198390
     28 H                     0.134596
     29 H                     0.112681
     30 H                     0.112541
     31 H                     0.212544
     32 C                    -0.000159
     33 S                     0.019117
     34 C                    -0.196155
     35 C                    -0.155499
     36 C                    -0.222570
     37 H                     0.227105
     38 H                     0.192355
     39 H                     0.218508
  ----------------------------------------
  Sum of atomic charges =     0.000000

                    Cartesian Multipole Moments
 -----------------------------------------------------------------
    Charge (ESU x 10^10)
                -0.0000
    Dipole Moment (Debye)
         X       0.6515      Y       2.2409      Z      -0.8720
       Tot       2.4913
    Quadrupole Moments (Debye-Ang)
        XX    -163.7910     XY       3.0399     YY    -168.9682
        XZ       3.7287     YZ       0.4771     ZZ    -177.4688

 Total job time:  302.04s(wall), 9823.28s(cpu)
        *  Thank you very much for using Q-Chem.  Have a nice day.  *
