 Q-Chem 5.4, Q-Chem, Inc., Pleasanton, CA (2021)
 Q-Chem 5.4.0 for Intel X86 EM64T Linux

User input:
--------------------------------------------------------------
$molecule
0 1
C	0.166281	-6.741404	0.195868
C	1.005696	-6.155638	1.196048
C	-0.530233	-5.791452	-0.634911
C	1.184587	-4.803786	1.409599
H	1.570232	-6.821518	1.868538
C	-0.343266	-4.378638	-0.410996
C	0.511683	-3.838032	0.608444
C	-1.015440	-3.413062	-1.211179
C	0.697165	-2.426473	0.830559
C	-0.838968	-2.059348	-0.999915
C	-0.000000	-1.478216	-0.000000
H	-1.404302	-1.394783	-1.673009
C	-1.456059	-6.187987	-1.741129
C	-1.934944	-3.798164	-2.307170
N	-2.090139	-5.170003	-2.494766
C	2.106725	-4.424987	2.508468
C	1.624494	-2.036627	1.936893
N	2.258486	-3.049156	2.690936
O	-1.705414	-7.353131	-2.042736
O	-2.529122	-2.986854	-3.013823
O	2.693680	-5.248946	3.206857
O	1.888802	-0.878829	2.254108
C	-2.997334	-5.563799	-3.577543
H	-3.025519	-6.664085	-3.612920
H	-2.635109	-5.147101	-4.536833
H	-4.005702	-5.148785	-3.387762
C	3.152347	-2.587487	3.756883
H	3.566218	-3.483329	4.248464
H	2.590383	-1.964972	4.478763
H	3.959687	-1.962932	3.329599
H	0.046998	-7.822318	0.053215
C	0.000000	0.000000	0.000000
S	0.137535	0.781156	1.580530
C	0.421895	2.393994	0.904911
C	0.173134	0.982857	-0.985400
C	0.402294	2.283058	-0.493528
H	0.132237	0.750786	-2.059934
H	0.555196	3.150621	-1.152593
H	0.574741	3.261310	1.556025
$end

$rem
JOBTYPE		SP
EXCHANGE	HF
CORRELATION	pRIMP2
BASIS		cc-pvtz
METHOD		rimp2
AUX_BASIS	rimp2-cc-pvtz
SOLVENT_METHOD	PCM
PURECART	11111
SYMMETRY	false
MEM_TOTAL	110000
SCF_CONVERGENCE = 6
THRESH=10
GUI = 2
$end

$solvent
dielectric 4.90
$end
--------------------------------------------------------------

             Standard Nuclear Orientation (Angstroms)
    I     Atom           X                Y                Z
 ----------------------------------------------------------------
    1      C       0.1662810000    -6.7414040000     0.1958680000
    2      C       1.0056960000    -6.1556380000     1.1960480000
    3      C      -0.5302330000    -5.7914520000    -0.6349110000
    4      C       1.1845870000    -4.8037860000     1.4095990000
    5      H       1.5702320000    -6.8215180000     1.8685380000
    6      C      -0.3432660000    -4.3786380000    -0.4109960000
    7      C       0.5116830000    -3.8380320000     0.6084440000
    8      C      -1.0154400000    -3.4130620000    -1.2111790000
    9      C       0.6971650000    -2.4264730000     0.8305590000
   10      C      -0.8389680000    -2.0593480000    -0.9999150000
   11      C       0.0000000000    -1.4782160000     0.0000000000
   12      H      -1.4043020000    -1.3947830000    -1.6730090000
   13      C      -1.4560590000    -6.1879870000    -1.7411290000
   14      C      -1.9349440000    -3.7981640000    -2.3071700000
   15      N      -2.0901390000    -5.1700030000    -2.4947660000
   16      C       2.1067250000    -4.4249870000     2.5084680000
   17      C       1.6244940000    -2.0366270000     1.9368930000
   18      N       2.2584860000    -3.0491560000     2.6909360000
   19      O      -1.7054140000    -7.3531310000    -2.0427360000
   20      O      -2.5291220000    -2.9868540000    -3.0138230000
   21      O       2.6936800000    -5.2489460000     3.2068570000
   22      O       1.8888020000    -0.8788290000     2.2541080000
   23      C      -2.9973340000    -5.5637990000    -3.5775430000
   24      H      -3.0255190000    -6.6640850000    -3.6129200000
   25      H      -2.6351090000    -5.1471010000    -4.5368330000
   26      H      -4.0057020000    -5.1487850000    -3.3877620000
   27      C       3.1523470000    -2.5874870000     3.7568830000
   28      H       3.5662180000    -3.4833290000     4.2484640000
   29      H       2.5903830000    -1.9649720000     4.4787630000
   30      H       3.9596870000    -1.9629320000     3.3295990000
   31      H       0.0469980000    -7.8223180000     0.0532150000
   32      C       0.0000000000     0.0000000000     0.0000000000
   33      S       0.1375350000     0.7811560000     1.5805300000
   34      C       0.4218950000     2.3939940000     0.9049110000
   35      C       0.1731340000     0.9828570000    -0.9854000000
   36      C       0.4022940000     2.2830580000    -0.4935280000
   37      H       0.1322370000     0.7507860000    -2.0599340000
   38      H       0.5551960000     3.1506210000    -1.1525930000
   39      H       0.5747410000     3.2613100000     1.5560250000
 ----------------------------------------------------------------

   10   -1570.6692348303      7.79e-07  Convergence criterion met
 Total energy in the final basis set =    -1570.6692348303
        RIMP2         total energy =     -1575.3021578805 a.u.

                    Orbital Energies (a.u.)
 --------------------------------------------------------------

 Alpha MOs
 -- Occupied --
-91.9819 -20.5588 -20.5566 -20.5543 -20.5519 -15.6314 -15.6303 -11.4002
-11.3961 -11.3919 -11.3908 -11.3179 -11.3027 -11.3026 -11.3009 -11.2971
-11.2962 -11.2878 -11.2866 -11.2849 -11.2819 -11.2799 -11.2777 -11.2647
-11.2645 -11.2593 -11.2440  -8.9818  -6.6623  -6.6617  -6.6613  -1.4252
 -1.4249  -1.4044  -1.4039  -1.2677  -1.2654  -1.2171  -1.1724  -1.1431
 -1.1171  -1.0621  -1.0496  -0.9929  -0.9880  -0.9810  -0.9590  -0.9476
 -0.8965  -0.8797  -0.8772  -0.8619  -0.7937  -0.7770  -0.7743  -0.7596
 -0.7329  -0.7195  -0.7037  -0.6936  -0.6839  -0.6736  -0.6664  -0.6623
 -0.6568  -0.6411  -0.6374  -0.6350  -0.6287  -0.6133  -0.5843  -0.5828
 -0.5786  -0.5703  -0.5674  -0.5657  -0.5641  -0.5556  -0.5542  -0.5485
 -0.5343  -0.5245  -0.5211  -0.5157  -0.4838  -0.4716  -0.4639  -0.4617
 -0.4572  -0.4433  -0.4271  -0.4176  -0.4091  -0.3688  -0.3366  -0.3338
 -0.3037

          Ground-State Mulliken Net Atomic Charges

     Atom                 Charge (a.u.)
  ----------------------------------------
      1 C                    -0.139301
      2 C                    -0.108713
      3 C                    -0.038101
      4 C                    -0.004608
      5 H                     0.188552
      6 C                    -0.004427
      7 C                     0.079457
      8 C                     0.004089
      9 C                    -0.064490
     10 C                    -0.153652
     11 C                     0.107897
     12 H                     0.183598
     13 C                     0.360879
     14 C                     0.367885
     15 N                    -0.101453
     16 C                     0.359401
     17 C                     0.389998
     18 N                    -0.095340
     19 O                    -0.464383
     20 O                    -0.476497
     21 O                    -0.481763
     22 O                    -0.461176
     23 C                    -0.200956
     24 H                     0.141135
     25 H                     0.112190
     26 H                     0.112482
     27 C                    -0.196511
     28 H                     0.133997
     29 H                     0.112819
     30 H                     0.112895
     31 H                     0.213466
     32 C                    -0.069592
     33 S                     0.074577
     34 C                    -0.196621
     35 C                    -0.158643
     36 C                    -0.230562
     37 H                     0.192588
     38 H                     0.188285
     39 H                     0.210601
  ----------------------------------------
  Sum of atomic charges =     0.000000

                    Cartesian Multipole Moments
 -----------------------------------------------------------------
    Charge (ESU x 10^10)
                 0.0000
    Dipole Moment (Debye)
         X       0.6744      Y       1.1799      Z      -0.4111
       Tot       1.4199
    Quadrupole Moments (Debye-Ang)
        XX    -172.1112     XY       1.9141     YY    -167.8600
        XZ      -9.1830     YZ       0.6104     ZZ    -168.7082

 Total job time:  256.11s(wall), 7516.42s(cpu)
        *  Thank you very much for using Q-Chem.  Have a nice day.  *
