 Q-Chem 5.4, Q-Chem, Inc., Pleasanton, CA (2021)
 Q-Chem 5.4.0 for Intel X86 EM64T Linux

User input:
--------------------------------------------------------------
$molecule
0 1
C	0.197767	-6.741404	0.164018
C	1.198109	-6.155638	1.003240
C	-0.632428	-5.791452	-0.533192
C	1.411364	-4.803786	1.182482
H	1.870845	-6.821518	1.567483
C	-0.409419	-4.378638	-0.345145
C	0.609565	-3.838032	0.510347
C	-1.210332	-3.413062	-1.016449
C	0.830799	-2.426473	0.696879
C	-0.999856	-2.059348	-0.839039
C	-0.000000	-1.478216	-0.000000
H	-1.673483	-1.394783	-1.403737
C	-1.736282	-6.187987	-1.461835
C	-2.306183	-3.798164	-1.936119
N	-2.491597	-5.170003	-2.093916
C	2.510310	-4.424987	2.104529
C	1.936153	-2.036627	1.625377
N	2.691451	-3.049156	2.257873
O	-2.034222	-7.353131	-1.715561
O	-3.014044	-2.986854	-2.528858
O	3.209622	-5.248946	2.690385
O	2.251529	-0.878829	1.891876
C	-3.573032	-5.563799	-3.002711
H	-3.606932	-6.664085	-3.032655
H	-3.382888	-5.147101	-4.010326
H	-4.533125	-5.148785	-2.640711
C	3.756832	-2.587487	3.152408
H	4.249778	-3.483329	3.564653
H	3.328759	-1.964972	3.960905
H	4.477709	-1.962932	2.591422
H	0.055524	-7.822318	0.044245
C	0.000000	0.000000	0.000000
S	0.396411	0.687007	1.580530
C	1.215245	2.105322	0.904911
C	0.498850	0.864369	-0.985400
C	1.158885	2.007781	-0.493528
H	0.381046	0.660280	-2.059934
H	1.599289	2.770727	-1.152593
H	1.655514	2.868056	1.556025
$end

$rem
JOBTYPE		SP
EXCHANGE	HF
CORRELATION	pRIMP2
BASIS		cc-pvtz
METHOD		rimp2
AUX_BASIS	rimp2-cc-pvtz
SOLVENT_METHOD	PCM
PURECART	11111
SYMMETRY	false
MEM_TOTAL	110000
SCF_CONVERGENCE = 6
THRESH=10
GUI = 2
$end

$solvent
dielectric 4.90
$end
--------------------------------------------------------------

             Standard Nuclear Orientation (Angstroms)
    I     Atom           X                Y                Z
 ----------------------------------------------------------------
    1      C       0.1977670000    -6.7414040000     0.1640180000
    2      C       1.1981090000    -6.1556380000     1.0032400000
    3      C      -0.6324280000    -5.7914520000    -0.5331920000
    4      C       1.4113640000    -4.8037860000     1.1824820000
    5      H       1.8708450000    -6.8215180000     1.5674830000
    6      C      -0.4094190000    -4.3786380000    -0.3451450000
    7      C       0.6095650000    -3.8380320000     0.5103470000
    8      C      -1.2103320000    -3.4130620000    -1.0164490000
    9      C       0.8307990000    -2.4264730000     0.6968790000
   10      C      -0.9998560000    -2.0593480000    -0.8390390000
   11      C       0.0000000000    -1.4782160000     0.0000000000
   12      H      -1.6734830000    -1.3947830000    -1.4037370000
   13      C      -1.7362820000    -6.1879870000    -1.4618350000
   14      C      -2.3061830000    -3.7981640000    -1.9361190000
   15      N      -2.4915970000    -5.1700030000    -2.0939160000
   16      C       2.5103100000    -4.4249870000     2.1045290000
   17      C       1.9361530000    -2.0366270000     1.6253770000
   18      N       2.6914510000    -3.0491560000     2.2578730000
   19      O      -2.0342220000    -7.3531310000    -1.7155610000
   20      O      -3.0140440000    -2.9868540000    -2.5288580000
   21      O       3.2096220000    -5.2489460000     2.6903850000
   22      O       2.2515290000    -0.8788290000     1.8918760000
   23      C      -3.5730320000    -5.5637990000    -3.0027110000
   24      H      -3.6069320000    -6.6640850000    -3.0326550000
   25      H      -3.3828880000    -5.1471010000    -4.0103260000
   26      H      -4.5331250000    -5.1487850000    -2.6407110000
   27      C       3.7568320000    -2.5874870000     3.1524080000
   28      H       4.2497780000    -3.4833290000     3.5646530000
   29      H       3.3287590000    -1.9649720000     3.9609050000
   30      H       4.4777090000    -1.9629320000     2.5914220000
   31      H       0.0555240000    -7.8223180000     0.0442450000
   32      C       0.0000000000     0.0000000000     0.0000000000
   33      S       0.3964110000     0.6870070000     1.5805300000
   34      C       1.2152450000     2.1053220000     0.9049110000
   35      C       0.4988500000     0.8643690000    -0.9854000000
   36      C       1.1588850000     2.0077810000    -0.4935280000
   37      H       0.3810460000     0.6602800000    -2.0599340000
   38      H       1.5992890000     2.7707270000    -1.1525930000
   39      H       1.6555140000     2.8680560000     1.5560250000
 ----------------------------------------------------------------

   10   -1570.6473193001      8.94e-07  Convergence criterion met
 Total energy in the final basis set =    -1570.6473193001
        RIMP2         total energy =     -1575.2858277035 a.u.

                    Orbital Energies (a.u.)
 --------------------------------------------------------------

 Alpha MOs
 -- Occupied --
-91.9808 -20.5584 -20.5560 -20.5539 -20.5503 -15.6309 -15.6298 -11.3998
-11.3948 -11.3915 -11.3901 -11.3163 -11.3021 -11.3013 -11.3000 -11.2961
-11.2957 -11.2857 -11.2854 -11.2844 -11.2800 -11.2795 -11.2750 -11.2644
-11.2644 -11.2616 -11.2451  -8.9810  -6.6613  -6.6609  -6.6606  -1.4247
 -1.4244  -1.4040  -1.4035  -1.2672  -1.2650  -1.2164  -1.1734  -1.1424
 -1.1162  -1.0612  -1.0487  -0.9925  -0.9878  -0.9816  -0.9587  -0.9474
 -0.8957  -0.8792  -0.8751  -0.8613  -0.7920  -0.7765  -0.7739  -0.7590
 -0.7331  -0.7194  -0.7036  -0.6933  -0.6828  -0.6726  -0.6659  -0.6618
 -0.6564  -0.6419  -0.6374  -0.6356  -0.6284  -0.6124  -0.5848  -0.5828
 -0.5769  -0.5706  -0.5674  -0.5648  -0.5634  -0.5553  -0.5538  -0.5483
 -0.5363  -0.5249  -0.5207  -0.5099  -0.4814  -0.4699  -0.4633  -0.4575
 -0.4566  -0.4472  -0.4267  -0.4179  -0.4086  -0.3642  -0.3356  -0.3245
 -0.3084

          Ground-State Mulliken Net Atomic Charges

     Atom                 Charge (a.u.)
  ----------------------------------------
      1 C                    -0.139949
      2 C                    -0.107908
      3 C                    -0.037632
      4 C                    -0.004085
      5 H                     0.188255
      6 C                    -0.011101
      7 C                     0.074867
      8 C                     0.012052
      9 C                    -0.055767
     10 C                    -0.159129
     11 C                     0.093977
     12 H                     0.180793
     13 C                     0.360984
     14 C                     0.365559
     15 N                    -0.101345
     16 C                     0.358080
     17 C                     0.406020
     18 N                    -0.095331
     19 O                    -0.464682
     20 O                    -0.476353
     21 O                    -0.482224
     22 O                    -0.461243
     23 C                    -0.201074
     24 H                     0.141020
     25 H                     0.112109
     26 H                     0.112388
     27 C                    -0.196278
     28 H                     0.134001
     29 H                     0.112428
     30 H                     0.112411
     31 H                     0.213252
     32 C                    -0.079624
     33 S                     0.057308
     34 C                    -0.172936
     35 C                    -0.150203
     36 C                    -0.230635
     37 H                     0.192816
     38 H                     0.189514
     39 H                     0.209665
  ----------------------------------------
  Sum of atomic charges =     0.000000

                    Cartesian Multipole Moments
 -----------------------------------------------------------------
    Charge (ESU x 10^10)
                 0.0000
    Dipole Moment (Debye)
         X       1.6571      Y       1.1938      Z      -0.4163
       Tot       2.0843
    Quadrupole Moments (Debye-Ang)
        XX    -173.0679     XY       5.0140     YY    -171.0351
        XZ      -8.5744     YZ       0.3970     ZZ    -165.2294

 Total job time:  246.27s(wall), 7696.62s(cpu)
        *  Thank you very much for using Q-Chem.  Have a nice day.  *
