 Q-Chem 5.4, Q-Chem, Inc., Pleasanton, CA (2021)
 Q-Chem 5.4.0 for Intel X86 EM64T Linux

User input:
--------------------------------------------------------------
$molecule
0 1
C	1.169177	-6.639243	-0.256927
C	1.067337	-6.062399	-1.562675
C	1.003773	-5.703803	0.827197
C	0.832816	-4.731044	-1.841253
H	1.182777	-6.718195	-2.440709
C	0.759135	-4.312330	0.535488
C	0.665608	-3.779876	-0.794999
C	0.592024	-3.361324	1.580529
C	0.421169	-2.389641	-1.084374
C	0.357557	-2.028070	1.305258
C	0.256690	-1.455759	0.000000
H	0.242565	-1.373530	2.184267
C	1.070820	-6.094632	2.269719
C	0.658788	-3.740595	3.011152
N	0.895334	-5.091887	3.254617
C	0.766979	-4.358010	-3.275775
C	0.354224	-2.005586	-2.527951
N	0.529086	-3.002902	-3.513104
O	1.270336	-7.242571	2.661046
O	0.518831	-2.941447	3.934410
O	0.909352	-5.169576	-4.188059
O	0.154583	-0.865129	-2.940845
C	0.962688	-5.479882	4.667206
H	1.152619	-6.563651	4.712423
H	0.009812	-5.224773	5.169231
H	1.771476	-4.915854	5.169992
C	0.449351	-2.548170	-4.904229
H	0.603867	-3.430587	-5.546833
H	1.222168	-1.779783	-5.095998
H	-0.538644	-2.088191	-5.095858
H	1.356562	-7.703791	-0.070974
C	0.000000	0.000000	0.000000
S	0.509686	0.607733	1.580530
C	1.562368	1.862312	0.904911
C	0.641367	0.764613	-0.985400
C	1.489926	1.776040	-0.493528
H	0.489914	0.584081	-2.059934
H	2.056124	2.450920	-1.152593
H	2.128395	2.537007	1.556025
$end

$rem
JOBTYPE		SP
EXCHANGE	HF
CORRELATION	pRIMP2
BASIS		cc-pvtz
METHOD		rimp2
AUX_BASIS	rimp2-cc-pvtz
SOLVENT_METHOD	PCM
PURECART	11111
SYMMETRY	false
MEM_TOTAL	110000
SCF_CONVERGENCE = 6
THRESH=10
GUI = 2
$end

$solvent
dielectric 4.90
$end
--------------------------------------------------------------

             Standard Nuclear Orientation (Angstroms)
    I     Atom           X                Y                Z
 ----------------------------------------------------------------
    1      C       1.1691770000    -6.6392430000    -0.2569270000
    2      C       1.0673370000    -6.0623990000    -1.5626750000
    3      C       1.0037730000    -5.7038030000     0.8271970000
    4      C       0.8328160000    -4.7310440000    -1.8412530000
    5      H       1.1827770000    -6.7181950000    -2.4407090000
    6      C       0.7591350000    -4.3123300000     0.5354880000
    7      C       0.6656080000    -3.7798760000    -0.7949990000
    8      C       0.5920240000    -3.3613240000     1.5805290000
    9      C       0.4211690000    -2.3896410000    -1.0843740000
   10      C       0.3575570000    -2.0280700000     1.3052580000
   11      C       0.2566900000    -1.4557590000     0.0000000000
   12      H       0.2425650000    -1.3735300000     2.1842670000
   13      C       1.0708200000    -6.0946320000     2.2697190000
   14      C       0.6587880000    -3.7405950000     3.0111520000
   15      N       0.8953340000    -5.0918870000     3.2546170000
   16      C       0.7669790000    -4.3580100000    -3.2757750000
   17      C       0.3542240000    -2.0055860000    -2.5279510000
   18      N       0.5290860000    -3.0029020000    -3.5131040000
   19      O       1.2703360000    -7.2425710000     2.6610460000
   20      O       0.5188310000    -2.9414470000     3.9344100000
   21      O       0.9093520000    -5.1695760000    -4.1880590000
   22      O       0.1545830000    -0.8651290000    -2.9408450000
   23      C       0.9626880000    -5.4798820000     4.6672060000
   24      H       1.1526190000    -6.5636510000     4.7124230000
   25      H       0.0098120000    -5.2247730000     5.1692310000
   26      H       1.7714760000    -4.9158540000     5.1699920000
   27      C       0.4493510000    -2.5481700000    -4.9042290000
   28      H       0.6038670000    -3.4305870000    -5.5468330000
   29      H       1.2221680000    -1.7797830000    -5.0959980000
   30      H      -0.5386440000    -2.0881910000    -5.0958580000
   31      H       1.3565620000    -7.7037910000    -0.0709740000
   32      C       0.0000000000     0.0000000000     0.0000000000
   33      S       0.5096860000     0.6077330000     1.5805300000
   34      C       1.5623680000     1.8623120000     0.9049110000
   35      C       0.6413670000     0.7646130000    -0.9854000000
   36      C       1.4899260000     1.7760400000    -0.4935280000
   37      H       0.4899140000     0.5840810000    -2.0599340000
   38      H       2.0561240000     2.4509200000    -1.1525930000
   39      H       2.1283950000     2.5370070000     1.5560250000
 ----------------------------------------------------------------

   11   -1570.6281826314      5.41e-07  Convergence criterion met
 Total energy in the final basis set =    -1570.6281826314
        RIMP2         total energy =     -1575.2654662952 a.u.

                    Orbital Energies (a.u.)
 --------------------------------------------------------------

 Alpha MOs
 -- Occupied --
-91.9919 -20.5573 -20.5553 -20.5531 -20.5509 -15.6299 -15.6287 -11.3982
-11.3949 -11.3892 -11.3887 -11.3207 -11.3079 -11.2994 -11.2965 -11.2889
-11.2881 -11.2868 -11.2840 -11.2783 -11.2766 -11.2756 -11.2714 -11.2657
-11.2640 -11.2637 -11.2514  -8.9931  -6.6738  -6.6729  -6.6725  -1.4251
 -1.4236  -1.4030  -1.4028  -1.2660  -1.2640  -1.2156  -1.1863  -1.1407
 -1.1123  -1.0625  -1.0463  -0.9964  -0.9916  -0.9902  -0.9571  -0.9448
 -0.8952  -0.8766  -0.8750  -0.8591  -0.7970  -0.7796  -0.7716  -0.7653
 -0.7335  -0.7280  -0.7007  -0.6931  -0.6815  -0.6732  -0.6651  -0.6611
 -0.6541  -0.6405  -0.6373  -0.6329  -0.6249  -0.6123  -0.5914  -0.5838
 -0.5794  -0.5748  -0.5693  -0.5628  -0.5605  -0.5556  -0.5531  -0.5457
 -0.5358  -0.5236  -0.5219  -0.5081  -0.4790  -0.4633  -0.4613  -0.4584
 -0.4562  -0.4470  -0.4273  -0.4181  -0.4083  -0.3775  -0.3564  -0.3325
 -0.2978

          Ground-State Mulliken Net Atomic Charges

     Atom                 Charge (a.u.)
  ----------------------------------------
      1 C                    -0.160410
      2 C                    -0.111711
      3 C                    -0.022349
      4 C                    -0.003126
      5 H                     0.186417
      6 C                    -0.019304
      7 C                     0.074776
      8 C                     0.047862
      9 C                    -0.099549
     10 C                    -0.151415
     11 C                     0.052436
     12 H                     0.170662
     13 C                     0.358440
     14 C                     0.362692
     15 N                    -0.101004
     16 C                     0.356040
     17 C                     0.386190
     18 N                    -0.091413
     19 O                    -0.464772
     20 O                    -0.478621
     21 O                    -0.486571
     22 O                    -0.484752
     23 C                    -0.201625
     24 H                     0.140921
     25 H                     0.112152
     26 H                     0.111918
     27 C                    -0.199082
     28 H                     0.134248
     29 H                     0.111352
     30 H                     0.112424
     31 H                     0.210352
     32 C                    -0.060948
     33 S                     0.027046
     34 C                    -0.134041
     35 C                    -0.090384
     36 C                    -0.256169
     37 H                     0.247961
     38 H                     0.193854
     39 H                     0.219502
  ----------------------------------------
  Sum of atomic charges =     0.000000

                    Cartesian Multipole Moments
 -----------------------------------------------------------------
    Charge (ESU x 10^10)
                 0.0000
    Dipole Moment (Debye)
         X       2.1167      Y       3.5439      Z      -0.4762
       Tot       4.1553
    Quadrupole Moments (Debye-Ang)
        XX    -159.0409     XY      10.3037     YY    -178.3692
        XZ       1.0340     YZ      -0.4661     ZZ    -178.7130

 Total job time:  304.16s(wall), 8749.45s(cpu)
        *  Thank you very much for using Q-Chem.  Have a nice day.  *
