 Q-Chem 5.4, Q-Chem, Inc., Pleasanton, CA (2021)
 Q-Chem 5.4.0 for Intel X86 EM64T Linux

User input:
--------------------------------------------------------------
$molecule
0 1
C	-0.089263	-6.741404	-0.240927
C	-0.535973	-6.155638	-1.467886
C	0.281103	-5.791452	0.777972
C	-0.631036	-4.803786	-1.729742
H	-0.836458	-6.821518	-2.292903
C	0.181995	-4.378638	0.503614
C	-0.272725	-3.838032	-0.746756
C	0.539954	-3.413062	1.485437
C	-0.371053	-2.426473	-1.018915
C	0.446381	-2.059348	1.226557
C	0.000000	-1.478216	0.000000
H	0.747410	-1.394783	2.052413
C	0.772747	-6.187987	2.134128
C	1.029154	-3.798164	2.829820
N	1.110828	-5.170003	3.059182
C	-1.121728	-4.424987	-3.077731
C	-0.864069	-2.036627	-2.375694
N	-1.201928	-3.049156	-3.301101
O	0.903908	-7.353131	2.502830
O	1.345809	-2.986854	3.697078
O	-1.434422	-5.248946	-3.934752
O	-1.003943	-0.878829	-2.764177
C	1.592981	-5.563799	4.386939
H	1.607367	-6.664085	4.429822
H	0.924504	-5.147101	5.164489
H	2.605446	-5.148785	4.553486
C	-1.677308	-2.587487	-4.608481
H	-1.898089	-3.483329	-5.211969
H	-0.902337	-1.964972	-5.094624
H	-2.582098	-1.962932	-4.483092
H	-0.025963	-7.822318	-0.066080
C	0.000000	0.000000	0.000000
S	0.509686	0.607733	1.580530
C	1.562368	1.862312	0.904911
C	0.641367	0.764613	-0.985400
C	1.489926	1.776040	-0.493528
H	0.489914	0.584081	-2.059934
H	2.056124	2.450920	-1.152593
H	2.128395	2.537007	1.556025
$end

$rem
JOBTYPE		SP
EXCHANGE	HF
CORRELATION	pRIMP2
BASIS		cc-pvtz
METHOD		rimp2
AUX_BASIS	rimp2-cc-pvtz
SOLVENT_METHOD	PCM
PURECART	11111
SYMMETRY	false
MEM_TOTAL	110000
SCF_CONVERGENCE = 6
THRESH=10
GUI = 2
$end

$solvent
dielectric 4.90
$end
--------------------------------------------------------------

             Standard Nuclear Orientation (Angstroms)
    I     Atom           X                Y                Z
 ----------------------------------------------------------------
    1      C      -0.0892630000    -6.7414040000    -0.2409270000
    2      C      -0.5359730000    -6.1556380000    -1.4678860000
    3      C       0.2811030000    -5.7914520000     0.7779720000
    4      C      -0.6310360000    -4.8037860000    -1.7297420000
    5      H      -0.8364580000    -6.8215180000    -2.2929030000
    6      C       0.1819950000    -4.3786380000     0.5036140000
    7      C      -0.2727250000    -3.8380320000    -0.7467560000
    8      C       0.5399540000    -3.4130620000     1.4854370000
    9      C      -0.3710530000    -2.4264730000    -1.0189150000
   10      C       0.4463810000    -2.0593480000     1.2265570000
   11      C       0.0000000000    -1.4782160000     0.0000000000
   12      H       0.7474100000    -1.3947830000     2.0524130000
   13      C       0.7727470000    -6.1879870000     2.1341280000
   14      C       1.0291540000    -3.7981640000     2.8298200000
   15      N       1.1108280000    -5.1700030000     3.0591820000
   16      C      -1.1217280000    -4.4249870000    -3.0777310000
   17      C      -0.8640690000    -2.0366270000    -2.3756940000
   18      N      -1.2019280000    -3.0491560000    -3.3011010000
   19      O       0.9039080000    -7.3531310000     2.5028300000
   20      O       1.3458090000    -2.9868540000     3.6970780000
   21      O      -1.4344220000    -5.2489460000    -3.9347520000
   22      O      -1.0039430000    -0.8788290000    -2.7641770000
   23      C       1.5929810000    -5.5637990000     4.3869390000
   24      H       1.6073670000    -6.6640850000     4.4298220000
   25      H       0.9245040000    -5.1471010000     5.1644890000
   26      H       2.6054460000    -5.1487850000     4.5534860000
   27      C      -1.6773080000    -2.5874870000    -4.6084810000
   28      H      -1.8980890000    -3.4833290000    -5.2119690000
   29      H      -0.9023370000    -1.9649720000    -5.0946240000
   30      H      -2.5820980000    -1.9629320000    -4.4830920000
   31      H      -0.0259630000    -7.8223180000    -0.0660800000
   32      C       0.0000000000     0.0000000000     0.0000000000
   33      S       0.5096860000     0.6077330000     1.5805300000
   34      C       1.5623680000     1.8623120000     0.9049110000
   35      C       0.6413670000     0.7646130000    -0.9854000000
   36      C       1.4899260000     1.7760400000    -0.4935280000
   37      H       0.4899140000     0.5840810000    -2.0599340000
   38      H       2.0561240000     2.4509200000    -1.1525930000
   39      H       2.1283950000     2.5370070000     1.5560250000
 ----------------------------------------------------------------

   10   -1570.6528963454      9.52e-07  Convergence criterion met
 Total energy in the final basis set =    -1570.6528963454
        RIMP2         total energy =     -1575.2871918921 a.u.

                    Orbital Energies (a.u.)
 --------------------------------------------------------------

 Alpha MOs
 -- Occupied --
-91.9917 -20.5578 -20.5558 -20.5535 -20.5519 -15.6304 -15.6285 -11.3989
-11.3934 -11.3897 -11.3896 -11.3189 -11.3009 -11.3006 -11.2977 -11.2922
-11.2917 -11.2916 -11.2847 -11.2847 -11.2808 -11.2775 -11.2697 -11.2696
-11.2641 -11.2638 -11.2527  -8.9927  -6.6734  -6.6727  -6.6722  -1.4241
 -1.4223  -1.4035  -1.4013  -1.2663  -1.2634  -1.2158  -1.1844  -1.1418
 -1.1138  -1.0630  -1.0473  -0.9943  -0.9916  -0.9905  -0.9575  -0.9454
 -0.8955  -0.8772  -0.8762  -0.8586  -0.7971  -0.7803  -0.7713  -0.7634
 -0.7343  -0.7195  -0.7036  -0.6943  -0.6799  -0.6735  -0.6652  -0.6610
 -0.6547  -0.6414  -0.6352  -0.6319  -0.6263  -0.6124  -0.5893  -0.5854
 -0.5806  -0.5755  -0.5674  -0.5625  -0.5618  -0.5557  -0.5521  -0.5471
 -0.5402  -0.5250  -0.5232  -0.5046  -0.4816  -0.4662  -0.4649  -0.4594
 -0.4587  -0.4512  -0.4271  -0.4177  -0.4082  -0.3751  -0.3538  -0.3346
 -0.3008

          Ground-State Mulliken Net Atomic Charges

     Atom                 Charge (a.u.)
  ----------------------------------------
      1 C                    -0.150539
      2 C                    -0.109627
      3 C                    -0.026051
      4 C                    -0.005517
      5 H                     0.187480
      6 C                    -0.011078
      7 C                     0.074075
      8 C                     0.062650
      9 C                    -0.082747
     10 C                    -0.184024
     11 C                     0.048096
     12 H                     0.182701
     13 C                     0.357792
     14 C                     0.362684
     15 N                    -0.101142
     16 C                     0.357153
     17 C                     0.373728
     18 N                    -0.094111
     19 O                    -0.464726
     20 O                    -0.478329
     21 O                    -0.485135
     22 O                    -0.482922
     23 C                    -0.201476
     24 H                     0.140988
     25 H                     0.112344
     26 H                     0.112050
     27 C                    -0.197877
     28 H                     0.133761
     29 H                     0.111425
     30 H                     0.112669
     31 H                     0.211724
     32 C                    -0.041247
     33 S                     0.018374
     34 C                    -0.143073
     35 C                    -0.077074
     36 C                    -0.253443
     37 H                     0.218100
     38 H                     0.193659
     39 H                     0.218686
  ----------------------------------------
  Sum of atomic charges =     0.000000

                    Cartesian Multipole Moments
 -----------------------------------------------------------------
    Charge (ESU x 10^10)
                 0.0000
    Dipole Moment (Debye)
         X       2.1932      Y       2.5689      Z      -0.4320
       Tot       3.4053
    Quadrupole Moments (Debye-Ang)
        XX    -161.1963     XY       5.9302     YY    -175.5481
        XZ      -6.3069     YZ       0.0747     ZZ    -176.1652

 Total job time:  251.32s(wall), 7856.81s(cpu)
        *  Thank you very much for using Q-Chem.  Have a nice day.  *
