 Q-Chem 5.4, Q-Chem, Inc., Pleasanton, CA (2021)
 Q-Chem 5.4.0 for Intel X86 EM64T Linux

User input:
--------------------------------------------------------------
$molecule
0 1
C	0.195868	-6.741404	-0.166281
C	1.196048	-6.155638	-1.005696
C	-0.634911	-5.791452	0.530233
C	1.409599	-4.803786	-1.184587
H	1.868538	-6.821518	-1.570232
C	-0.410996	-4.378638	0.343266
C	0.608444	-3.838032	-0.511683
C	-1.211179	-3.413062	1.015440
C	0.830559	-2.426473	-0.697165
C	-0.999915	-2.059348	0.838968
C	0.000000	-1.478216	0.000000
H	-1.673009	-1.394783	1.404302
C	-1.741129	-6.187987	1.456059
C	-2.307170	-3.798164	1.934944
N	-2.494766	-5.170003	2.090139
C	2.508468	-4.424987	-2.106725
C	1.936893	-2.036627	-1.624494
N	2.690936	-3.049156	-2.258486
O	-2.042736	-7.353131	1.705414
O	-3.013823	-2.986854	2.529122
O	3.206857	-5.248946	-2.693680
O	2.254108	-0.878829	-1.888802
C	-3.577543	-5.563799	2.997334
H	-3.612920	-6.664085	3.025519
H	-4.536833	-5.147101	2.635109
H	-3.387762	-5.148785	4.005702
C	3.756883	-2.587487	-3.152347
H	4.248464	-3.483329	-3.566218
H	4.478763	-1.964972	-2.590383
H	3.329599	-1.962932	-3.959687
H	0.053215	-7.822318	-0.046998
C	0.000000	0.000000	0.000000
S	0.068929	0.790170	1.580530
C	0.211639	2.421655	0.904911
C	0.086813	0.994207	-0.985400
C	0.201782	2.309433	-0.493528
H	0.066299	0.759454	-2.059934
H	0.278488	3.187020	-1.152593
H	0.288312	3.298992	1.556025
$end

$rem
JOBTYPE		SP
EXCHANGE	HF
CORRELATION	pRIMP2
BASIS		cc-pvtz
METHOD		rimp2
AUX_BASIS	rimp2-cc-pvtz
SOLVENT_METHOD	PCM
PURECART	11111
SYMMETRY	false
MEM_TOTAL	110000
SCF_CONVERGENCE = 6
THRESH=10
GUI = 2
$end

$solvent
dielectric 4.90
$end
--------------------------------------------------------------

             Standard Nuclear Orientation (Angstroms)
    I     Atom           X                Y                Z
 ----------------------------------------------------------------
    1      C       0.1958680000    -6.7414040000    -0.1662810000
    2      C       1.1960480000    -6.1556380000    -1.0056960000
    3      C      -0.6349110000    -5.7914520000     0.5302330000
    4      C       1.4095990000    -4.8037860000    -1.1845870000
    5      H       1.8685380000    -6.8215180000    -1.5702320000
    6      C      -0.4109960000    -4.3786380000     0.3432660000
    7      C       0.6084440000    -3.8380320000    -0.5116830000
    8      C      -1.2111790000    -3.4130620000     1.0154400000
    9      C       0.8305590000    -2.4264730000    -0.6971650000
   10      C      -0.9999150000    -2.0593480000     0.8389680000
   11      C       0.0000000000    -1.4782160000     0.0000000000
   12      H      -1.6730090000    -1.3947830000     1.4043020000
   13      C      -1.7411290000    -6.1879870000     1.4560590000
   14      C      -2.3071700000    -3.7981640000     1.9349440000
   15      N      -2.4947660000    -5.1700030000     2.0901390000
   16      C       2.5084680000    -4.4249870000    -2.1067250000
   17      C       1.9368930000    -2.0366270000    -1.6244940000
   18      N       2.6909360000    -3.0491560000    -2.2584860000
   19      O      -2.0427360000    -7.3531310000     1.7054140000
   20      O      -3.0138230000    -2.9868540000     2.5291220000
   21      O       3.2068570000    -5.2489460000    -2.6936800000
   22      O       2.2541080000    -0.8788290000    -1.8888020000
   23      C      -3.5775430000    -5.5637990000     2.9973340000
   24      H      -3.6129200000    -6.6640850000     3.0255190000
   25      H      -4.5368330000    -5.1471010000     2.6351090000
   26      H      -3.3877620000    -5.1487850000     4.0057020000
   27      C       3.7568830000    -2.5874870000    -3.1523470000
   28      H       4.2484640000    -3.4833290000    -3.5662180000
   29      H       4.4787630000    -1.9649720000    -2.5903830000
   30      H       3.3295990000    -1.9629320000    -3.9596870000
   31      H       0.0532150000    -7.8223180000    -0.0469980000
   32      C       0.0000000000     0.0000000000     0.0000000000
   33      S       0.0689290000     0.7901700000     1.5805300000
   34      C       0.2116390000     2.4216550000     0.9049110000
   35      C       0.0868130000     0.9942070000    -0.9854000000
   36      C       0.2017820000     2.3094330000    -0.4935280000
   37      H       0.0662990000     0.7594540000    -2.0599340000
   38      H       0.2784880000     3.1870200000    -1.1525930000
   39      H       0.2883120000     3.2989920000     1.5560250000
 ----------------------------------------------------------------

   10   -1570.6911558672      7.17e-07  Convergence criterion met
 Total energy in the final basis set =    -1570.6911558672
        RIMP2         total energy =     -1575.3160428768 a.u.

                    Orbital Energies (a.u.)
 --------------------------------------------------------------

 Alpha MOs
 -- Occupied --
-91.9939 -20.5587 -20.5563 -20.5548 -20.5548 -15.6313 -15.6305 -11.4002
-11.3960 -11.3924 -11.3907 -11.3169 -11.3043 -11.3028 -11.3009 -11.2981
-11.2975 -11.2907 -11.2868 -11.2858 -11.2850 -11.2804 -11.2783 -11.2647
-11.2646 -11.2565 -11.2506  -8.9932  -6.6740  -6.6735  -6.6729  -1.4250
 -1.4236  -1.4043  -1.4027  -1.2675  -1.2650  -1.2176  -1.1755  -1.1445
 -1.1174  -1.0635  -1.0500  -0.9930  -0.9898  -0.9842  -0.9591  -0.9483
 -0.8971  -0.8795  -0.8780  -0.8613  -0.7961  -0.7778  -0.7729  -0.7604
 -0.7374  -0.7176  -0.7051  -0.6949  -0.6807  -0.6728  -0.6664  -0.6622
 -0.6567  -0.6422  -0.6372  -0.6332  -0.6295  -0.6127  -0.5867  -0.5843
 -0.5782  -0.5734  -0.5656  -0.5635  -0.5607  -0.5553  -0.5521  -0.5483
 -0.5368  -0.5262  -0.5209  -0.5186  -0.4834  -0.4704  -0.4663  -0.4632
 -0.4600  -0.4533  -0.4283  -0.4182  -0.4091  -0.3658  -0.3534  -0.3362
 -0.3088

          Ground-State Mulliken Net Atomic Charges

     Atom                 Charge (a.u.)
  ----------------------------------------
      1 C                    -0.135616
      2 C                    -0.107683
      3 C                    -0.040691
      4 C                    -0.004015
      5 H                     0.188747
      6 C                    -0.006557
      7 C                     0.076559
      8 C                     0.013401
      9 C                    -0.027135
     10 C                    -0.170906
     11 C                     0.113806
     12 H                     0.183338
     13 C                     0.360914
     14 C                     0.368735
     15 N                    -0.101631
     16 C                     0.360177
     17 C                     0.353611
     18 N                    -0.093925
     19 O                    -0.464565
     20 O                    -0.475951
     21 O                    -0.481114
     22 O                    -0.460139
     23 C                    -0.200918
     24 H                     0.141031
     25 H                     0.112398
     26 H                     0.112539
     27 C                    -0.196358
     28 H                     0.133845
     29 H                     0.113384
     30 H                     0.112179
     31 H                     0.213978
     32 C                    -0.067350
     33 S                     0.032949
     34 C                    -0.204794
     35 C                    -0.135716
     36 C                    -0.208627
     37 H                     0.187409
     38 H                     0.191305
     39 H                     0.213387
  ----------------------------------------
  Sum of atomic charges =     0.000000

                    Cartesian Multipole Moments
 -----------------------------------------------------------------
    Charge (ESU x 10^10)
                 0.0000
    Dipole Moment (Debye)
         X       0.1671      Y       1.3462      Z      -0.9688
       Tot       1.6669
    Quadrupole Moments (Debye-Ang)
        XX    -176.1341     XY       0.6010     YY    -165.1859
        XZ      10.2228     YZ       1.0664     ZZ    -165.9614

 Total job time:  251.23s(wall), 7621.62s(cpu)
        *  Thank you very much for using Q-Chem.  Have a nice day.  *
