 Q-Chem 5.4, Q-Chem, Inc., Pleasanton, CA (2021)
 Q-Chem 5.4.0 for Intel X86 EM64T Linux

User input:
--------------------------------------------------------------
$molecule
0 1
C	-0.127184	-6.741404	0.223244
C	-0.779949	-6.155638	1.354118
C	0.415271	-5.791452	-0.715408
C	-0.919437	-4.803786	1.595259
H	-1.218801	-6.821518	2.114613
C	0.268806	-4.378638	-0.463133
C	-0.396744	-3.838032	0.688925
C	0.790835	-3.413062	-1.368449
C	-0.542026	-2.426473	0.939189
C	0.652669	-2.059348	-1.130363
C	0.000000	-1.478216	0.000000
H	1.091814	-1.394783	-1.891815
C	1.138124	-6.187987	-1.963749
C	1.506241	-3.798164	-2.607351
N	1.629443	-5.170003	-2.817348
C	-1.636646	-4.424987	2.837621
C	-1.264474	-2.036627	2.188982
N	-1.756205	-3.049156	3.042637
O	1.336258	-7.353131	-2.301222
O	1.967056	-2.986854	-3.407386
O	-2.092167	-5.248946	3.628041
O	-1.472160	-0.878829	2.545844
C	2.336642	-5.563799	-4.040164
H	2.360245	-6.664085	-4.078749
H	3.361968	-5.147101	-4.027880
H	1.813424	-5.148785	-4.922811
C	-2.452149	-2.587487	4.247167
H	-2.772531	-3.483329	4.804209
H	-3.322697	-1.964972	3.965991
H	-1.774507	-1.962932	4.859678
H	-0.033931	-7.822318	0.062364
C	0.000000	0.000000	0.000000
S	0.205093	0.766196	1.580530
C	0.628939	2.348114	0.904911
C	0.258137	0.964028	-0.985400
C	0.599745	2.239309	-0.493528
H	0.197169	0.736404	-2.059934
H	0.827678	3.090243	-1.152593
H	0.856796	3.198808	1.556025
$end

$rem
JOBTYPE		SP
EXCHANGE	HF
CORRELATION	pRIMP2
BASIS		cc-pvtz
METHOD		rimp2
AUX_BASIS	rimp2-cc-pvtz
SOLVENT_METHOD	PCM
PURECART	11111
SYMMETRY	false
MEM_TOTAL	110000
SCF_CONVERGENCE = 6
THRESH=10
GUI = 2
$end

$solvent
dielectric 4.90
$end
--------------------------------------------------------------

             Standard Nuclear Orientation (Angstroms)
    I     Atom           X                Y                Z
 ----------------------------------------------------------------
    1      C      -0.1271840000    -6.7414040000     0.2232440000
    2      C      -0.7799490000    -6.1556380000     1.3541180000
    3      C       0.4152710000    -5.7914520000    -0.7154080000
    4      C      -0.9194370000    -4.8037860000     1.5952590000
    5      H      -1.2188010000    -6.8215180000     2.1146130000
    6      C       0.2688060000    -4.3786380000    -0.4631330000
    7      C      -0.3967440000    -3.8380320000     0.6889250000
    8      C       0.7908350000    -3.4130620000    -1.3684490000
    9      C      -0.5420260000    -2.4264730000     0.9391890000
   10      C       0.6526690000    -2.0593480000    -1.1303630000
   11      C       0.0000000000    -1.4782160000     0.0000000000
   12      H       1.0918140000    -1.3947830000    -1.8918150000
   13      C       1.1381240000    -6.1879870000    -1.9637490000
   14      C       1.5062410000    -3.7981640000    -2.6073510000
   15      N       1.6294430000    -5.1700030000    -2.8173480000
   16      C      -1.6366460000    -4.4249870000     2.8376210000
   17      C      -1.2644740000    -2.0366270000     2.1889820000
   18      N      -1.7562050000    -3.0491560000     3.0426370000
   19      O       1.3362580000    -7.3531310000    -2.3012220000
   20      O       1.9670560000    -2.9868540000    -3.4073860000
   21      O      -2.0921670000    -5.2489460000     3.6280410000
   22      O      -1.4721600000    -0.8788290000     2.5458440000
   23      C       2.3366420000    -5.5637990000    -4.0401640000
   24      H       2.3602450000    -6.6640850000    -4.0787490000
   25      H       3.3619680000    -5.1471010000    -4.0278800000
   26      H       1.8134240000    -5.1487850000    -4.9228110000
   27      C      -2.4521490000    -2.5874870000     4.2471670000
   28      H      -2.7725310000    -3.4833290000     4.8042090000
   29      H      -3.3226970000    -1.9649720000     3.9659910000
   30      H      -1.7745070000    -1.9629320000     4.8596780000
   31      H      -0.0339310000    -7.8223180000     0.0623640000
   32      C       0.0000000000     0.0000000000     0.0000000000
   33      S       0.2050930000     0.7661960000     1.5805300000
   34      C       0.6289390000     2.3481140000     0.9049110000
   35      C       0.2581370000     0.9640280000    -0.9854000000
   36      C       0.5997450000     2.2393090000    -0.4935280000
   37      H       0.1971690000     0.7364040000    -2.0599340000
   38      H       0.8276780000     3.0902430000    -1.1525930000
   39      H       0.8567960000     3.1988080000     1.5560250000
 ----------------------------------------------------------------

   10   -1570.6779716286      7.61e-07  Convergence criterion met
 Total energy in the final basis set =    -1570.6779716286
        RIMP2         total energy =     -1575.3091999261 a.u.

                    Orbital Energies (a.u.)
 --------------------------------------------------------------

 Alpha MOs
 -- Occupied --
-91.9844 -20.5588 -20.5567 -20.5551 -20.5539 -15.6314 -15.6304 -11.4001
-11.3967 -11.3916 -11.3910 -11.3191 -11.3024 -11.3011 -11.3002 -11.2962
-11.2952 -11.2902 -11.2869 -11.2841 -11.2821 -11.2795 -11.2780 -11.2648
-11.2644 -11.2617 -11.2470  -8.9839  -6.6644  -6.6637  -6.6631  -1.4257
 -1.4251  -1.4045  -1.4042  -1.2677  -1.2655  -1.2170  -1.1746  -1.1433
 -1.1168  -1.0624  -1.0494  -0.9928  -0.9890  -0.9834  -0.9589  -0.9474
 -0.8967  -0.8794  -0.8776  -0.8616  -0.7941  -0.7771  -0.7745  -0.7620
 -0.7325  -0.7191  -0.7043  -0.6939  -0.6849  -0.6744  -0.6666  -0.6624
 -0.6567  -0.6406  -0.6371  -0.6344  -0.6280  -0.6137  -0.5838  -0.5831
 -0.5804  -0.5712  -0.5689  -0.5663  -0.5642  -0.5556  -0.5546  -0.5486
 -0.5327  -0.5233  -0.5216  -0.5188  -0.4861  -0.4731  -0.4637  -0.4626
 -0.4573  -0.4395  -0.4269  -0.4172  -0.4090  -0.3722  -0.3453  -0.3365
 -0.3010

          Ground-State Mulliken Net Atomic Charges

     Atom                 Charge (a.u.)
  ----------------------------------------
      1 C                    -0.142457
      2 C                    -0.109359
      3 C                    -0.034034
      4 C                    -0.004971
      5 H                     0.188519
      6 C                     0.002886
      7 C                     0.083605
      8 C                     0.002837
      9 C                    -0.069828
     10 C                    -0.136559
     11 C                     0.086923
     12 H                     0.182313
     13 C                     0.359296
     14 C                     0.364646
     15 N                    -0.101638
     16 C                     0.358834
     17 C                     0.367106
     18 N                    -0.095524
     19 O                    -0.464294
     20 O                    -0.476991
     21 O                    -0.482124
     22 O                    -0.469222
     23 C                    -0.201222
     24 H                     0.141224
     25 H                     0.112457
     26 H                     0.112289
     27 C                    -0.197017
     28 H                     0.134136
     29 H                     0.113098
     30 H                     0.113032
     31 H                     0.213017
     32 C                    -0.013117
     33 S                     0.086956
     34 C                    -0.211499
     35 C                    -0.194303
     36 C                    -0.209064
     37 H                     0.189861
     38 H                     0.189068
     39 H                     0.211120
  ----------------------------------------
  Sum of atomic charges =     0.000000

                    Cartesian Multipole Moments
 -----------------------------------------------------------------
    Charge (ESU x 10^10)
                 0.0000
    Dipole Moment (Debye)
         X       0.4204      Y       1.4754      Z      -0.6102
       Tot       1.6510
    Quadrupole Moments (Debye-Ang)
        XX    -168.4939     XY       2.8043     YY    -168.6858
        XZ       8.7842     YZ       0.7150     ZZ    -172.1136

 Total job time:  295.03s(wall), 8948.10s(cpu)
        *  Thank you very much for using Q-Chem.  Have a nice day.  *
