 Q-Chem 5.4, Q-Chem, Inc., Pleasanton, CA (2021)
 Q-Chem 5.4.0 for Intel X86 EM64T Linux

User input:
--------------------------------------------------------------
$molecule
0 1
C	0.089263	-6.741404	0.240927
C	0.535973	-6.155638	1.467886
C	-0.281103	-5.791452	-0.777972
C	0.631036	-4.803786	1.729742
H	0.836458	-6.821518	2.292903
C	-0.181995	-4.378638	-0.503614
C	0.272725	-3.838032	0.746756
C	-0.539954	-3.413062	-1.485437
C	0.371053	-2.426473	1.018915
C	-0.446381	-2.059348	-1.226557
C	-0.000000	-1.478216	-0.000000
H	-0.747410	-1.394783	-2.052413
C	-0.772747	-6.187987	-2.134128
C	-1.029154	-3.798164	-2.829820
N	-1.110828	-5.170003	-3.059182
C	1.121728	-4.424987	3.077731
C	0.864069	-2.036627	2.375694
N	1.201928	-3.049156	3.301101
O	-0.903908	-7.353131	-2.502830
O	-1.345809	-2.986854	-3.697078
O	1.434422	-5.248946	3.934752
O	1.003943	-0.878829	2.764177
C	-1.592981	-5.563799	-4.386939
H	-1.607367	-6.664085	-4.429822
H	-0.924504	-5.147101	-5.164489
H	-2.605446	-5.148785	-4.553486
C	1.677308	-2.587487	4.608481
H	1.898089	-3.483329	5.211969
H	0.902337	-1.964972	5.094624
H	2.582098	-1.962932	4.483092
H	0.025963	-7.822318	0.066080
C	0.000000	0.000000	0.000000
S	0.271091	0.745405	1.580530
C	0.831198	2.284363	0.904911
C	0.341175	0.937861	-0.985400
C	0.792631	2.178516	-0.493528
H	0.260601	0.716417	-2.059934
H	1.093860	3.006347	-1.152593
H	1.132330	3.111961	1.556025
$end

$rem
JOBTYPE		SP
EXCHANGE	HF
CORRELATION	pRIMP2
BASIS		cc-pvtz
METHOD		rimp2
AUX_BASIS	rimp2-cc-pvtz
SOLVENT_METHOD	PCM
PURECART	11111
SYMMETRY	false
MEM_TOTAL	110000
SCF_CONVERGENCE = 6
THRESH=10
GUI = 2
$end

$solvent
dielectric 4.90
$end
--------------------------------------------------------------

             Standard Nuclear Orientation (Angstroms)
    I     Atom           X                Y                Z
 ----------------------------------------------------------------
    1      C       0.0892630000    -6.7414040000     0.2409270000
    2      C       0.5359730000    -6.1556380000     1.4678860000
    3      C      -0.2811030000    -5.7914520000    -0.7779720000
    4      C       0.6310360000    -4.8037860000     1.7297420000
    5      H       0.8364580000    -6.8215180000     2.2929030000
    6      C      -0.1819950000    -4.3786380000    -0.5036140000
    7      C       0.2727250000    -3.8380320000     0.7467560000
    8      C      -0.5399540000    -3.4130620000    -1.4854370000
    9      C       0.3710530000    -2.4264730000     1.0189150000
   10      C      -0.4463810000    -2.0593480000    -1.2265570000
   11      C       0.0000000000    -1.4782160000     0.0000000000
   12      H      -0.7474100000    -1.3947830000    -2.0524130000
   13      C      -0.7727470000    -6.1879870000    -2.1341280000
   14      C      -1.0291540000    -3.7981640000    -2.8298200000
   15      N      -1.1108280000    -5.1700030000    -3.0591820000
   16      C       1.1217280000    -4.4249870000     3.0777310000
   17      C       0.8640690000    -2.0366270000     2.3756940000
   18      N       1.2019280000    -3.0491560000     3.3011010000
   19      O      -0.9039080000    -7.3531310000    -2.5028300000
   20      O      -1.3458090000    -2.9868540000    -3.6970780000
   21      O       1.4344220000    -5.2489460000     3.9347520000
   22      O       1.0039430000    -0.8788290000     2.7641770000
   23      C      -1.5929810000    -5.5637990000    -4.3869390000
   24      H      -1.6073670000    -6.6640850000    -4.4298220000
   25      H      -0.9245040000    -5.1471010000    -5.1644890000
   26      H      -2.6054460000    -5.1487850000    -4.5534860000
   27      C       1.6773080000    -2.5874870000     4.6084810000
   28      H       1.8980890000    -3.4833290000     5.2119690000
   29      H       0.9023370000    -1.9649720000     5.0946240000
   30      H       2.5820980000    -1.9629320000     4.4830920000
   31      H       0.0259630000    -7.8223180000     0.0660800000
   32      C       0.0000000000     0.0000000000     0.0000000000
   33      S       0.2710910000     0.7454050000     1.5805300000
   34      C       0.8311980000     2.2843630000     0.9049110000
   35      C       0.3411750000     0.9378610000    -0.9854000000
   36      C       0.7926310000     2.1785160000    -0.4935280000
   37      H       0.2606010000     0.7164170000    -2.0599340000
   38      H       1.0938600000     3.0063470000    -1.1525930000
   39      H       1.1323300000     3.1119610000     1.5560250000
 ----------------------------------------------------------------

   10   -1570.6273328442      9.84e-07  Convergence criterion met
 Total energy in the final basis set =    -1570.6273328442
        RIMP2         total energy =     -1575.2714157104 a.u.

                    Orbital Energies (a.u.)
 --------------------------------------------------------------

 Alpha MOs
 -- Occupied --
-91.9800 -20.5590 -20.5569 -20.5569 -20.5545 -15.6329 -15.6315 -11.4016
-11.4002 -11.3922 -11.3911 -11.3212 -11.3025 -11.3013 -11.2985 -11.2949
-11.2934 -11.2876 -11.2841 -11.2832 -11.2792 -11.2775 -11.2734 -11.2660
-11.2648 -11.2580 -11.2389  -8.9799  -6.6602  -6.6589  -6.6580  -1.4350
 -1.4252  -1.4083  -1.4046  -1.2706  -1.2667  -1.2169  -1.1715  -1.1418
 -1.1166  -1.0611  -1.0496  -0.9934  -0.9894  -0.9802  -0.9597  -0.9466
 -0.8978  -0.8806  -0.8775  -0.8636  -0.7928  -0.7788  -0.7772  -0.7583
 -0.7322  -0.7280  -0.7027  -0.6926  -0.6891  -0.6740  -0.6684  -0.6635
 -0.6576  -0.6410  -0.6397  -0.6368  -0.6275  -0.6145  -0.5847  -0.5821
 -0.5806  -0.5754  -0.5699  -0.5651  -0.5619  -0.5565  -0.5564  -0.5494
 -0.5335  -0.5239  -0.5230  -0.5185  -0.4867  -0.4706  -0.4694  -0.4636
 -0.4569  -0.4338  -0.4213  -0.4103  -0.4038  -0.3734  -0.3376  -0.3173
 -0.2956

          Ground-State Mulliken Net Atomic Charges

     Atom                 Charge (a.u.)
  ----------------------------------------
      1 C                    -0.148433
      2 C                    -0.109751
      3 C                    -0.030404
      4 C                    -0.006112
      5 H                     0.187994
      6 C                    -0.004005
      7 C                     0.086498
      8 C                     0.002177
      9 C                    -0.105019
     10 C                    -0.146508
     11 C                     0.090362
     12 H                     0.183063
     13 C                     0.360185
     14 C                     0.364879
     15 N                    -0.101761
     16 C                     0.359518
     17 C                     0.405730
     18 N                    -0.093640
     19 O                    -0.463662
     20 O                    -0.476180
     21 O                    -0.481886
     22 O                    -0.437600
     23 C                    -0.201051
     24 H                     0.141173
     25 H                     0.112378
     26 H                     0.112466
     27 C                    -0.199116
     28 H                     0.135206
     29 H                     0.113741
     30 H                     0.113591
     31 H                     0.212383
     32 C                    -0.054794
     33 S                     0.101150
     34 C                    -0.207021
     35 C                    -0.139258
     36 C                    -0.254051
     37 H                     0.187098
     38 H                     0.183828
     39 H                     0.206833
  ----------------------------------------
  Sum of atomic charges =     0.000000

                    Cartesian Multipole Moments
 -----------------------------------------------------------------
    Charge (ESU x 10^10)
                 0.0000
    Dipole Moment (Debye)
         X       0.9867      Y       0.9643      Z       0.2096
       Tot       1.3955
    Quadrupole Moments (Debye-Ang)
        XX    -165.0247     XY       3.1632     YY    -171.9665
        XZ      -4.9478     YZ       0.4766     ZZ    -173.0295

 Total job time:  274.37s(wall), 8842.66s(cpu)
        *  Thank you very much for using Q-Chem.  Have a nice day.  *
