 Q-Chem 5.4, Q-Chem, Inc., Pleasanton, CA (2021)
 Q-Chem 5.4.0 for Intel X86 EM64T Linux

User input:
--------------------------------------------------------------
$molecule
0 1
C	0.195868	-6.741404	-0.166281
C	1.196048	-6.155638	-1.005696
C	-0.634911	-5.791452	0.530233
C	1.409599	-4.803786	-1.184587
H	1.868538	-6.821518	-1.570232
C	-0.410996	-4.378638	0.343266
C	0.608444	-3.838032	-0.511683
C	-1.211179	-3.413062	1.015440
C	0.830559	-2.426473	-0.697165
C	-0.999915	-2.059348	0.838968
C	-0.000000	-1.478216	-0.000000
H	-1.673009	-1.394783	1.404302
C	-1.741129	-6.187987	1.456059
C	-2.307170	-3.798164	1.934944
N	-2.494766	-5.170003	2.090139
C	2.508468	-4.424987	-2.106725
C	1.936893	-2.036627	-1.624494
N	2.690936	-3.049156	-2.258486
O	-2.042736	-7.353131	1.705414
O	-3.013823	-2.986854	2.529122
O	3.206857	-5.248946	-2.693680
O	2.254108	-0.878829	-1.888802
C	-3.577543	-5.563799	2.997334
H	-3.612920	-6.664085	3.025519
H	-4.536833	-5.147101	2.635109
H	-3.387762	-5.148785	4.005702
C	3.756883	-2.587487	-3.152347
H	4.248464	-3.483329	-3.566218
H	4.478763	-1.964972	-2.590383
H	3.329599	-1.962932	-3.959687
H	0.053215	-7.822318	-0.046998
C	0.000000	0.000000	0.000000
S	0.335026	0.718942	1.580530
C	1.027130	2.203226	0.904911
C	0.421617	0.904557	-0.985400
C	0.979485	2.101144	-0.493528
H	0.322049	0.690978	-2.059934
H	1.351718	2.899571	-1.152593
H	1.399246	3.001430	1.556025
$end

$rem
JOBTYPE		SP
EXCHANGE	HF
CORRELATION	pRIMP2
BASIS		cc-pvtz
METHOD		rimp2
AUX_BASIS	rimp2-cc-pvtz
SOLVENT_METHOD	PCM
PURECART	11111
SYMMETRY	false
MEM_TOTAL	110000
SCF_CONVERGENCE = 6
THRESH=10
GUI = 2
$end

$solvent
dielectric 4.90
$end
--------------------------------------------------------------

             Standard Nuclear Orientation (Angstroms)
    I     Atom           X                Y                Z
 ----------------------------------------------------------------
    1      C       0.1958680000    -6.7414040000    -0.1662810000
    2      C       1.1960480000    -6.1556380000    -1.0056960000
    3      C      -0.6349110000    -5.7914520000     0.5302330000
    4      C       1.4095990000    -4.8037860000    -1.1845870000
    5      H       1.8685380000    -6.8215180000    -1.5702320000
    6      C      -0.4109960000    -4.3786380000     0.3432660000
    7      C       0.6084440000    -3.8380320000    -0.5116830000
    8      C      -1.2111790000    -3.4130620000     1.0154400000
    9      C       0.8305590000    -2.4264730000    -0.6971650000
   10      C      -0.9999150000    -2.0593480000     0.8389680000
   11      C       0.0000000000    -1.4782160000     0.0000000000
   12      H      -1.6730090000    -1.3947830000     1.4043020000
   13      C      -1.7411290000    -6.1879870000     1.4560590000
   14      C      -2.3071700000    -3.7981640000     1.9349440000
   15      N      -2.4947660000    -5.1700030000     2.0901390000
   16      C       2.5084680000    -4.4249870000    -2.1067250000
   17      C       1.9368930000    -2.0366270000    -1.6244940000
   18      N       2.6909360000    -3.0491560000    -2.2584860000
   19      O      -2.0427360000    -7.3531310000     1.7054140000
   20      O      -3.0138230000    -2.9868540000     2.5291220000
   21      O       3.2068570000    -5.2489460000    -2.6936800000
   22      O       2.2541080000    -0.8788290000    -1.8888020000
   23      C      -3.5775430000    -5.5637990000     2.9973340000
   24      H      -3.6129200000    -6.6640850000     3.0255190000
   25      H      -4.5368330000    -5.1471010000     2.6351090000
   26      H      -3.3877620000    -5.1487850000     4.0057020000
   27      C       3.7568830000    -2.5874870000    -3.1523470000
   28      H       4.2484640000    -3.4833290000    -3.5662180000
   29      H       4.4787630000    -1.9649720000    -2.5903830000
   30      H       3.3295990000    -1.9629320000    -3.9596870000
   31      H       0.0532150000    -7.8223180000    -0.0469980000
   32      C       0.0000000000     0.0000000000     0.0000000000
   33      S       0.3350260000     0.7189420000     1.5805300000
   34      C       1.0271300000     2.2032260000     0.9049110000
   35      C       0.4216170000     0.9045570000    -0.9854000000
   36      C       0.9794850000     2.1011440000    -0.4935280000
   37      H       0.3220490000     0.6909780000    -2.0599340000
   38      H       1.3517180000     2.8995710000    -1.1525930000
   39      H       1.3992460000     3.0014300000     1.5560250000
 ----------------------------------------------------------------

   10   -1570.6784725796      8.40e-07  Convergence criterion met
 Total energy in the final basis set =    -1570.6784725796
        RIMP2         total energy =     -1575.3061367273 a.u.

                    Orbital Energies (a.u.)
 --------------------------------------------------------------

 Alpha MOs
 -- Occupied --
-91.9932 -20.5582 -20.5558 -20.5541 -20.5528 -15.6308 -15.6299 -11.3997
-11.3951 -11.3916 -11.3900 -11.3158 -11.3020 -11.3010 -11.2996 -11.2962
-11.2958 -11.2905 -11.2856 -11.2844 -11.2814 -11.2794 -11.2761 -11.2645
-11.2642 -11.2602 -11.2502  -8.9926  -6.6734  -6.6729  -6.6723  -1.4245
 -1.4231  -1.4038  -1.4022  -1.2669  -1.2645  -1.2164  -1.1760  -1.1435
 -1.1161  -1.0622  -1.0487  -0.9923  -0.9892  -0.9852  -0.9586  -0.9478
 -0.8960  -0.8788  -0.8759  -0.8607  -0.7947  -0.7765  -0.7723  -0.7610
 -0.7363  -0.7179  -0.7045  -0.6939  -0.6803  -0.6720  -0.6658  -0.6617
 -0.6559  -0.6415  -0.6364  -0.6331  -0.6282  -0.6120  -0.5865  -0.5839
 -0.5769  -0.5751  -0.5650  -0.5624  -0.5600  -0.5550  -0.5513  -0.5480
 -0.5356  -0.5251  -0.5210  -0.5166  -0.4825  -0.4706  -0.4646  -0.4616
 -0.4588  -0.4526  -0.4276  -0.4178  -0.4083  -0.3670  -0.3496  -0.3355
 -0.3072

          Ground-State Mulliken Net Atomic Charges

     Atom                 Charge (a.u.)
  ----------------------------------------
      1 C                    -0.139618
      2 C                    -0.107875
      3 C                    -0.039093
      4 C                    -0.005345
      5 H                     0.188174
      6 C                    -0.014125
      7 C                     0.081830
      8 C                     0.025238
      9 C                    -0.030140
     10 C                    -0.186953
     11 C                     0.118666
     12 H                     0.180120
     13 C                     0.361133
     14 C                     0.365753
     15 N                    -0.101236
     16 C                     0.359500
     17 C                     0.373105
     18 N                    -0.093596
     19 O                    -0.464783
     20 O                    -0.476076
     21 O                    -0.482031
     22 O                    -0.467205
     23 C                    -0.201081
     24 H                     0.140950
     25 H                     0.112278
     26 H                     0.112408
     27 C                    -0.196815
     28 H                     0.133954
     29 H                     0.113099
     30 H                     0.111669
     31 H                     0.213301
     32 C                    -0.095287
     33 S                     0.038236
     34 C                    -0.193795
     35 C                    -0.127858
     36 C                    -0.198492
     37 H                     0.187152
     38 H                     0.190279
     39 H                     0.214558
  ----------------------------------------
  Sum of atomic charges =     0.000000

                    Cartesian Multipole Moments
 -----------------------------------------------------------------
    Charge (ESU x 10^10)
                 0.0000
    Dipole Moment (Debye)
         X       1.1077      Y       1.7814      Z      -1.0652
       Tot       2.3526
    Quadrupole Moments (Debye-Ang)
        XX    -174.2356     XY       4.4858     YY    -168.8853
        XZ      10.6307     YZ       0.8884     ZZ    -165.9974

 Total job time:  249.33s(wall), 7825.24s(cpu)
        *  Thank you very much for using Q-Chem.  Have a nice day.  *
