 Q-Chem 5.4, Q-Chem, Inc., Pleasanton, CA (2021)
 Q-Chem 5.4.0 for Intel X86 EM64T Linux

User input:
--------------------------------------------------------------
$molecule
0 1
C	0.253280	-6.741404	0.043160
C	1.539213	-6.155638	0.269777
C	-0.814295	-5.791452	-0.145543
C	1.813519	-4.803786	0.318377
H	2.403941	-6.821518	0.422058
C	-0.527140	-4.378638	-0.094194
C	0.783072	-3.838032	0.137191
C	-1.556403	-3.413062	-0.275104
C	1.067932	-2.426473	0.188116
C	-1.285420	-2.059348	-0.226701
C	-0.000000	-1.478216	-0.000000
H	-2.151147	-1.394783	-0.378931
C	-2.234582	-6.187987	-0.397845
C	-2.965273	-3.798164	-0.523637
N	-3.204744	-5.170003	-0.567586
C	3.226257	-4.424987	0.567421
C	2.489446	-2.036627	0.439541
N	3.459801	-3.049156	0.609650
O	-2.619468	-7.353131	-0.468608
O	-3.874668	-2.986854	-0.683034
O	4.124806	-5.248946	0.725131
O	2.895819	-0.878829	0.512648
C	-4.595691	-5.563799	-0.813908
H	-4.640022	-6.664085	-0.822891
H	-4.934830	-5.147101	-1.781600
H	-5.246157	-5.148785	-0.020360
C	4.829716	-2.587487	0.851649
H	5.462742	-3.483329	0.962191
H	4.863242	-1.964972	1.765865
H	5.173521	-1.962932	0.005383
H	0.070208	-7.822318	0.010555
C	0.000000	0.000000	0.000000
S	0.335026	0.718942	1.580530
C	1.027130	2.203226	0.904911
C	0.421617	0.904557	-0.985400
C	0.979485	2.101144	-0.493528
H	0.322049	0.690978	-2.059934
H	1.351718	2.899571	-1.152593
H	1.399246	3.001430	1.556025
$end

$rem
JOBTYPE		SP
EXCHANGE	HF
CORRELATION	pRIMP2
BASIS		cc-pvtz
METHOD		rimp2
AUX_BASIS	rimp2-cc-pvtz
SOLVENT_METHOD	PCM
PURECART	11111
SYMMETRY	false
MEM_TOTAL	110000
SCF_CONVERGENCE = 6
THRESH=10
GUI = 2
$end

$solvent
dielectric 4.90
$end
--------------------------------------------------------------

             Standard Nuclear Orientation (Angstroms)
    I     Atom           X                Y                Z
 ----------------------------------------------------------------
    1      C       0.2532800000    -6.7414040000     0.0431600000
    2      C       1.5392130000    -6.1556380000     0.2697770000
    3      C      -0.8142950000    -5.7914520000    -0.1455430000
    4      C       1.8135190000    -4.8037860000     0.3183770000
    5      H       2.4039410000    -6.8215180000     0.4220580000
    6      C      -0.5271400000    -4.3786380000    -0.0941940000
    7      C       0.7830720000    -3.8380320000     0.1371910000
    8      C      -1.5564030000    -3.4130620000    -0.2751040000
    9      C       1.0679320000    -2.4264730000     0.1881160000
   10      C      -1.2854200000    -2.0593480000    -0.2267010000
   11      C       0.0000000000    -1.4782160000     0.0000000000
   12      H      -2.1511470000    -1.3947830000    -0.3789310000
   13      C      -2.2345820000    -6.1879870000    -0.3978450000
   14      C      -2.9652730000    -3.7981640000    -0.5236370000
   15      N      -3.2047440000    -5.1700030000    -0.5675860000
   16      C       3.2262570000    -4.4249870000     0.5674210000
   17      C       2.4894460000    -2.0366270000     0.4395410000
   18      N       3.4598010000    -3.0491560000     0.6096500000
   19      O      -2.6194680000    -7.3531310000    -0.4686080000
   20      O      -3.8746680000    -2.9868540000    -0.6830340000
   21      O       4.1248060000    -5.2489460000     0.7251310000
   22      O       2.8958190000    -0.8788290000     0.5126480000
   23      C      -4.5956910000    -5.5637990000    -0.8139080000
   24      H      -4.6400220000    -6.6640850000    -0.8228910000
   25      H      -4.9348300000    -5.1471010000    -1.7816000000
   26      H      -5.2461570000    -5.1487850000    -0.0203600000
   27      C       4.8297160000    -2.5874870000     0.8516490000
   28      H       5.4627420000    -3.4833290000     0.9621910000
   29      H       4.8632420000    -1.9649720000     1.7658650000
   30      H       5.1735210000    -1.9629320000     0.0053830000
   31      H       0.0702080000    -7.8223180000     0.0105550000
   32      C       0.0000000000     0.0000000000     0.0000000000
   33      S       0.3350260000     0.7189420000     1.5805300000
   34      C       1.0271300000     2.2032260000     0.9049110000
   35      C       0.4216170000     0.9045570000    -0.9854000000
   36      C       0.9794850000     2.1011440000    -0.4935280000
   37      H       0.3220490000     0.6909780000    -2.0599340000
   38      H       1.3517180000     2.8995710000    -1.1525930000
   39      H       1.3992460000     3.0014300000     1.5560250000
 ----------------------------------------------------------------

   10   -1570.6771840421      7.75e-07  Convergence criterion met
 Total energy in the final basis set =    -1570.6771840421
        RIMP2         total energy =     -1575.3053081355 a.u.

                    Orbital Energies (a.u.)
 --------------------------------------------------------------

 Alpha MOs
 -- Occupied --
-91.9881 -20.5585 -20.5559 -20.5554 -20.5549 -15.6310 -15.6303 -11.4001
-11.3952 -11.3925 -11.3901 -11.3141 -11.3062 -11.3028 -11.3008 -11.2988
-11.2986 -11.2866 -11.2850 -11.2847 -11.2844 -11.2806 -11.2759 -11.2645
-11.2644 -11.2589 -11.2488  -8.9875  -6.6683  -6.6678  -6.6672  -1.4247
 -1.4234  -1.4040  -1.4025  -1.2673  -1.2648  -1.2174  -1.1740  -1.1436
 -1.1173  -1.0623  -1.0496  -0.9929  -0.9885  -0.9822  -0.9590  -0.9485
 -0.8966  -0.8795  -0.8760  -0.8611  -0.7939  -0.7767  -0.7730  -0.7593
 -0.7359  -0.7187  -0.7051  -0.6949  -0.6799  -0.6721  -0.6661  -0.6619
 -0.6568  -0.6423  -0.6372  -0.6340  -0.6297  -0.6122  -0.5852  -0.5840
 -0.5771  -0.5727  -0.5661  -0.5639  -0.5616  -0.5550  -0.5527  -0.5483
 -0.5361  -0.5264  -0.5204  -0.5084  -0.4822  -0.4702  -0.4648  -0.4598
 -0.4567  -0.4514  -0.4278  -0.4180  -0.4087  -0.3545  -0.3473  -0.3327
 -0.3240

          Ground-State Mulliken Net Atomic Charges

     Atom                 Charge (a.u.)
  ----------------------------------------
      1 C                    -0.130598
      2 C                    -0.108070
      3 C                    -0.043911
      4 C                    -0.000651
      5 H                     0.188626
      6 C                    -0.005849
      7 C                     0.067192
      8 C                     0.015404
      9 C                     0.009571
     10 C                    -0.148510
     11 C                     0.069574
     12 H                     0.179243
     13 C                     0.361050
     14 C                     0.367214
     15 N                    -0.101670
     16 C                     0.357970
     17 C                     0.364304
     18 N                    -0.094758
     19 O                    -0.464983
     20 O                    -0.476155
     21 O                    -0.480715
     22 O                    -0.455334
     23 C                    -0.201073
     24 H                     0.141012
     25 H                     0.112217
     26 H                     0.112514
     27 C                    -0.196652
     28 H                     0.133600
     29 H                     0.113045
     30 H                     0.112728
     31 H                     0.214447
     32 C                    -0.058500
     33 S                     0.032892
     34 C                    -0.195681
     35 C                    -0.182084
     36 C                    -0.197592
     37 H                     0.188328
     38 H                     0.190824
     39 H                     0.211029
  ----------------------------------------
  Sum of atomic charges =     0.000000

                    Cartesian Multipole Moments
 -----------------------------------------------------------------
    Charge (ESU x 10^10)
                 0.0000
    Dipole Moment (Debye)
         X       1.1769      Y       0.9554      Z      -0.9038
       Tot       1.7649
    Quadrupole Moments (Debye-Ang)
        XX    -181.9673     XY       3.5956     YY    -166.8156
        XZ      -2.9537     YZ       0.4421     ZZ    -158.0796

 Total job time:  261.15s(wall), 8270.38s(cpu)
        *  Thank you very much for using Q-Chem.  Have a nice day.  *
