 Q-Chem 5.4, Q-Chem, Inc., Pleasanton, CA (2021)
 Q-Chem 5.4.0 for Intel X86 EM64T Linux

User input:
--------------------------------------------------------------
$molecule
0 1
C	0.221766	-6.741404	-0.129743
C	1.352515	-6.155638	-0.782726
C	-0.717339	-5.791452	0.411926
C	1.593885	-4.803786	-0.921816
H	2.112819	-6.821518	-1.221908
C	-0.464360	-4.378638	0.266682
C	0.688053	-3.838032	-0.398255
C	-1.369108	-3.413062	0.789694
C	0.939002	-2.426473	-0.542349
C	-1.130409	-2.059348	0.652589
C	-0.000000	-1.478216	-0.000000
H	-1.891446	-1.394783	1.092453
C	-1.967519	-6.187987	1.131595
C	-2.608118	-3.798164	1.504912
N	-2.819813	-5.170003	1.625174
C	2.836188	-4.424987	-1.639129
C	2.189558	-2.036627	-1.263477
N	3.042237	-3.049156	-1.756898
O	-2.307845	-7.353131	1.324787
O	-3.407213	-2.986854	1.967354
O	3.625890	-5.248946	-2.095892
O	2.547850	-0.878829	-1.468685
C	-4.043674	-5.563799	2.330564
H	-4.083407	-6.664085	2.352178
H	-4.925490	-5.147101	1.807263
H	-4.031877	-5.148785	3.356568
C	4.247206	-2.587487	-2.452080
H	4.803187	-3.483329	-2.774302
H	4.860536	-1.964972	-1.773301
H	3.966607	-1.962932	-3.321351
H	0.060567	-7.822318	-0.037043
C	0.000000	0.000000	0.000000
S	-0.000201	0.793171	1.580530
C	-0.000228	2.430885	0.904911
C	-0.000168	0.997990	-0.985400
C	-0.000267	2.318231	-0.493528
H	-0.000145	0.762343	-2.059934
H	-0.000339	3.199164	-1.152593
H	-0.000311	3.311566	1.556025
$end

$rem
JOBTYPE		SP
EXCHANGE	HF
CORRELATION	pRIMP2
BASIS		cc-pvtz
METHOD		rimp2
AUX_BASIS	rimp2-cc-pvtz
SOLVENT_METHOD	PCM
PURECART	11111
SYMMETRY	false
MEM_TOTAL	110000
SCF_CONVERGENCE = 6
THRESH=10
GUI = 2
$end

$solvent
dielectric 4.90
$end
--------------------------------------------------------------

             Standard Nuclear Orientation (Angstroms)
    I     Atom           X                Y                Z
 ----------------------------------------------------------------
    1      C       0.2217660000    -6.7414040000    -0.1297430000
    2      C       1.3525150000    -6.1556380000    -0.7827260000
    3      C      -0.7173390000    -5.7914520000     0.4119260000
    4      C       1.5938850000    -4.8037860000    -0.9218160000
    5      H       2.1128190000    -6.8215180000    -1.2219080000
    6      C      -0.4643600000    -4.3786380000     0.2666820000
    7      C       0.6880530000    -3.8380320000    -0.3982550000
    8      C      -1.3691080000    -3.4130620000     0.7896940000
    9      C       0.9390020000    -2.4264730000    -0.5423490000
   10      C      -1.1304090000    -2.0593480000     0.6525890000
   11      C       0.0000000000    -1.4782160000     0.0000000000
   12      H      -1.8914460000    -1.3947830000     1.0924530000
   13      C      -1.9675190000    -6.1879870000     1.1315950000
   14      C      -2.6081180000    -3.7981640000     1.5049120000
   15      N      -2.8198130000    -5.1700030000     1.6251740000
   16      C       2.8361880000    -4.4249870000    -1.6391290000
   17      C       2.1895580000    -2.0366270000    -1.2634770000
   18      N       3.0422370000    -3.0491560000    -1.7568980000
   19      O      -2.3078450000    -7.3531310000     1.3247870000
   20      O      -3.4072130000    -2.9868540000     1.9673540000
   21      O       3.6258900000    -5.2489460000    -2.0958920000
   22      O       2.5478500000    -0.8788290000    -1.4686850000
   23      C      -4.0436740000    -5.5637990000     2.3305640000
   24      H      -4.0834070000    -6.6640850000     2.3521780000
   25      H      -4.9254900000    -5.1471010000     1.8072630000
   26      H      -4.0318770000    -5.1487850000     3.3565680000
   27      C       4.2472060000    -2.5874870000    -2.4520800000
   28      H       4.8031870000    -3.4833290000    -2.7743020000
   29      H       4.8605360000    -1.9649720000    -1.7733010000
   30      H       3.9666070000    -1.9629320000    -3.3213510000
   31      H       0.0605670000    -7.8223180000    -0.0370430000
   32      C       0.0000000000     0.0000000000     0.0000000000
   33      S      -0.0002010000     0.7931710000     1.5805300000
   34      C      -0.0002280000     2.4308850000     0.9049110000
   35      C      -0.0001680000     0.9979900000    -0.9854000000
   36      C      -0.0002670000     2.3182310000    -0.4935280000
   37      H      -0.0001450000     0.7623430000    -2.0599340000
   38      H      -0.0003390000     3.1991640000    -1.1525930000
   39      H      -0.0003110000     3.3115660000     1.5560250000
 ----------------------------------------------------------------

   10   -1570.6915758662      7.02e-07  Convergence criterion met
 Total energy in the final basis set =    -1570.6915758662
        RIMP2         total energy =     -1575.3156038773 a.u.

                    Orbital Energies (a.u.)
 --------------------------------------------------------------

 Alpha MOs
 -- Occupied --
-91.9935 -20.5588 -20.5563 -20.5560 -20.5553 -15.6314 -15.6310 -11.4004
-11.3967 -11.3929 -11.3907 -11.3165 -11.3062 -11.3031 -11.3012 -11.2991
-11.2985 -11.2924 -11.2867 -11.2866 -11.2827 -11.2808 -11.2788 -11.2648
-11.2646 -11.2554 -11.2504  -8.9927  -6.6736  -6.6731  -6.6725  -1.4250
 -1.4241  -1.4043  -1.4031  -1.2677  -1.2654  -1.2181  -1.1752  -1.1446
 -1.1179  -1.0637  -1.0504  -0.9932  -0.9898  -0.9835  -0.9594  -0.9485
 -0.8975  -0.8798  -0.8783  -0.8614  -0.7962  -0.7779  -0.7731  -0.7597
 -0.7379  -0.7180  -0.7054  -0.6953  -0.6808  -0.6730  -0.6666  -0.6624
 -0.6570  -0.6425  -0.6376  -0.6337  -0.6301  -0.6128  -0.5862  -0.5845
 -0.5783  -0.5732  -0.5660  -0.5641  -0.5608  -0.5554  -0.5524  -0.5486
 -0.5366  -0.5267  -0.5206  -0.5178  -0.4837  -0.4707  -0.4667  -0.4627
 -0.4603  -0.4536  -0.4285  -0.4183  -0.4091  -0.3614  -0.3538  -0.3359
 -0.3135

          Ground-State Mulliken Net Atomic Charges

     Atom                 Charge (a.u.)
  ----------------------------------------
      1 C                    -0.132655
      2 C                    -0.107472
      3 C                    -0.042047
      4 C                    -0.002533
      5 H                     0.188941
      6 C                    -0.004225
      7 C                     0.074324
      8 C                     0.006179
      9 C                    -0.018375
     10 C                    -0.147224
     11 C                     0.087058
     12 H                     0.186670
     13 C                     0.360902
     14 C                     0.368210
     15 N                    -0.101780
     16 C                     0.360235
     17 C                     0.349195
     18 N                    -0.095314
     19 O                    -0.464719
     20 O                    -0.475994
     21 O                    -0.480230
     22 O                    -0.457614
     23 C                    -0.200950
     24 H                     0.141039
     25 H                     0.112441
     26 H                     0.112606
     27 C                    -0.196080
     28 H                     0.133835
     29 H                     0.113589
     30 H                     0.112490
     31 H                     0.214316
     32 C                    -0.053048
     33 S                     0.031744
     34 C                    -0.208592
     35 C                    -0.150110
     36 C                    -0.205910
     37 H                     0.187465
     38 H                     0.191312
     39 H                     0.212317
  ----------------------------------------
  Sum of atomic charges =     0.000000

                    Cartesian Multipole Moments
 -----------------------------------------------------------------
    Charge (ESU x 10^10)
                 0.0000
    Dipole Moment (Debye)
         X       0.0068      Y       1.0133      Z      -0.9756
       Tot       1.4066
    Quadrupole Moments (Debye-Ang)
        XX    -179.4400     XY      -0.7544     YY    -164.2581
        XZ       8.8413     YZ       1.1099     ZZ    -162.5854

 Total job time:  266.20s(wall), 7885.01s(cpu)
        *  Thank you very much for using Q-Chem.  Have a nice day.  *
