 Q-Chem 5.4, Q-Chem, Inc., Pleasanton, CA (2021)
 Q-Chem 5.4.0 for Intel X86 EM64T Linux

User input:
--------------------------------------------------------------
$molecule
0 1
C	-0.127184	-6.741404	0.223244
C	-0.779949	-6.155638	1.354118
C	0.415271	-5.791452	-0.715408
C	-0.919437	-4.803786	1.595259
H	-1.218801	-6.821518	2.114613
C	0.268806	-4.378638	-0.463133
C	-0.396744	-3.838032	0.688925
C	0.790835	-3.413062	-1.368449
C	-0.542026	-2.426473	0.939189
C	0.652669	-2.059348	-1.130363
C	-0.000000	-1.478216	-0.000000
H	1.091814	-1.394783	-1.891815
C	1.138124	-6.187987	-1.963749
C	1.506241	-3.798164	-2.607351
N	1.629443	-5.170003	-2.817348
C	-1.636646	-4.424987	2.837621
C	-1.264474	-2.036627	2.188982
N	-1.756205	-3.049156	3.042637
O	1.336258	-7.353131	-2.301222
O	1.967056	-2.986854	-3.407386
O	-2.092167	-5.248946	3.628041
O	-1.472160	-0.878829	2.545844
C	2.336642	-5.563799	-4.040164
H	2.360245	-6.664085	-4.078749
H	3.361968	-5.147101	-4.027880
H	1.813424	-5.148785	-4.922811
C	-2.452149	-2.587487	4.247167
H	-2.772531	-3.483329	4.804209
H	-3.322697	-1.964972	3.965991
H	-1.774507	-1.962932	4.859678
H	-0.033931	-7.822318	0.062364
C	0.000000	0.000000	0.000000
S	0.335026	0.718942	1.580530
C	1.027130	2.203226	0.904911
C	0.421617	0.904557	-0.985400
C	0.979485	2.101144	-0.493528
H	0.322049	0.690978	-2.059934
H	1.351718	2.899571	-1.152593
H	1.399246	3.001430	1.556025
$end

$rem
JOBTYPE		SP
EXCHANGE	HF
CORRELATION	pRIMP2
BASIS		cc-pvtz
METHOD		rimp2
AUX_BASIS	rimp2-cc-pvtz
SOLVENT_METHOD	PCM
PURECART	11111
SYMMETRY	false
MEM_TOTAL	110000
SCF_CONVERGENCE = 6
THRESH=10
GUI = 2
$end

$solvent
dielectric 4.90
$end
--------------------------------------------------------------

             Standard Nuclear Orientation (Angstroms)
    I     Atom           X                Y                Z
 ----------------------------------------------------------------
    1      C      -0.1271840000    -6.7414040000     0.2232440000
    2      C      -0.7799490000    -6.1556380000     1.3541180000
    3      C       0.4152710000    -5.7914520000    -0.7154080000
    4      C      -0.9194370000    -4.8037860000     1.5952590000
    5      H      -1.2188010000    -6.8215180000     2.1146130000
    6      C       0.2688060000    -4.3786380000    -0.4631330000
    7      C      -0.3967440000    -3.8380320000     0.6889250000
    8      C       0.7908350000    -3.4130620000    -1.3684490000
    9      C      -0.5420260000    -2.4264730000     0.9391890000
   10      C       0.6526690000    -2.0593480000    -1.1303630000
   11      C       0.0000000000    -1.4782160000     0.0000000000
   12      H       1.0918140000    -1.3947830000    -1.8918150000
   13      C       1.1381240000    -6.1879870000    -1.9637490000
   14      C       1.5062410000    -3.7981640000    -2.6073510000
   15      N       1.6294430000    -5.1700030000    -2.8173480000
   16      C      -1.6366460000    -4.4249870000     2.8376210000
   17      C      -1.2644740000    -2.0366270000     2.1889820000
   18      N      -1.7562050000    -3.0491560000     3.0426370000
   19      O       1.3362580000    -7.3531310000    -2.3012220000
   20      O       1.9670560000    -2.9868540000    -3.4073860000
   21      O      -2.0921670000    -5.2489460000     3.6280410000
   22      O      -1.4721600000    -0.8788290000     2.5458440000
   23      C       2.3366420000    -5.5637990000    -4.0401640000
   24      H       2.3602450000    -6.6640850000    -4.0787490000
   25      H       3.3619680000    -5.1471010000    -4.0278800000
   26      H       1.8134240000    -5.1487850000    -4.9228110000
   27      C      -2.4521490000    -2.5874870000     4.2471670000
   28      H      -2.7725310000    -3.4833290000     4.8042090000
   29      H      -3.3226970000    -1.9649720000     3.9659910000
   30      H      -1.7745070000    -1.9629320000     4.8596780000
   31      H      -0.0339310000    -7.8223180000     0.0623640000
   32      C       0.0000000000     0.0000000000     0.0000000000
   33      S       0.3350260000     0.7189420000     1.5805300000
   34      C       1.0271300000     2.2032260000     0.9049110000
   35      C       0.4216170000     0.9045570000    -0.9854000000
   36      C       0.9794850000     2.1011440000    -0.4935280000
   37      H       0.3220490000     0.6909780000    -2.0599340000
   38      H       1.3517180000     2.8995710000    -1.1525930000
   39      H       1.3992460000     3.0014300000     1.5560250000
 ----------------------------------------------------------------

   10   -1570.6757613942      8.06e-07  Convergence criterion met
 Total energy in the final basis set =    -1570.6757613942
        RIMP2         total energy =     -1575.3074228372 a.u.

                    Orbital Energies (a.u.)
 --------------------------------------------------------------

 Alpha MOs
 -- Occupied --
-91.9864 -20.5586 -20.5566 -20.5553 -20.5534 -15.6313 -15.6300 -11.3999
-11.3960 -11.3911 -11.3908 -11.3190 -11.3020 -11.3002 -11.2985 -11.2952
-11.2944 -11.2886 -11.2865 -11.2856 -11.2833 -11.2790 -11.2771 -11.2647
-11.2642 -11.2641 -11.2491  -8.9858  -6.6663  -6.6656  -6.6651  -1.4251
 -1.4249  -1.4044  -1.4037  -1.2674  -1.2651  -1.2166  -1.1767  -1.1431
 -1.1162  -1.0622  -1.0489  -0.9925  -0.9896  -0.9854  -0.9586  -0.9471
 -0.8963  -0.8789  -0.8769  -0.8609  -0.7939  -0.7768  -0.7744  -0.7635
 -0.7323  -0.7182  -0.7049  -0.6938  -0.6845  -0.6745  -0.6663  -0.6621
 -0.6563  -0.6403  -0.6367  -0.6337  -0.6274  -0.6136  -0.5837  -0.5836
 -0.5808  -0.5716  -0.5688  -0.5666  -0.5640  -0.5554  -0.5544  -0.5484
 -0.5320  -0.5246  -0.5207  -0.5177  -0.4859  -0.4731  -0.4634  -0.4612
 -0.4573  -0.4413  -0.4270  -0.4172  -0.4086  -0.3723  -0.3492  -0.3361
 -0.3012

          Ground-State Mulliken Net Atomic Charges

     Atom                 Charge (a.u.)
  ----------------------------------------
      1 C                    -0.144217
      2 C                    -0.109366
      3 C                    -0.031934
      4 C                    -0.005576
      5 H                     0.188291
      6 C                    -0.000097
      7 C                     0.085427
      8 C                     0.007798
      9 C                    -0.073118
     10 C                    -0.142077
     11 C                     0.082879
     12 H                     0.181787
     13 C                     0.358811
     14 C                     0.364214
     15 N                    -0.101603
     16 C                     0.358010
     17 C                     0.366192
     18 N                    -0.095036
     19 O                    -0.464362
     20 O                    -0.477440
     21 O                    -0.482653
     22 O                    -0.472555
     23 C                    -0.201331
     24 H                     0.141233
     25 H                     0.112388
     26 H                     0.112242
     27 C                    -0.197164
     28 H                     0.134022
     29 H                     0.112995
     30 H                     0.112900
     31 H                     0.212712
     32 C                    -0.002483
     33 S                     0.087641
     34 C                    -0.206029
     35 C                    -0.207195
     36 C                    -0.198804
     37 H                     0.190319
     38 H                     0.191014
     39 H                     0.212164
  ----------------------------------------
  Sum of atomic charges =     0.000000

                    Cartesian Multipole Moments
 -----------------------------------------------------------------
    Charge (ESU x 10^10)
                 0.0000
    Dipole Moment (Debye)
         X       0.9336      Y       1.7239      Z      -0.7383
       Tot       2.0949
    Quadrupole Moments (Debye-Ang)
        XX    -167.2713     XY       4.3694     YY    -170.4557
        XZ       9.1940     YZ       0.8112     ZZ    -172.3259

 Total job time:  251.64s(wall), 7998.10s(cpu)
        *  Thank you very much for using Q-Chem.  Have a nice day.  *
