 Q-Chem 5.4, Q-Chem, Inc., Pleasanton, CA (2021)
 Q-Chem 5.4.0 for Intel X86 EM64T Linux

User input:
--------------------------------------------------------------
$molecule
0 1
C	0.089263	-6.741404	0.240927
C	0.535973	-6.155638	1.467886
C	-0.281103	-5.791452	-0.777972
C	0.631036	-4.803786	1.729742
H	0.836458	-6.821518	2.292903
C	-0.181995	-4.378638	-0.503614
C	0.272725	-3.838032	0.746756
C	-0.539954	-3.413062	-1.485437
C	0.371053	-2.426473	1.018915
C	-0.446381	-2.059348	-1.226557
C	-0.000000	-1.478216	-0.000000
H	-0.747410	-1.394783	-2.052413
C	-0.772747	-6.187987	-2.134128
C	-1.029154	-3.798164	-2.829820
N	-1.110828	-5.170003	-3.059182
C	1.121728	-4.424987	3.077731
C	0.864069	-2.036627	2.375694
N	1.201928	-3.049156	3.301101
O	-0.903908	-7.353131	-2.502830
O	-1.345809	-2.986854	-3.697078
O	1.434422	-5.248946	3.934752
O	1.003943	-0.878829	2.764177
C	-1.592981	-5.563799	-4.386939
H	-1.607367	-6.664085	-4.429822
H	-0.924504	-5.147101	-5.164489
H	-2.605446	-5.148785	-4.553486
C	1.677308	-2.587487	4.608481
H	1.898089	-3.483329	5.211969
H	0.902337	-1.964972	5.094624
H	2.582098	-1.962932	4.483092
H	0.025963	-7.822318	0.066080
C	0.000000	0.000000	0.000000
S	0.396411	0.687007	1.580530
C	1.215245	2.105322	0.904911
C	0.498850	0.864369	-0.985400
C	1.158885	2.007781	-0.493528
H	0.381046	0.660280	-2.059934
H	1.599289	2.770727	-1.152593
H	1.655514	2.868056	1.556025
$end

$rem
JOBTYPE		SP
EXCHANGE	HF
CORRELATION	pRIMP2
BASIS		cc-pvtz
METHOD		rimp2
AUX_BASIS	rimp2-cc-pvtz
SOLVENT_METHOD	PCM
PURECART	11111
SYMMETRY	false
MEM_TOTAL	110000
SCF_CONVERGENCE = 6
THRESH=10
GUI = 2
$end

$solvent
dielectric 4.90
$end
--------------------------------------------------------------

             Standard Nuclear Orientation (Angstroms)
    I     Atom           X                Y                Z
 ----------------------------------------------------------------
    1      C       0.0892630000    -6.7414040000     0.2409270000
    2      C       0.5359730000    -6.1556380000     1.4678860000
    3      C      -0.2811030000    -5.7914520000    -0.7779720000
    4      C       0.6310360000    -4.8037860000     1.7297420000
    5      H       0.8364580000    -6.8215180000     2.2929030000
    6      C      -0.1819950000    -4.3786380000    -0.5036140000
    7      C       0.2727250000    -3.8380320000     0.7467560000
    8      C      -0.5399540000    -3.4130620000    -1.4854370000
    9      C       0.3710530000    -2.4264730000     1.0189150000
   10      C      -0.4463810000    -2.0593480000    -1.2265570000
   11      C       0.0000000000    -1.4782160000     0.0000000000
   12      H      -0.7474100000    -1.3947830000    -2.0524130000
   13      C      -0.7727470000    -6.1879870000    -2.1341280000
   14      C      -1.0291540000    -3.7981640000    -2.8298200000
   15      N      -1.1108280000    -5.1700030000    -3.0591820000
   16      C       1.1217280000    -4.4249870000     3.0777310000
   17      C       0.8640690000    -2.0366270000     2.3756940000
   18      N       1.2019280000    -3.0491560000     3.3011010000
   19      O      -0.9039080000    -7.3531310000    -2.5028300000
   20      O      -1.3458090000    -2.9868540000    -3.6970780000
   21      O       1.4344220000    -5.2489460000     3.9347520000
   22      O       1.0039430000    -0.8788290000     2.7641770000
   23      C      -1.5929810000    -5.5637990000    -4.3869390000
   24      H      -1.6073670000    -6.6640850000    -4.4298220000
   25      H      -0.9245040000    -5.1471010000    -5.1644890000
   26      H      -2.6054460000    -5.1487850000    -4.5534860000
   27      C       1.6773080000    -2.5874870000     4.6084810000
   28      H       1.8980890000    -3.4833290000     5.2119690000
   29      H       0.9023370000    -1.9649720000     5.0946240000
   30      H       2.5820980000    -1.9629320000     4.4830920000
   31      H       0.0259630000    -7.8223180000     0.0660800000
   32      C       0.0000000000     0.0000000000     0.0000000000
   33      S       0.3964110000     0.6870070000     1.5805300000
   34      C       1.2152450000     2.1053220000     0.9049110000
   35      C       0.4988500000     0.8643690000    -0.9854000000
   36      C       1.1588850000     2.0077810000    -0.4935280000
   37      H       0.3810460000     0.6602800000    -2.0599340000
   38      H       1.5992890000     2.7707270000    -1.1525930000
   39      H       1.6555140000     2.8680560000     1.5560250000
 ----------------------------------------------------------------

   11   -1570.5990834336      5.53e-07  Convergence criterion met
 Total energy in the final basis set =    -1570.5990834336
        RIMP2         total energy =     -1575.2502506329 a.u.

                    Orbital Energies (a.u.)
 --------------------------------------------------------------

 Alpha MOs
 -- Occupied --
-91.9841 -20.5599 -20.5590 -20.5568 -20.5547 -15.6342 -15.6314 -11.4044
-11.4000 -11.3924 -11.3910 -11.3218 -11.3022 -11.3011 -11.2960 -11.2936
-11.2919 -11.2875 -11.2822 -11.2789 -11.2788 -11.2763 -11.2733 -11.2667
-11.2647 -11.2564 -11.2367  -8.9838  -6.6642  -6.6626  -6.6615  -1.4407
 -1.4251  -1.4096  -1.4045  -1.2724  -1.2667  -1.2166  -1.1719  -1.1410
 -1.1161  -1.0603  -1.0492  -0.9936  -0.9907  -0.9808  -0.9599  -0.9463
 -0.8986  -0.8807  -0.8767  -0.8638  -0.7922  -0.7802  -0.7776  -0.7576
 -0.7340  -0.7300  -0.7027  -0.6926  -0.6889  -0.6739  -0.6697  -0.6637
 -0.6578  -0.6421  -0.6395  -0.6369  -0.6272  -0.6147  -0.5858  -0.5824
 -0.5809  -0.5771  -0.5697  -0.5651  -0.5609  -0.5571  -0.5568  -0.5496
 -0.5339  -0.5258  -0.5228  -0.5177  -0.4859  -0.4706  -0.4689  -0.4634
 -0.4567  -0.4351  -0.4213  -0.4099  -0.4026  -0.3728  -0.3378  -0.3036
 -0.2937

          Ground-State Mulliken Net Atomic Charges

     Atom                 Charge (a.u.)
  ----------------------------------------
      1 C                    -0.153139
      2 C                    -0.108875
      3 C                    -0.027307
      4 C                    -0.008123
      5 H                     0.187713
      6 C                    -0.006837
      7 C                     0.088440
      8 C                     0.002138
      9 C                    -0.124063
     10 C                    -0.143971
     11 C                     0.090467
     12 H                     0.182371
     13 C                     0.360254
     14 C                     0.363886
     15 N                    -0.101759
     16 C                     0.359414
     17 C                     0.415188
     18 N                    -0.092307
     19 O                    -0.463389
     20 O                    -0.475914
     21 O                    -0.481798
     22 O                    -0.422717
     23 C                    -0.201110
     24 H                     0.141140
     25 H                     0.112356
     26 H                     0.112460
     27 C                    -0.199682
     28 H                     0.135637
     29 H                     0.114064
     30 H                     0.113759
     31 H                     0.211823
     32 C                    -0.066120
     33 S                     0.120132
     34 C                    -0.212591
     35 C                    -0.140001
     36 C                    -0.258607
     37 H                     0.187442
     38 H                     0.183576
     39 H                     0.206048
  ----------------------------------------
  Sum of atomic charges =     0.000000

                    Cartesian Multipole Moments
 -----------------------------------------------------------------
    Charge (ESU x 10^10)
                 0.0000
    Dipole Moment (Debye)
         X       1.3694      Y       0.8645      Z       0.5795
       Tot       1.7201
    Quadrupole Moments (Debye-Ang)
        XX    -163.6346     XY       4.0847     YY    -174.6478
        XZ      -4.2964     YZ       0.3552     ZZ    -172.2379

 Total job time:  276.44s(wall), 8642.20s(cpu)
        *  Thank you very much for using Q-Chem.  Have a nice day.  *
