 Q-Chem 5.4, Q-Chem, Inc., Pleasanton, CA (2021)
 Q-Chem 5.4.0 for Intel X86 EM64T Linux

User input:
--------------------------------------------------------------
$molecule
0 1
C	-0.164018	-6.741404	0.197767
C	-1.003240	-6.155638	1.198109
C	0.533192	-5.791452	-0.632428
C	-1.182482	-4.803786	1.411364
H	-1.567483	-6.821518	1.870845
C	0.345145	-4.378638	-0.409419
C	-0.510347	-3.838032	0.609565
C	1.016449	-3.413062	-1.210332
C	-0.696879	-2.426473	0.830799
C	0.839039	-2.059348	-0.999856
C	0.000000	-1.478216	0.000000
H	1.403737	-1.394783	-1.673483
C	1.461835	-6.187987	-1.736282
C	1.936119	-3.798164	-2.306183
N	2.093916	-5.170003	-2.491597
C	-2.104529	-4.424987	2.510310
C	-1.625377	-2.036627	1.936153
N	-2.257873	-3.049156	2.691451
O	1.715561	-7.353131	-2.034222
O	2.528858	-2.986854	-3.014044
O	-2.690385	-5.248946	3.209622
O	-1.891876	-0.878829	2.251529
C	3.002711	-5.563799	-3.573032
H	3.032655	-6.664085	-3.606932
H	4.010326	-5.147101	-3.382888
H	2.640711	-5.148785	-4.533125
C	-3.152408	-2.587487	3.756832
H	-3.564653	-3.483329	4.249778
H	-3.960905	-1.964972	3.328759
H	-2.591422	-1.962932	4.477709
H	-0.044245	-7.822318	0.055524
C	0.000000	0.000000	0.000000
S	0.509686	0.607733	1.580530
C	1.562368	1.862312	0.904911
C	0.641367	0.764613	-0.985400
C	1.489926	1.776040	-0.493528
H	0.489914	0.584081	-2.059934
H	2.056124	2.450920	-1.152593
H	2.128395	2.537007	1.556025
$end

$rem
JOBTYPE		SP
EXCHANGE	HF
CORRELATION	pRIMP2
BASIS		cc-pvtz
METHOD		rimp2
AUX_BASIS	rimp2-cc-pvtz
SOLVENT_METHOD	PCM
PURECART	11111
SYMMETRY	false
MEM_TOTAL	110000
SCF_CONVERGENCE = 6
THRESH=10
GUI = 2
$end

$solvent
dielectric 4.90
$end
--------------------------------------------------------------

             Standard Nuclear Orientation (Angstroms)
    I     Atom           X                Y                Z
 ----------------------------------------------------------------
    1      C      -0.1640180000    -6.7414040000     0.1977670000
    2      C      -1.0032400000    -6.1556380000     1.1981090000
    3      C       0.5331920000    -5.7914520000    -0.6324280000
    4      C      -1.1824820000    -4.8037860000     1.4113640000
    5      H      -1.5674830000    -6.8215180000     1.8708450000
    6      C       0.3451450000    -4.3786380000    -0.4094190000
    7      C      -0.5103470000    -3.8380320000     0.6095650000
    8      C       1.0164490000    -3.4130620000    -1.2103320000
    9      C      -0.6968790000    -2.4264730000     0.8307990000
   10      C       0.8390390000    -2.0593480000    -0.9998560000
   11      C       0.0000000000    -1.4782160000     0.0000000000
   12      H       1.4037370000    -1.3947830000    -1.6734830000
   13      C       1.4618350000    -6.1879870000    -1.7362820000
   14      C       1.9361190000    -3.7981640000    -2.3061830000
   15      N       2.0939160000    -5.1700030000    -2.4915970000
   16      C      -2.1045290000    -4.4249870000     2.5103100000
   17      C      -1.6253770000    -2.0366270000     1.9361530000
   18      N      -2.2578730000    -3.0491560000     2.6914510000
   19      O       1.7155610000    -7.3531310000    -2.0342220000
   20      O       2.5288580000    -2.9868540000    -3.0140440000
   21      O      -2.6903850000    -5.2489460000     3.2096220000
   22      O      -1.8918760000    -0.8788290000     2.2515290000
   23      C       3.0027110000    -5.5637990000    -3.5730320000
   24      H       3.0326550000    -6.6640850000    -3.6069320000
   25      H       4.0103260000    -5.1471010000    -3.3828880000
   26      H       2.6407110000    -5.1487850000    -4.5331250000
   27      C      -3.1524080000    -2.5874870000     3.7568320000
   28      H      -3.5646530000    -3.4833290000     4.2497780000
   29      H      -3.9609050000    -1.9649720000     3.3287590000
   30      H      -2.5914220000    -1.9629320000     4.4777090000
   31      H      -0.0442450000    -7.8223180000     0.0555240000
   32      C       0.0000000000     0.0000000000     0.0000000000
   33      S       0.5096860000     0.6077330000     1.5805300000
   34      C       1.5623680000     1.8623120000     0.9049110000
   35      C       0.6413670000     0.7646130000    -0.9854000000
   36      C       1.4899260000     1.7760400000    -0.4935280000
   37      H       0.4899140000     0.5840810000    -2.0599340000
   38      H       2.0561240000     2.4509200000    -1.1525930000
   39      H       2.1283950000     2.5370070000     1.5560250000
 ----------------------------------------------------------------

   10   -1570.6665854884      9.44e-07  Convergence criterion met
 Total energy in the final basis set =    -1570.6665854884
        RIMP2         total energy =     -1575.2992811537 a.u.

                    Orbital Energies (a.u.)
 --------------------------------------------------------------

 Alpha MOs
 -- Occupied --
-91.9921 -20.5583 -20.5564 -20.5546 -20.5528 -15.6311 -15.6290 -11.3996
-11.3943 -11.3906 -11.3904 -11.3178 -11.3015 -11.2989 -11.2956 -11.2948
-11.2941 -11.2938 -11.2856 -11.2837 -11.2825 -11.2785 -11.2748 -11.2679
-11.2646 -11.2635 -11.2532  -8.9915  -6.6721  -6.6715  -6.6710  -1.4248
 -1.4229  -1.4042  -1.4020  -1.2669  -1.2639  -1.2162  -1.1817  -1.1424
 -1.1152  -1.0622  -1.0480  -0.9921  -0.9913  -0.9893  -0.9580  -0.9465
 -0.8957  -0.8779  -0.8755  -0.8592  -0.7937  -0.7759  -0.7744  -0.7659
 -0.7326  -0.7165  -0.7062  -0.6936  -0.6828  -0.6745  -0.6657  -0.6614
 -0.6557  -0.6404  -0.6361  -0.6321  -0.6269  -0.6130  -0.5848  -0.5847
 -0.5806  -0.5737  -0.5669  -0.5658  -0.5635  -0.5550  -0.5535  -0.5478
 -0.5302  -0.5270  -0.5194  -0.5146  -0.4838  -0.4729  -0.4639  -0.4586
 -0.4578  -0.4497  -0.4272  -0.4175  -0.4079  -0.3699  -0.3537  -0.3356
 -0.3043

          Ground-State Mulliken Net Atomic Charges

     Atom                 Charge (a.u.)
  ----------------------------------------
      1 C                    -0.145218
      2 C                    -0.108464
      3 C                    -0.031516
      4 C                    -0.005364
      5 H                     0.188036
      6 C                    -0.007022
      7 C                     0.083517
      8 C                     0.013570
      9 C                    -0.076204
     10 C                    -0.156039
     11 C                     0.098094
     12 H                     0.182905
     13 C                     0.358703
     14 C                     0.364567
     15 N                    -0.101350
     16 C                     0.357135
     17 C                     0.362753
     18 N                    -0.094784
     19 O                    -0.464494
     20 O                    -0.478014
     21 O                    -0.483450
     22 O                    -0.472110
     23 C                    -0.201407
     24 H                     0.141222
     25 H                     0.112223
     26 H                     0.112076
     27 C                    -0.197346
     28 H                     0.133506
     29 H                     0.112914
     30 H                     0.112612
     31 H                     0.212519
     32 C                    -0.049647
     33 S                     0.078235
     34 C                    -0.183310
     35 C                    -0.175891
     36 C                    -0.197758
     37 H                     0.195380
     38 H                     0.194560
     39 H                     0.214863
  ----------------------------------------
  Sum of atomic charges =     0.000000

                    Cartesian Multipole Moments
 -----------------------------------------------------------------
    Charge (ESU x 10^10)
                 0.0000
    Dipole Moment (Debye)
         X       1.9143      Y       1.9528      Z      -0.9582
       Tot       2.8976
    Quadrupole Moments (Debye-Ang)
        XX    -167.8649     XY       6.0572     YY    -173.3851
        XZ      11.1886     YZ       0.8959     ZZ    -169.3031

 Total job time:  244.59s(wall), 7716.66s(cpu)
        *  Thank you very much for using Q-Chem.  Have a nice day.  *
