 Q-Chem 5.4, Q-Chem, Inc., Pleasanton, CA (2021)
 Q-Chem 5.4.0 for Intel X86 EM64T Linux

User input:
--------------------------------------------------------------
$molecule
0 1
C	0.223244	-6.741404	0.127184
C	1.354118	-6.155638	0.779949
C	-0.715408	-5.791452	-0.415271
C	1.595259	-4.803786	0.919437
H	2.114613	-6.821518	1.218801
C	-0.463133	-4.378638	-0.268806
C	0.688925	-3.838032	0.396744
C	-1.368449	-3.413062	-0.790835
C	0.939189	-2.426473	0.542026
C	-1.130363	-2.059348	-0.652669
C	-0.000000	-1.478216	-0.000000
H	-1.891815	-1.394783	-1.091814
C	-1.963749	-6.187987	-1.138124
C	-2.607351	-3.798164	-1.506241
N	-2.817348	-5.170003	-1.629443
C	2.837621	-4.424987	1.636646
C	2.188982	-2.036627	1.264474
N	3.042637	-3.049156	1.756205
O	-2.301222	-7.353131	-1.336258
O	-3.407386	-2.986854	-1.967056
O	3.628041	-5.248946	2.092167
O	2.545844	-0.878829	1.472160
C	-4.040164	-5.563799	-2.336642
H	-4.078749	-6.664085	-2.360245
H	-4.027880	-5.147101	-3.361968
H	-4.922811	-5.148785	-1.813424
C	4.247167	-2.587487	2.452149
H	4.804209	-3.483329	2.772531
H	3.965991	-1.964972	3.322697
H	4.859678	-1.962932	1.774507
H	0.062364	-7.822318	0.033931
C	0.000000	0.000000	0.000000
S	0.271091	0.745405	1.580530
C	0.831198	2.284363	0.904911
C	0.341175	0.937861	-0.985400
C	0.792631	2.178516	-0.493528
H	0.260601	0.716417	-2.059934
H	1.093860	3.006347	-1.152593
H	1.132330	3.111961	1.556025
$end

$rem
JOBTYPE		SP
EXCHANGE	HF
CORRELATION	pRIMP2
BASIS		cc-pvtz
METHOD		rimp2
AUX_BASIS	rimp2-cc-pvtz
SOLVENT_METHOD	PCM
PURECART	11111
SYMMETRY	false
MEM_TOTAL	110000
SCF_CONVERGENCE = 6
THRESH=10
GUI = 2
$end

$solvent
dielectric 4.90
$end
--------------------------------------------------------------

             Standard Nuclear Orientation (Angstroms)
    I     Atom           X                Y                Z
 ----------------------------------------------------------------
    1      C       0.2232440000    -6.7414040000     0.1271840000
    2      C       1.3541180000    -6.1556380000     0.7799490000
    3      C      -0.7154080000    -5.7914520000    -0.4152710000
    4      C       1.5952590000    -4.8037860000     0.9194370000
    5      H       2.1146130000    -6.8215180000     1.2188010000
    6      C      -0.4631330000    -4.3786380000    -0.2688060000
    7      C       0.6889250000    -3.8380320000     0.3967440000
    8      C      -1.3684490000    -3.4130620000    -0.7908350000
    9      C       0.9391890000    -2.4264730000     0.5420260000
   10      C      -1.1303630000    -2.0593480000    -0.6526690000
   11      C       0.0000000000    -1.4782160000     0.0000000000
   12      H      -1.8918150000    -1.3947830000    -1.0918140000
   13      C      -1.9637490000    -6.1879870000    -1.1381240000
   14      C      -2.6073510000    -3.7981640000    -1.5062410000
   15      N      -2.8173480000    -5.1700030000    -1.6294430000
   16      C       2.8376210000    -4.4249870000     1.6366460000
   17      C       2.1889820000    -2.0366270000     1.2644740000
   18      N       3.0426370000    -3.0491560000     1.7562050000
   19      O      -2.3012220000    -7.3531310000    -1.3362580000
   20      O      -3.4073860000    -2.9868540000    -1.9670560000
   21      O       3.6280410000    -5.2489460000     2.0921670000
   22      O       2.5458440000    -0.8788290000     1.4721600000
   23      C      -4.0401640000    -5.5637990000    -2.3366420000
   24      H      -4.0787490000    -6.6640850000    -2.3602450000
   25      H      -4.0278800000    -5.1471010000    -3.3619680000
   26      H      -4.9228110000    -5.1487850000    -1.8134240000
   27      C       4.2471670000    -2.5874870000     2.4521490000
   28      H       4.8042090000    -3.4833290000     2.7725310000
   29      H       3.9659910000    -1.9649720000     3.3226970000
   30      H       4.8596780000    -1.9629320000     1.7745070000
   31      H       0.0623640000    -7.8223180000     0.0339310000
   32      C       0.0000000000     0.0000000000     0.0000000000
   33      S       0.2710910000     0.7454050000     1.5805300000
   34      C       0.8311980000     2.2843630000     0.9049110000
   35      C       0.3411750000     0.9378610000    -0.9854000000
   36      C       0.7926310000     2.1785160000    -0.4935280000
   37      H       0.2606010000     0.7164170000    -2.0599340000
   38      H       1.0938600000     3.0063470000    -1.1525930000
   39      H       1.1323300000     3.1119610000     1.5560250000
 ----------------------------------------------------------------

   10   -1570.6747754207      7.56e-07  Convergence criterion met
 Total energy in the final basis set =    -1570.6747754207
        RIMP2         total energy =     -1575.3046746436 a.u.

                    Orbital Energies (a.u.)
 --------------------------------------------------------------

 Alpha MOs
 -- Occupied --
-91.9840 -20.5586 -20.5562 -20.5545 -20.5530 -15.6312 -15.6299 -11.4001
-11.3948 -11.3921 -11.3904 -11.3156 -11.3050 -11.3027 -11.3008 -11.2981
-11.2977 -11.2865 -11.2859 -11.2856 -11.2839 -11.2803 -11.2766 -11.2646
-11.2643 -11.2600 -11.2476  -8.9837  -6.6644  -6.6638  -6.6634  -1.4249
 -1.4233  -1.4042  -1.4025  -1.2673  -1.2647  -1.2172  -1.1734  -1.1435
 -1.1172  -1.0623  -1.0496  -0.9928  -0.9883  -0.9816  -0.9589  -0.9482
 -0.8964  -0.8795  -0.8765  -0.8613  -0.7937  -0.7767  -0.7734  -0.7596
 -0.7344  -0.7188  -0.7046  -0.6944  -0.6809  -0.6729  -0.6660  -0.6619
 -0.6567  -0.6419  -0.6372  -0.6341  -0.6294  -0.6125  -0.5849  -0.5837
 -0.5774  -0.5716  -0.5663  -0.5640  -0.5636  -0.5552  -0.5532  -0.5483
 -0.5360  -0.5257  -0.5208  -0.5105  -0.4822  -0.4702  -0.4644  -0.4584
 -0.4569  -0.4513  -0.4276  -0.4181  -0.4088  -0.3604  -0.3416  -0.3353
 -0.3141

          Ground-State Mulliken Net Atomic Charges

     Atom                 Charge (a.u.)
  ----------------------------------------
      1 C                    -0.133828
      2 C                    -0.108228
      3 C                    -0.041551
      4 C                    -0.002127
      5 H                     0.188676
      6 C                    -0.007379
      7 C                     0.072915
      8 C                     0.013109
      9 C                    -0.018604
     10 C                    -0.152378
     11 C                     0.081076
     12 H                     0.180878
     13 C                     0.361072
     14 C                     0.367470
     15 N                    -0.101486
     16 C                     0.358273
     17 C                     0.378370
     18 N                    -0.095385
     19 O                    -0.464871
     20 O                    -0.476370
     21 O                    -0.481183
     22 O                    -0.457464
     23 C                    -0.201005
     24 H                     0.141050
     25 H                     0.112231
     26 H                     0.112493
     27 C                    -0.196198
     28 H                     0.133696
     29 H                     0.112623
     30 H                     0.112799
     31 H                     0.214005
     32 C                    -0.065093
     33 S                     0.045881
     34 C                    -0.191548
     35 C                    -0.173524
     36 C                    -0.210910
     37 H                     0.191632
     38 H                     0.190558
     39 H                     0.210320
  ----------------------------------------
  Sum of atomic charges =     0.000000

                    Cartesian Multipole Moments
 -----------------------------------------------------------------
    Charge (ESU x 10^10)
                 0.0000
    Dipole Moment (Debye)
         X       1.0311      Y       1.0457      Z      -0.7169
       Tot       1.6342
    Quadrupole Moments (Debye-Ang)
        XX    -178.1739     XY       3.3076     YY    -167.1330
        XZ      -8.0455     YZ       0.3093     ZZ    -162.3621

 Total job time:  267.16s(wall), 8263.03s(cpu)
        *  Thank you very much for using Q-Chem.  Have a nice day.  *
