 Q-Chem 5.4, Q-Chem, Inc., Pleasanton, CA (2021)
 Q-Chem 5.4.0 for Intel X86 EM64T Linux

User input:
--------------------------------------------------------------
$molecule
0 1
C	0.166281	-6.741404	0.195868
C	1.005696	-6.155638	1.196048
C	-0.530233	-5.791452	-0.634911
C	1.184587	-4.803786	1.409599
H	1.570232	-6.821518	1.868538
C	-0.343266	-4.378638	-0.410996
C	0.511683	-3.838032	0.608444
C	-1.015440	-3.413062	-1.211179
C	0.697165	-2.426473	0.830559
C	-0.838968	-2.059348	-0.999915
C	-0.000000	-1.478216	-0.000000
H	-1.404302	-1.394783	-1.673009
C	-1.456059	-6.187987	-1.741129
C	-1.934944	-3.798164	-2.307170
N	-2.090139	-5.170003	-2.494766
C	2.106725	-4.424987	2.508468
C	1.624494	-2.036627	1.936893
N	2.258486	-3.049156	2.690936
O	-1.705414	-7.353131	-2.042736
O	-2.529122	-2.986854	-3.013823
O	2.693680	-5.248946	3.206857
O	1.888802	-0.878829	2.254108
C	-2.997334	-5.563799	-3.577543
H	-3.025519	-6.664085	-3.612920
H	-2.635109	-5.147101	-4.536833
H	-4.005702	-5.148785	-3.387762
C	3.152347	-2.587487	3.756883
H	3.566218	-3.483329	4.248464
H	2.590383	-1.964972	4.478763
H	3.959687	-1.962932	3.329599
H	0.046998	-7.822318	0.053215
C	0.000000	0.000000	0.000000
S	0.271091	0.745405	1.580530
C	0.831198	2.284363	0.904911
C	0.341175	0.937861	-0.985400
C	0.792631	2.178516	-0.493528
H	0.260601	0.716417	-2.059934
H	1.093860	3.006347	-1.152593
H	1.132330	3.111961	1.556025
$end

$rem
JOBTYPE		SP
EXCHANGE	HF
CORRELATION	pRIMP2
BASIS		cc-pvtz
METHOD		rimp2
AUX_BASIS	rimp2-cc-pvtz
SOLVENT_METHOD	PCM
PURECART	11111
SYMMETRY	false
MEM_TOTAL	110000
SCF_CONVERGENCE = 6
THRESH=10
GUI = 2
$end

$solvent
dielectric 4.90
$end
--------------------------------------------------------------

             Standard Nuclear Orientation (Angstroms)
    I     Atom           X                Y                Z
 ----------------------------------------------------------------
    1      C       0.1662810000    -6.7414040000     0.1958680000
    2      C       1.0056960000    -6.1556380000     1.1960480000
    3      C      -0.5302330000    -5.7914520000    -0.6349110000
    4      C       1.1845870000    -4.8037860000     1.4095990000
    5      H       1.5702320000    -6.8215180000     1.8685380000
    6      C      -0.3432660000    -4.3786380000    -0.4109960000
    7      C       0.5116830000    -3.8380320000     0.6084440000
    8      C      -1.0154400000    -3.4130620000    -1.2111790000
    9      C       0.6971650000    -2.4264730000     0.8305590000
   10      C      -0.8389680000    -2.0593480000    -0.9999150000
   11      C       0.0000000000    -1.4782160000     0.0000000000
   12      H      -1.4043020000    -1.3947830000    -1.6730090000
   13      C      -1.4560590000    -6.1879870000    -1.7411290000
   14      C      -1.9349440000    -3.7981640000    -2.3071700000
   15      N      -2.0901390000    -5.1700030000    -2.4947660000
   16      C       2.1067250000    -4.4249870000     2.5084680000
   17      C       1.6244940000    -2.0366270000     1.9368930000
   18      N       2.2584860000    -3.0491560000     2.6909360000
   19      O      -1.7054140000    -7.3531310000    -2.0427360000
   20      O      -2.5291220000    -2.9868540000    -3.0138230000
   21      O       2.6936800000    -5.2489460000     3.2068570000
   22      O       1.8888020000    -0.8788290000     2.2541080000
   23      C      -2.9973340000    -5.5637990000    -3.5775430000
   24      H      -3.0255190000    -6.6640850000    -3.6129200000
   25      H      -2.6351090000    -5.1471010000    -4.5368330000
   26      H      -4.0057020000    -5.1487850000    -3.3877620000
   27      C       3.1523470000    -2.5874870000     3.7568830000
   28      H       3.5662180000    -3.4833290000     4.2484640000
   29      H       2.5903830000    -1.9649720000     4.4787630000
   30      H       3.9596870000    -1.9629320000     3.3295990000
   31      H       0.0469980000    -7.8223180000     0.0532150000
   32      C       0.0000000000     0.0000000000     0.0000000000
   33      S       0.2710910000     0.7454050000     1.5805300000
   34      C       0.8311980000     2.2843630000     0.9049110000
   35      C       0.3411750000     0.9378610000    -0.9854000000
   36      C       0.7926310000     2.1785160000    -0.4935280000
   37      H       0.2606010000     0.7164170000    -2.0599340000
   38      H       1.0938600000     3.0063470000    -1.1525930000
   39      H       1.1323300000     3.1119610000     1.5560250000
 ----------------------------------------------------------------

   10   -1570.6525249577      8.56e-07  Convergence criterion met
 Total energy in the final basis set =    -1570.6525249577
        RIMP2         total energy =     -1575.2900806220 a.u.

                    Orbital Energies (a.u.)
 --------------------------------------------------------------

 Alpha MOs
 -- Occupied --
-91.9811 -20.5587 -20.5564 -20.5542 -20.5508 -15.6312 -15.6305 -11.4000
-11.3964 -11.3917 -11.3906 -11.3178 -11.3024 -11.3015 -11.3004 -11.2962
-11.2955 -11.2863 -11.2844 -11.2837 -11.2828 -11.2796 -11.2766 -11.2647
-11.2646 -11.2593 -11.2425  -8.9812  -6.6615  -6.6610  -6.6606  -1.4259
 -1.4249  -1.4045  -1.4043  -1.2677  -1.2656  -1.2167  -1.1722  -1.1425
 -1.1166  -1.0615  -1.0492  -0.9928  -0.9878  -0.9809  -0.9590  -0.9472
 -0.8963  -0.8796  -0.8765  -0.8620  -0.7928  -0.7769  -0.7745  -0.7588
 -0.7326  -0.7203  -0.7033  -0.6931  -0.6847  -0.6732  -0.6663  -0.6623
 -0.6567  -0.6410  -0.6379  -0.6358  -0.6284  -0.6132  -0.5843  -0.5825
 -0.5781  -0.5702  -0.5678  -0.5654  -0.5640  -0.5557  -0.5544  -0.5486
 -0.5348  -0.5245  -0.5211  -0.5143  -0.4831  -0.4708  -0.4636  -0.4618
 -0.4569  -0.4420  -0.4263  -0.4174  -0.4089  -0.3684  -0.3364  -0.3244
 -0.3030

          Ground-State Mulliken Net Atomic Charges

     Atom                 Charge (a.u.)
  ----------------------------------------
      1 C                    -0.141285
      2 C                    -0.108371
      3 C                    -0.036785
      4 C                    -0.005211
      5 H                     0.188328
      6 C                    -0.008454
      7 C                     0.080076
      8 C                     0.008117
      9 C                    -0.070792
     10 C                    -0.159539
     11 C                     0.101411
     12 H                     0.182412
     13 C                     0.360915
     14 C                     0.366370
     15 N                    -0.101364
     16 C                     0.359001
     17 C                     0.406689
     18 N                    -0.095547
     19 O                    -0.464373
     20 O                    -0.476320
     21 O                    -0.481897
     22 O                    -0.459332
     23 C                    -0.200994
     24 H                     0.141100
     25 H                     0.112150
     26 H                     0.112452
     27 C                    -0.196717
     28 H                     0.134170
     29 H                     0.112770
     30 H                     0.112783
     31 H                     0.213162
     32 C                    -0.076496
     33 S                     0.078352
     34 C                    -0.187679
     35 C                    -0.151734
     36 C                    -0.238009
     37 H                     0.192697
     38 H                     0.187985
     39 H                     0.209961
  ----------------------------------------
  Sum of atomic charges =     0.000000

                    Cartesian Multipole Moments
 -----------------------------------------------------------------
    Charge (ESU x 10^10)
                 0.0000
    Dipole Moment (Debye)
         X       1.1633      Y       1.1611      Z      -0.2268
       Tot       1.6592
    Quadrupole Moments (Debye-Ang)
        XX    -171.0182     XY       3.6169     YY    -169.7881
        XZ      -8.6931     YZ       0.6246     ZZ    -168.4384

 Total job time:  269.38s(wall), 8885.78s(cpu)
        *  Thank you very much for using Q-Chem.  Have a nice day.  *
