 Q-Chem 5.4, Q-Chem, Inc., Pleasanton, CA (2021)
 Q-Chem 5.4.0 for Intel X86 EM64T Linux

User input:
--------------------------------------------------------------
$molecule
0 1
C	0.086486	-6.741404	-0.241938
C	0.532960	-6.155638	-1.468983
C	-0.284733	-5.791452	0.776651
C	0.628455	-4.803786	-1.730681
H	0.833086	-6.821518	-2.294130
C	-0.184300	-4.378638	0.502775
C	0.271086	-3.838032	-0.747353
C	-0.541191	-3.413062	1.484986
C	0.370703	-2.426473	-1.019042
C	-0.446468	-2.059348	1.226525
C	-0.000000	-1.478216	-0.000000
H	-0.746717	-1.394783	2.052666
C	-0.779832	-6.187987	2.131549
C	-1.030596	-3.798164	2.829295
N	-1.115461	-5.170003	3.057496
C	1.119034	-4.424987	-3.078712
C	0.865151	-2.036627	-2.375300
N	1.201176	-3.049156	-3.301374
O	-0.916355	-7.353131	2.498300
O	-1.345486	-2.986854	3.697195
O	1.430379	-5.248946	-3.936224
O	1.007714	-0.878829	-2.762805
C	-1.599576	-5.563799	4.384539
H	-1.616121	-6.664085	4.426636
H	-2.611458	-5.147101	4.550487
H	-0.931037	-5.148785	5.162921
C	1.677382	-2.587487	-4.608454
H	1.896168	-3.483329	-5.212668
H	2.583531	-1.964972	-4.482719
H	0.903674	-1.962932	-5.093988
H	0.022586	-7.822318	-0.067309
C	0.000000	0.000000	0.000000
S	0.271091	0.745405	1.580530
C	0.831198	2.284363	0.904911
C	0.341175	0.937861	-0.985400
C	0.792631	2.178516	-0.493528
H	0.260601	0.716417	-2.059934
H	1.093860	3.006347	-1.152593
H	1.132330	3.111961	1.556025
$end

$rem
JOBTYPE		SP
EXCHANGE	HF
CORRELATION	pRIMP2
BASIS		cc-pvtz
METHOD		rimp2
AUX_BASIS	rimp2-cc-pvtz
SOLVENT_METHOD	PCM
PURECART	11111
SYMMETRY	false
MEM_TOTAL	110000
SCF_CONVERGENCE = 6
THRESH=10
GUI = 2
$end

$solvent
dielectric 4.90
$end
--------------------------------------------------------------

             Standard Nuclear Orientation (Angstroms)
    I     Atom           X                Y                Z
 ----------------------------------------------------------------
    1      C       0.0864860000    -6.7414040000    -0.2419380000
    2      C       0.5329600000    -6.1556380000    -1.4689830000
    3      C      -0.2847330000    -5.7914520000     0.7766510000
    4      C       0.6284550000    -4.8037860000    -1.7306810000
    5      H       0.8330860000    -6.8215180000    -2.2941300000
    6      C      -0.1843000000    -4.3786380000     0.5027750000
    7      C       0.2710860000    -3.8380320000    -0.7473530000
    8      C      -0.5411910000    -3.4130620000     1.4849860000
    9      C       0.3707030000    -2.4264730000    -1.0190420000
   10      C      -0.4464680000    -2.0593480000     1.2265250000
   11      C       0.0000000000    -1.4782160000     0.0000000000
   12      H      -0.7467170000    -1.3947830000     2.0526660000
   13      C      -0.7798320000    -6.1879870000     2.1315490000
   14      C      -1.0305960000    -3.7981640000     2.8292950000
   15      N      -1.1154610000    -5.1700030000     3.0574960000
   16      C       1.1190340000    -4.4249870000    -3.0787120000
   17      C       0.8651510000    -2.0366270000    -2.3753000000
   18      N       1.2011760000    -3.0491560000    -3.3013740000
   19      O      -0.9163550000    -7.3531310000     2.4983000000
   20      O      -1.3454860000    -2.9868540000     3.6971950000
   21      O       1.4303790000    -5.2489460000    -3.9362240000
   22      O       1.0077140000    -0.8788290000    -2.7628050000
   23      C      -1.5995760000    -5.5637990000     4.3845390000
   24      H      -1.6161210000    -6.6640850000     4.4266360000
   25      H      -2.6114580000    -5.1471010000     4.5504870000
   26      H      -0.9310370000    -5.1487850000     5.1629210000
   27      C       1.6773820000    -2.5874870000    -4.6084540000
   28      H       1.8961680000    -3.4833290000    -5.2126680000
   29      H       2.5835310000    -1.9649720000    -4.4827190000
   30      H       0.9036740000    -1.9629320000    -5.0939880000
   31      H       0.0225860000    -7.8223180000    -0.0673090000
   32      C       0.0000000000     0.0000000000     0.0000000000
   33      S       0.2710910000     0.7454050000     1.5805300000
   34      C       0.8311980000     2.2843630000     0.9049110000
   35      C       0.3411750000     0.9378610000    -0.9854000000
   36      C       0.7926310000     2.1785160000    -0.4935280000
   37      H       0.2606010000     0.7164170000    -2.0599340000
   38      H       1.0938600000     3.0063470000    -1.1525930000
   39      H       1.1323300000     3.1119610000     1.5560250000
 ----------------------------------------------------------------

   10   -1570.6779565450      8.55e-07  Convergence criterion met
 Total energy in the final basis set =    -1570.6779565450
        RIMP2         total energy =     -1575.3067933846 a.u.

                    Orbital Energies (a.u.)
 --------------------------------------------------------------

 Alpha MOs
 -- Occupied --
-91.9935 -20.5583 -20.5562 -20.5538 -20.5533 -15.6309 -15.6302 -11.3996
-11.3965 -11.3911 -11.3905 -11.3192 -11.3017 -11.2997 -11.2973 -11.2946
-11.2935 -11.2925 -11.2869 -11.2869 -11.2828 -11.2785 -11.2780 -11.2648
-11.2643 -11.2548 -11.2501  -8.9932  -6.6740  -6.6735  -6.6729  -1.4250
 -1.4246  -1.4040  -1.4036  -1.2672  -1.2651  -1.2164  -1.1776  -1.1437
 -1.1157  -1.0630  -1.0488  -0.9923  -0.9900  -0.9872  -0.9586  -0.9473
 -0.8967  -0.8789  -0.8775  -0.8613  -0.7958  -0.7786  -0.7728  -0.7624
 -0.7356  -0.7235  -0.7035  -0.6934  -0.6816  -0.6733  -0.6662  -0.6620
 -0.6557  -0.6411  -0.6370  -0.6338  -0.6277  -0.6125  -0.5898  -0.5835
 -0.5778  -0.5730  -0.5655  -0.5631  -0.5607  -0.5557  -0.5534  -0.5469
 -0.5341  -0.5249  -0.5228  -0.5179  -0.4816  -0.4680  -0.4648  -0.4641
 -0.4580  -0.4501  -0.4287  -0.4188  -0.4093  -0.3760  -0.3533  -0.3363
 -0.2996

          Ground-State Mulliken Net Atomic Charges

     Atom                 Charge (a.u.)
  ----------------------------------------
      1 C                    -0.145970
      2 C                    -0.110519
      3 C                    -0.033050
      4 C                    -0.004531
      5 H                     0.187785
      6 C                    -0.005149
      7 C                     0.076849
      8 C                     0.035768
      9 C                    -0.067084
     10 C                    -0.172681
     11 C                     0.088299
     12 H                     0.165961
     13 C                     0.359715
     14 C                     0.366083
     15 N                    -0.101533
     16 C                     0.359095
     17 C                     0.383772
     18 N                    -0.092128
     19 O                    -0.464321
     20 O                    -0.476417
     21 O                    -0.483360
     22 O                    -0.477266
     23 C                    -0.201143
     24 H                     0.141016
     25 H                     0.112377
     26 H                     0.112523
     27 C                    -0.198261
     28 H                     0.134503
     29 H                     0.112569
     30 H                     0.112329
     31 H                     0.212493
     32 C                    -0.022231
     33 S                     0.029330
     34 C                    -0.195509
     35 C                    -0.155226
     36 C                    -0.206908
     37 H                     0.212989
     38 H                     0.192638
     39 H                     0.217191
  ----------------------------------------
  Sum of atomic charges =     0.000000

                    Cartesian Multipole Moments
 -----------------------------------------------------------------
    Charge (ESU x 10^10)
                 0.0000
    Dipole Moment (Debye)
         X       0.8668      Y       2.2960      Z      -0.9040
       Tot       2.6154
    Quadrupole Moments (Debye-Ang)
        XX    -165.0033     XY       4.0221     YY    -169.8673
        XZ       6.9757     YZ       0.4670     ZZ    -175.8046

 Total job time:  273.30s(wall), 8743.28s(cpu)
        *  Thank you very much for using Q-Chem.  Have a nice day.  *
