 Q-Chem 5.4, Q-Chem, Inc., Pleasanton, CA (2021)
 Q-Chem 5.4.0 for Intel X86 EM64T Linux

User input:
--------------------------------------------------------------
$molecule
0 1
C	0.086486	-6.741404	-0.241938
C	0.532960	-6.155638	-1.468983
C	-0.284733	-5.791452	0.776651
C	0.628455	-4.803786	-1.730681
H	0.833086	-6.821518	-2.294130
C	-0.184300	-4.378638	0.502775
C	0.271086	-3.838032	-0.747353
C	-0.541191	-3.413062	1.484986
C	0.370703	-2.426473	-1.019042
C	-0.446468	-2.059348	1.226525
C	0.000000	-1.478216	0.000000
H	-0.746717	-1.394783	2.052666
C	-0.779832	-6.187987	2.131549
C	-1.030596	-3.798164	2.829295
N	-1.115461	-5.170003	3.057496
C	1.119034	-4.424987	-3.078712
C	0.865151	-2.036627	-2.375300
N	1.201176	-3.049156	-3.301374
O	-0.916355	-7.353131	2.498300
O	-1.345486	-2.986854	3.697195
O	1.430379	-5.248946	-3.936224
O	1.007714	-0.878829	-2.762805
C	-1.599576	-5.563799	4.384539
H	-1.616121	-6.664085	4.426636
H	-2.611458	-5.147101	4.550487
H	-0.931037	-5.148785	5.162921
C	1.677382	-2.587487	-4.608454
H	1.896168	-3.483329	-5.212668
H	2.583531	-1.964972	-4.482719
H	0.903674	-1.962932	-5.093988
H	0.022586	-7.822318	-0.067309
C	0.000000	0.000000	0.000000
S	0.205093	0.766196	1.580530
C	0.628939	2.348114	0.904911
C	0.258137	0.964028	-0.985400
C	0.599745	2.239309	-0.493528
H	0.197169	0.736404	-2.059934
H	0.827678	3.090243	-1.152593
H	0.856796	3.198808	1.556025
$end

$rem
JOBTYPE		SP
EXCHANGE	HF
CORRELATION	pRIMP2
BASIS		cc-pvtz
METHOD		rimp2
AUX_BASIS	rimp2-cc-pvtz
SOLVENT_METHOD	PCM
PURECART	11111
SYMMETRY	false
MEM_TOTAL	110000
SCF_CONVERGENCE = 6
THRESH=10
GUI = 2
$end

$solvent
dielectric 4.90
$end
--------------------------------------------------------------

             Standard Nuclear Orientation (Angstroms)
    I     Atom           X                Y                Z
 ----------------------------------------------------------------
    1      C       0.0864860000    -6.7414040000    -0.2419380000
    2      C       0.5329600000    -6.1556380000    -1.4689830000
    3      C      -0.2847330000    -5.7914520000     0.7766510000
    4      C       0.6284550000    -4.8037860000    -1.7306810000
    5      H       0.8330860000    -6.8215180000    -2.2941300000
    6      C      -0.1843000000    -4.3786380000     0.5027750000
    7      C       0.2710860000    -3.8380320000    -0.7473530000
    8      C      -0.5411910000    -3.4130620000     1.4849860000
    9      C       0.3707030000    -2.4264730000    -1.0190420000
   10      C      -0.4464680000    -2.0593480000     1.2265250000
   11      C       0.0000000000    -1.4782160000     0.0000000000
   12      H      -0.7467170000    -1.3947830000     2.0526660000
   13      C      -0.7798320000    -6.1879870000     2.1315490000
   14      C      -1.0305960000    -3.7981640000     2.8292950000
   15      N      -1.1154610000    -5.1700030000     3.0574960000
   16      C       1.1190340000    -4.4249870000    -3.0787120000
   17      C       0.8651510000    -2.0366270000    -2.3753000000
   18      N       1.2011760000    -3.0491560000    -3.3013740000
   19      O      -0.9163550000    -7.3531310000     2.4983000000
   20      O      -1.3454860000    -2.9868540000     3.6971950000
   21      O       1.4303790000    -5.2489460000    -3.9362240000
   22      O       1.0077140000    -0.8788290000    -2.7628050000
   23      C      -1.5995760000    -5.5637990000     4.3845390000
   24      H      -1.6161210000    -6.6640850000     4.4266360000
   25      H      -2.6114580000    -5.1471010000     4.5504870000
   26      H      -0.9310370000    -5.1487850000     5.1629210000
   27      C       1.6773820000    -2.5874870000    -4.6084540000
   28      H       1.8961680000    -3.4833290000    -5.2126680000
   29      H       2.5835310000    -1.9649720000    -4.4827190000
   30      H       0.9036740000    -1.9629320000    -5.0939880000
   31      H       0.0225860000    -7.8223180000    -0.0673090000
   32      C       0.0000000000     0.0000000000     0.0000000000
   33      S       0.2050930000     0.7661960000     1.5805300000
   34      C       0.6289390000     2.3481140000     0.9049110000
   35      C       0.2581370000     0.9640280000    -0.9854000000
   36      C       0.5997450000     2.2393090000    -0.4935280000
   37      H       0.1971690000     0.7364040000    -2.0599340000
   38      H       0.8276780000     3.0902430000    -1.1525930000
   39      H       0.8567960000     3.1988080000     1.5560250000
 ----------------------------------------------------------------

   10   -1570.6824525010      8.15e-07  Convergence criterion met
 Total energy in the final basis set =    -1570.6824525010
        RIMP2         total energy =     -1575.3105450722 a.u.

                    Orbital Energies (a.u.)
 --------------------------------------------------------------

 Alpha MOs
 -- Occupied --
-91.9936 -20.5584 -20.5563 -20.5543 -20.5535 -15.6310 -15.6303 -11.3997
-11.3965 -11.3913 -11.3906 -11.3192 -11.3019 -11.3000 -11.2983 -11.2952
-11.2941 -11.2911 -11.2887 -11.2871 -11.2832 -11.2788 -11.2784 -11.2648
-11.2643 -11.2546 -11.2502  -8.9933  -6.6741  -6.6737  -6.6730  -1.4249
 -1.4246  -1.4041  -1.4036  -1.2673  -1.2651  -1.2167  -1.1773  -1.1439
 -1.1161  -1.0633  -1.0491  -0.9924  -0.9900  -0.9868  -0.9587  -0.9474
 -0.8969  -0.8790  -0.8779  -0.8614  -0.7961  -0.7788  -0.7728  -0.7622
 -0.7359  -0.7225  -0.7037  -0.6936  -0.6817  -0.6735  -0.6663  -0.6621
 -0.6559  -0.6413  -0.6370  -0.6338  -0.6280  -0.6127  -0.5899  -0.5836
 -0.5782  -0.5728  -0.5654  -0.5630  -0.5610  -0.5558  -0.5534  -0.5471
 -0.5347  -0.5252  -0.5231  -0.5180  -0.4819  -0.4684  -0.4652  -0.4640
 -0.4584  -0.4508  -0.4288  -0.4188  -0.4094  -0.3759  -0.3537  -0.3365
 -0.3000

          Ground-State Mulliken Net Atomic Charges

     Atom                 Charge (a.u.)
  ----------------------------------------
      1 C                    -0.144401
      2 C                    -0.110317
      3 C                    -0.033898
      4 C                    -0.004709
      5 H                     0.187944
      6 C                    -0.003794
      7 C                     0.075585
      8 C                     0.039200
      9 C                    -0.065710
     10 C                    -0.179627
     11 C                     0.096499
     12 H                     0.166122
     13 C                     0.359685
     14 C                     0.366879
     15 N                    -0.101565
     16 C                     0.359372
     17 C                     0.381549
     18 N                    -0.092133
     19 O                    -0.464291
     20 O                    -0.476343
     21 O                    -0.483115
     22 O                    -0.476842
     23 C                    -0.201092
     24 H                     0.141031
     25 H                     0.112403
     26 H                     0.112564
     27 C                    -0.198037
     28 H                     0.134453
     29 H                     0.112709
     30 H                     0.112314
     31 H                     0.212697
     32 C                    -0.028664
     33 S                     0.028044
     34 C                    -0.197195
     35 C                    -0.147366
     36 C                    -0.210907
     37 H                     0.211846
     38 H                     0.192029
     39 H                     0.217081
  ----------------------------------------
  Sum of atomic charges =     0.000000

                    Cartesian Multipole Moments
 -----------------------------------------------------------------
    Charge (ESU x 10^10)
                -0.0000
    Dipole Moment (Debye)
         X       0.6210      Y       2.1885      Z      -0.8920
       Tot       2.4436
    Quadrupole Moments (Debye-Ang)
        XX    -165.6315     XY       3.1047     YY    -168.7142
        XZ       6.8890     YZ       0.5483     ZZ    -175.7703

 Total job time:  289.63s(wall), 8653.65s(cpu)
        *  Thank you very much for using Q-Chem.  Have a nice day.  *
