 Q-Chem 5.4, Q-Chem, Inc., Pleasanton, CA (2021)
 Q-Chem 5.4.0 for Intel X86 EM64T Linux

User input:
--------------------------------------------------------------
$molecule
0 1
C	0.240927	-6.741404	-0.089263
C	1.467886	-6.155638	-0.535973
C	-0.777972	-5.791452	0.281103
C	1.729742	-4.803786	-0.631036
H	2.292903	-6.821518	-0.836458
C	-0.503614	-4.378638	0.181995
C	0.746756	-3.838032	-0.272725
C	-1.485437	-3.413062	0.539954
C	1.018915	-2.426473	-0.371053
C	-1.226557	-2.059348	0.446381
C	-0.000000	-1.478216	-0.000000
H	-2.052413	-1.394783	0.747410
C	-2.134128	-6.187987	0.772747
C	-2.829820	-3.798164	1.029154
N	-3.059182	-5.170003	1.110828
C	3.077731	-4.424987	-1.121728
C	2.375694	-2.036627	-0.864069
N	3.301101	-3.049156	-1.201928
O	-2.502830	-7.353131	0.903908
O	-3.697078	-2.986854	1.345809
O	3.934752	-5.248946	-1.434422
O	2.764177	-0.878829	-1.003943
C	-4.386939	-5.563799	1.592981
H	-4.429822	-6.664085	1.607367
H	-5.164489	-5.147101	0.924504
H	-4.553486	-5.148785	2.605446
C	4.608481	-2.587487	-1.677308
H	5.211969	-3.483329	-1.898089
H	5.094624	-1.964972	-0.902337
H	4.483092	-1.962932	-2.582098
H	0.066080	-7.822318	-0.025963
C	0.000000	0.000000	0.000000
S	0.137535	0.781156	1.580530
C	0.421895	2.393994	0.904911
C	0.173134	0.982857	-0.985400
C	0.402294	2.283058	-0.493528
H	0.132237	0.750786	-2.059934
H	0.555196	3.150621	-1.152593
H	0.574741	3.261310	1.556025
$end

$rem
JOBTYPE		SP
EXCHANGE	HF
CORRELATION	pRIMP2
BASIS		cc-pvtz
METHOD		rimp2
AUX_BASIS	rimp2-cc-pvtz
SOLVENT_METHOD	PCM
PURECART	11111
SYMMETRY	false
MEM_TOTAL	110000
SCF_CONVERGENCE = 6
THRESH=10
GUI = 2
$end

$solvent
dielectric 4.90
$end
--------------------------------------------------------------

             Standard Nuclear Orientation (Angstroms)
    I     Atom           X                Y                Z
 ----------------------------------------------------------------
    1      C       0.2409270000    -6.7414040000    -0.0892630000
    2      C       1.4678860000    -6.1556380000    -0.5359730000
    3      C      -0.7779720000    -5.7914520000     0.2811030000
    4      C       1.7297420000    -4.8037860000    -0.6310360000
    5      H       2.2929030000    -6.8215180000    -0.8364580000
    6      C      -0.5036140000    -4.3786380000     0.1819950000
    7      C       0.7467560000    -3.8380320000    -0.2727250000
    8      C      -1.4854370000    -3.4130620000     0.5399540000
    9      C       1.0189150000    -2.4264730000    -0.3710530000
   10      C      -1.2265570000    -2.0593480000     0.4463810000
   11      C       0.0000000000    -1.4782160000     0.0000000000
   12      H      -2.0524130000    -1.3947830000     0.7474100000
   13      C      -2.1341280000    -6.1879870000     0.7727470000
   14      C      -2.8298200000    -3.7981640000     1.0291540000
   15      N      -3.0591820000    -5.1700030000     1.1108280000
   16      C       3.0777310000    -4.4249870000    -1.1217280000
   17      C       2.3756940000    -2.0366270000    -0.8640690000
   18      N       3.3011010000    -3.0491560000    -1.2019280000
   19      O      -2.5028300000    -7.3531310000     0.9039080000
   20      O      -3.6970780000    -2.9868540000     1.3458090000
   21      O       3.9347520000    -5.2489460000    -1.4344220000
   22      O       2.7641770000    -0.8788290000    -1.0039430000
   23      C      -4.3869390000    -5.5637990000     1.5929810000
   24      H      -4.4298220000    -6.6640850000     1.6073670000
   25      H      -5.1644890000    -5.1471010000     0.9245040000
   26      H      -4.5534860000    -5.1487850000     2.6054460000
   27      C       4.6084810000    -2.5874870000    -1.6773080000
   28      H       5.2119690000    -3.4833290000    -1.8980890000
   29      H       5.0946240000    -1.9649720000    -0.9023370000
   30      H       4.4830920000    -1.9629320000    -2.5820980000
   31      H       0.0660800000    -7.8223180000    -0.0259630000
   32      C       0.0000000000     0.0000000000     0.0000000000
   33      S       0.1375350000     0.7811560000     1.5805300000
   34      C       0.4218950000     2.3939940000     0.9049110000
   35      C       0.1731340000     0.9828570000    -0.9854000000
   36      C       0.4022940000     2.2830580000    -0.4935280000
   37      H       0.1322370000     0.7507860000    -2.0599340000
   38      H       0.5551960000     3.1506210000    -1.1525930000
   39      H       0.5747410000     3.2613100000     1.5560250000
 ----------------------------------------------------------------

   10   -1570.6885615060      7.21e-07  Convergence criterion met
 Total energy in the final basis set =    -1570.6885615060
        RIMP2         total energy =     -1575.3128834622 a.u.

                    Orbital Energies (a.u.)
 --------------------------------------------------------------

 Alpha MOs
 -- Occupied --
-91.9931 -20.5587 -20.5562 -20.5560 -20.5555 -15.6313 -15.6310 -11.4004
-11.3967 -11.3930 -11.3906 -11.3156 -11.3071 -11.3032 -11.3013 -11.2994
-11.2989 -11.2901 -11.2870 -11.2862 -11.2825 -11.2809 -11.2783 -11.2648
-11.2646 -11.2550 -11.2499  -8.9922  -6.6731  -6.6726  -6.6720  -1.4250
 -1.4241  -1.4043  -1.4032  -1.2677  -1.2654  -1.2181  -1.1744  -1.1445
 -1.1180  -1.0634  -1.0504  -0.9933  -0.9894  -0.9828  -0.9594  -0.9488
 -0.8974  -0.8799  -0.8778  -0.8616  -0.7957  -0.7776  -0.7731  -0.7593
 -0.7378  -0.7184  -0.7053  -0.6953  -0.6806  -0.6726  -0.6666  -0.6624
 -0.6571  -0.6426  -0.6377  -0.6339  -0.6303  -0.6127  -0.5858  -0.5846
 -0.5780  -0.5732  -0.5659  -0.5641  -0.5609  -0.5553  -0.5524  -0.5487
 -0.5355  -0.5268  -0.5193  -0.5179  -0.4835  -0.4709  -0.4663  -0.4613
 -0.4602  -0.4535  -0.4284  -0.4183  -0.4090  -0.3568  -0.3533  -0.3350
 -0.3178

          Ground-State Mulliken Net Atomic Charges

     Atom                 Charge (a.u.)
  ----------------------------------------
      1 C                    -0.130957
      2 C                    -0.107309
      3 C                    -0.043204
      4 C                    -0.001442
      5 H                     0.188897
      6 C                    -0.008686
      7 C                     0.074729
      8 C                     0.010841
      9 C                    -0.004750
     10 C                    -0.151737
     11 C                     0.088997
     12 H                     0.183068
     13 C                     0.361217
     14 C                     0.370072
     15 N                    -0.101868
     16 C                     0.359718
     17 C                     0.357069
     18 N                    -0.095472
     19 O                    -0.464800
     20 O                    -0.476187
     21 O                    -0.479952
     22 O                    -0.455931
     23 C                    -0.200920
     24 H                     0.140997
     25 H                     0.112478
     26 H                     0.112567
     27 C                    -0.196094
     28 H                     0.133757
     29 H                     0.113661
     30 H                     0.112507
     31 H                     0.214587
     32 C                    -0.071288
     33 S                     0.032681
     34 C                    -0.208479
     35 C                    -0.154231
     36 C                    -0.203602
     37 H                     0.186508
     38 H                     0.190631
     39 H                     0.211930
  ----------------------------------------
  Sum of atomic charges =     0.000000

                    Cartesian Multipole Moments
 -----------------------------------------------------------------
    Charge (ESU x 10^10)
                 0.0000
    Dipole Moment (Debye)
         X       0.4509      Y       0.9033      Z      -1.0069
       Tot       1.4259
    Quadrupole Moments (Debye-Ang)
        XX    -181.7655     XY       1.0167     YY    -164.2949
        XZ       6.6576     YZ       1.0178     ZZ    -159.8850

 Total job time:  296.95s(wall), 8751.97s(cpu)
        *  Thank you very much for using Q-Chem.  Have a nice day.  *
