 Q-Chem 5.4, Q-Chem, Inc., Pleasanton, CA (2021)
 Q-Chem 5.4.0 for Intel X86 EM64T Linux

User input:
--------------------------------------------------------------
$molecule
0 1
C	0.240927	-6.741404	-0.089263
C	1.467886	-6.155638	-0.535973
C	-0.777972	-5.791452	0.281103
C	1.729742	-4.803786	-0.631036
H	2.292903	-6.821518	-0.836458
C	-0.503614	-4.378638	0.181995
C	0.746756	-3.838032	-0.272725
C	-1.485437	-3.413062	0.539954
C	1.018915	-2.426473	-0.371053
C	-1.226557	-2.059348	0.446381
C	0.000000	-1.478216	0.000000
H	-2.052413	-1.394783	0.747410
C	-2.134128	-6.187987	0.772747
C	-2.829820	-3.798164	1.029154
N	-3.059182	-5.170003	1.110828
C	3.077731	-4.424987	-1.121728
C	2.375694	-2.036627	-0.864069
N	3.301101	-3.049156	-1.201928
O	-2.502830	-7.353131	0.903908
O	-3.697078	-2.986854	1.345809
O	3.934752	-5.248946	-1.434422
O	2.764177	-0.878829	-1.003943
C	-4.386939	-5.563799	1.592981
H	-4.429822	-6.664085	1.607367
H	-5.164489	-5.147101	0.924504
H	-4.553486	-5.148785	2.605446
C	4.608481	-2.587487	-1.677308
H	5.211969	-3.483329	-1.898089
H	5.094624	-1.964972	-0.902337
H	4.483092	-1.962932	-2.582098
H	0.066080	-7.822318	-0.025963
C	0.000000	0.000000	0.000000
S	0.068929	0.790170	1.580530
C	0.211639	2.421655	0.904911
C	0.086813	0.994207	-0.985400
C	0.201782	2.309433	-0.493528
H	0.066299	0.759454	-2.059934
H	0.278488	3.187020	-1.152593
H	0.288312	3.298992	1.556025
$end

$rem
JOBTYPE		SP
EXCHANGE	HF
CORRELATION	pRIMP2
BASIS		cc-pvtz
METHOD		rimp2
AUX_BASIS	rimp2-cc-pvtz
SOLVENT_METHOD	PCM
PURECART	11111
SYMMETRY	false
MEM_TOTAL	110000
SCF_CONVERGENCE = 6
THRESH=10
GUI = 2
$end

$solvent
dielectric 4.90
$end
--------------------------------------------------------------

             Standard Nuclear Orientation (Angstroms)
    I     Atom           X                Y                Z
 ----------------------------------------------------------------
    1      C       0.2409270000    -6.7414040000    -0.0892630000
    2      C       1.4678860000    -6.1556380000    -0.5359730000
    3      C      -0.7779720000    -5.7914520000     0.2811030000
    4      C       1.7297420000    -4.8037860000    -0.6310360000
    5      H       2.2929030000    -6.8215180000    -0.8364580000
    6      C      -0.5036140000    -4.3786380000     0.1819950000
    7      C       0.7467560000    -3.8380320000    -0.2727250000
    8      C      -1.4854370000    -3.4130620000     0.5399540000
    9      C       1.0189150000    -2.4264730000    -0.3710530000
   10      C      -1.2265570000    -2.0593480000     0.4463810000
   11      C       0.0000000000    -1.4782160000     0.0000000000
   12      H      -2.0524130000    -1.3947830000     0.7474100000
   13      C      -2.1341280000    -6.1879870000     0.7727470000
   14      C      -2.8298200000    -3.7981640000     1.0291540000
   15      N      -3.0591820000    -5.1700030000     1.1108280000
   16      C       3.0777310000    -4.4249870000    -1.1217280000
   17      C       2.3756940000    -2.0366270000    -0.8640690000
   18      N       3.3011010000    -3.0491560000    -1.2019280000
   19      O      -2.5028300000    -7.3531310000     0.9039080000
   20      O      -3.6970780000    -2.9868540000     1.3458090000
   21      O       3.9347520000    -5.2489460000    -1.4344220000
   22      O       2.7641770000    -0.8788290000    -1.0039430000
   23      C      -4.3869390000    -5.5637990000     1.5929810000
   24      H      -4.4298220000    -6.6640850000     1.6073670000
   25      H      -5.1644890000    -5.1471010000     0.9245040000
   26      H      -4.5534860000    -5.1487850000     2.6054460000
   27      C       4.6084810000    -2.5874870000    -1.6773080000
   28      H       5.2119690000    -3.4833290000    -1.8980890000
   29      H       5.0946240000    -1.9649720000    -0.9023370000
   30      H       4.4830920000    -1.9629320000    -2.5820980000
   31      H       0.0660800000    -7.8223180000    -0.0259630000
   32      C       0.0000000000     0.0000000000     0.0000000000
   33      S       0.0689290000     0.7901700000     1.5805300000
   34      C       0.2116390000     2.4216550000     0.9049110000
   35      C       0.0868130000     0.9942070000    -0.9854000000
   36      C       0.2017820000     2.3094330000    -0.4935280000
   37      H       0.0662990000     0.7594540000    -2.0599340000
   38      H       0.2784880000     3.1870200000    -1.1525930000
   39      H       0.2883120000     3.2989920000     1.5560250000
 ----------------------------------------------------------------

   10   -1570.6902328293      7.08e-07  Convergence criterion met
 Total energy in the final basis set =    -1570.6902328293
        RIMP2         total energy =     -1575.3140403643 a.u.

                    Orbital Energies (a.u.)
 --------------------------------------------------------------

 Alpha MOs
 -- Occupied --
-91.9931 -20.5588 -20.5565 -20.5563 -20.5556 -15.6314 -15.6312 -11.4004
-11.3970 -11.3932 -11.3907 -11.3159 -11.3075 -11.3033 -11.3015 -11.2997
-11.2991 -11.2918 -11.2872 -11.2865 -11.2817 -11.2810 -11.2788 -11.2649
-11.2646 -11.2546 -11.2500  -8.9923  -6.6731  -6.6727  -6.6720  -1.4251
 -1.4243  -1.4044  -1.4034  -1.2679  -1.2655  -1.2183  -1.1745  -1.1446
 -1.1182  -1.0636  -1.0506  -0.9934  -0.9895  -0.9828  -0.9595  -0.9488
 -0.8976  -0.8800  -0.8782  -0.8616  -0.7960  -0.7778  -0.7732  -0.7592
 -0.7379  -0.7185  -0.7054  -0.6954  -0.6808  -0.6729  -0.6667  -0.6625
 -0.6573  -0.6427  -0.6378  -0.6341  -0.6305  -0.6128  -0.5858  -0.5847
 -0.5782  -0.5731  -0.5661  -0.5643  -0.5610  -0.5554  -0.5526  -0.5488
 -0.5357  -0.5269  -0.5191  -0.5187  -0.4837  -0.4709  -0.4666  -0.4616
 -0.4604  -0.4537  -0.4285  -0.4184  -0.4092  -0.3569  -0.3536  -0.3351
 -0.3181

          Ground-State Mulliken Net Atomic Charges

     Atom                 Charge (a.u.)
  ----------------------------------------
      1 C                    -0.130667
      2 C                    -0.107304
      3 C                    -0.043142
      4 C                    -0.001472
      5 H                     0.188988
      6 C                    -0.006464
      7 C                     0.074131
      8 C                     0.006526
      9 C                    -0.009216
     10 C                    -0.141837
     11 C                     0.080189
     12 H                     0.184258
     13 C                     0.361142
     14 C                     0.369901
     15 N                    -0.101968
     16 C                     0.360000
     17 C                     0.353821
     18 N                    -0.095839
     19 O                    -0.464755
     20 O                    -0.476193
     21 O                    -0.479799
     22 O                    -0.455887
     23 C                    -0.200914
     24 H                     0.141012
     25 H                     0.112500
     26 H                     0.112590
     27 C                    -0.195966
     28 H                     0.133766
     29 H                     0.113711
     30 H                     0.112642
     31 H                     0.214656
     32 C                    -0.060039
     33 S                     0.032496
     34 C                    -0.210251
     35 C                    -0.155650
     36 C                    -0.204660
     37 H                     0.187054
     38 H                     0.190924
     39 H                     0.211715
  ----------------------------------------
  Sum of atomic charges =     0.000000

                    Cartesian Multipole Moments
 -----------------------------------------------------------------
    Charge (ESU x 10^10)
                 0.0000
    Dipole Moment (Debye)
         X       0.2517      Y       0.8337      Z      -0.9945
       Tot       1.3220
    Quadrupole Moments (Debye-Ang)
        XX    -181.9565     XY      -0.0012     YY    -163.8399
        XZ       6.5818     YZ       1.0244     ZZ    -159.8924

 Total job time:  266.90s(wall), 8821.44s(cpu)
        *  Thank you very much for using Q-Chem.  Have a nice day.  *
