 Q-Chem 5.4, Q-Chem, Inc., Pleasanton, CA (2021)
 Q-Chem 5.4.0 for Intel X86 EM64T Linux

User input:
--------------------------------------------------------------
$molecule
0 1
C	-0.256927	-6.741404	0.001478
C	-1.562675	-6.155638	0.001603
C	0.827197	-5.791452	0.001931
C	-1.841253	-4.803786	0.001374
H	-2.440709	-6.821518	0.001794
C	0.535488	-4.378638	0.001227
C	-0.794999	-3.838032	0.000872
C	1.580529	-3.413062	0.000658
C	-1.084374	-2.426473	0.000186
C	1.305258	-2.059348	0.000046
C	-0.000000	-1.478216	-0.000000
H	2.184267	-1.394783	-0.000369
C	2.269719	-6.187987	0.003770
C	3.011152	-3.798164	0.000767
N	3.254617	-5.170003	0.002465
C	-3.275775	-4.424987	0.001433
C	-2.527951	-2.036627	-0.000576
N	-3.513104	-3.049156	0.000400
O	2.661046	-7.353131	0.006623
O	3.934410	-2.986854	-0.000172
O	-4.188059	-5.248946	0.002151
O	-2.940845	-0.878829	-0.002006
C	4.667206	-5.563799	0.003509
H	4.712423	-6.664085	0.004658
H	5.169231	-5.147101	0.897610
H	5.169992	-5.148785	-0.890935
C	-4.904229	-2.587487	-0.000039
H	-5.546833	-3.483329	0.001022
H	-5.095998	-1.964972	-0.894545
H	-5.095858	-1.962932	0.893071
H	-0.070974	-7.822318	0.001797
C	0.000000	0.000000	0.000000
S	0.686805	0.396760	1.580530
C	2.105095	1.215640	0.904911
C	0.864201	0.499140	-0.985400
C	2.007514	1.159347	-0.493528
H	0.660136	0.381296	-2.059934
H	2.770388	1.599875	-1.152593
H	2.867745	1.656053	1.556025
$end

$rem
JOBTYPE		SP
EXCHANGE	HF
CORRELATION	pRIMP2
BASIS		cc-pvtz
METHOD		rimp2
AUX_BASIS	rimp2-cc-pvtz
SOLVENT_METHOD	PCM
PURECART	11111
SYMMETRY	false
MEM_TOTAL	110000
SCF_CONVERGENCE = 6
THRESH=10
GUI = 2
$end

$solvent
dielectric 4.90
$end
--------------------------------------------------------------

             Standard Nuclear Orientation (Angstroms)
    I     Atom           X                Y                Z
 ----------------------------------------------------------------
    1      C      -0.2569270000    -6.7414040000     0.0014780000
    2      C      -1.5626750000    -6.1556380000     0.0016030000
    3      C       0.8271970000    -5.7914520000     0.0019310000
    4      C      -1.8412530000    -4.8037860000     0.0013740000
    5      H      -2.4407090000    -6.8215180000     0.0017940000
    6      C       0.5354880000    -4.3786380000     0.0012270000
    7      C      -0.7949990000    -3.8380320000     0.0008720000
    8      C       1.5805290000    -3.4130620000     0.0006580000
    9      C      -1.0843740000    -2.4264730000     0.0001860000
   10      C       1.3052580000    -2.0593480000     0.0000460000
   11      C       0.0000000000    -1.4782160000     0.0000000000
   12      H       2.1842670000    -1.3947830000    -0.0003690000
   13      C       2.2697190000    -6.1879870000     0.0037700000
   14      C       3.0111520000    -3.7981640000     0.0007670000
   15      N       3.2546170000    -5.1700030000     0.0024650000
   16      C      -3.2757750000    -4.4249870000     0.0014330000
   17      C      -2.5279510000    -2.0366270000    -0.0005760000
   18      N      -3.5131040000    -3.0491560000     0.0004000000
   19      O       2.6610460000    -7.3531310000     0.0066230000
   20      O       3.9344100000    -2.9868540000    -0.0001720000
   21      O      -4.1880590000    -5.2489460000     0.0021510000
   22      O      -2.9408450000    -0.8788290000    -0.0020060000
   23      C       4.6672060000    -5.5637990000     0.0035090000
   24      H       4.7124230000    -6.6640850000     0.0046580000
   25      H       5.1692310000    -5.1471010000     0.8976100000
   26      H       5.1699920000    -5.1487850000    -0.8909350000
   27      C      -4.9042290000    -2.5874870000    -0.0000390000
   28      H      -5.5468330000    -3.4833290000     0.0010220000
   29      H      -5.0959980000    -1.9649720000    -0.8945450000
   30      H      -5.0958580000    -1.9629320000     0.8930710000
   31      H      -0.0709740000    -7.8223180000     0.0017970000
   32      C       0.0000000000     0.0000000000     0.0000000000
   33      S       0.6868050000     0.3967600000     1.5805300000
   34      C       2.1050950000     1.2156400000     0.9049110000
   35      C       0.8642010000     0.4991400000    -0.9854000000
   36      C       2.0075140000     1.1593470000    -0.4935280000
   37      H       0.6601360000     0.3812960000    -2.0599340000
   38      H       2.7703880000     1.5998750000    -1.1525930000
   39      H       2.8677450000     1.6560530000     1.5560250000
 ----------------------------------------------------------------

   11   -1570.6299413578      4.72e-07  Convergence criterion met
 Total energy in the final basis set =    -1570.6299413578
        RIMP2         total energy =     -1575.2689671999 a.u.

                    Orbital Energies (a.u.)
 --------------------------------------------------------------

 Alpha MOs
 -- Occupied --
-91.9968 -20.5570 -20.5543 -20.5530 -20.5525 -15.6298 -15.6282 -11.3984
-11.3928 -11.3903 -11.3886 -11.3154 -11.3061 -11.2995 -11.2959 -11.2945
-11.2936 -11.2935 -11.2824 -11.2807 -11.2763 -11.2756 -11.2737 -11.2716
-11.2640 -11.2630 -11.2576  -8.9967  -6.6774  -6.6766  -6.6763  -1.4234
 -1.4211  -1.4027  -1.4002  -1.2656  -1.2628  -1.2178  -1.1913  -1.1398
 -1.1137  -1.0618  -1.0461  -0.9961  -0.9940  -0.9906  -0.9574  -0.9452
 -0.8946  -0.8766  -0.8727  -0.8561  -0.7946  -0.7765  -0.7729  -0.7651
 -0.7369  -0.7174  -0.7065  -0.6923  -0.6818  -0.6737  -0.6646  -0.6603
 -0.6547  -0.6428  -0.6357  -0.6316  -0.6268  -0.6112  -0.5880  -0.5845
 -0.5791  -0.5759  -0.5673  -0.5626  -0.5607  -0.5541  -0.5520  -0.5466
 -0.5408  -0.5258  -0.5152  -0.4924  -0.4811  -0.4775  -0.4649  -0.4590
 -0.4580  -0.4511  -0.4257  -0.4167  -0.4059  -0.3775  -0.3344  -0.3299
 -0.3253

          Ground-State Mulliken Net Atomic Charges

     Atom                 Charge (a.u.)
  ----------------------------------------
      1 C                    -0.142503
      2 C                    -0.115355
      3 C                    -0.033776
      4 C                     0.003379
      5 H                     0.187082
      6 C                    -0.007989
      7 C                     0.079396
      8 C                    -0.014830
      9 C                    -0.037130
     10 C                    -0.139926
     11 C                     0.041844
     12 H                     0.188847
     13 C                     0.358819
     14 C                     0.357854
     15 N                    -0.100582
     16 C                     0.357634
     17 C                     0.368601
     18 N                    -0.096544
     19 O                    -0.466716
     20 O                    -0.481990
     21 O                    -0.482371
     22 O                    -0.458423
     23 C                    -0.201981
     24 H                     0.141011
     25 H                     0.111808
     26 H                     0.111659
     27 C                    -0.197583
     28 H                     0.133116
     29 H                     0.112384
     30 H                     0.112584
     31 H                     0.212406
     32 C                    -0.104073
     33 S                     0.055854
     34 C                    -0.138944
     35 C                    -0.088820
     36 C                    -0.231725
     37 H                     0.195507
     38 H                     0.194625
     39 H                     0.216853
  ----------------------------------------
  Sum of atomic charges =     0.000000

                    Cartesian Multipole Moments
 -----------------------------------------------------------------
    Charge (ESU x 10^10)
                 0.0000
    Dipole Moment (Debye)
         X       3.0523      Y       1.7859      Z      -0.8044
       Tot       3.6267
    Quadrupole Moments (Debye-Ang)
        XX    -176.4020     XY       6.6852     YY    -179.3061
        XZ       1.0916     YZ       0.5979     ZZ    -156.2654

 Total job time:  276.78s(wall), 8404.56s(cpu)
        *  Thank you very much for using Q-Chem.  Have a nice day.  *
