 Q-Chem 5.4, Q-Chem, Inc., Pleasanton, CA (2021)
 Q-Chem 5.4.0 for Intel X86 EM64T Linux

User input:
--------------------------------------------------------------
$molecule
0 1
C	-0.197767	-6.741404	-0.164018
C	-1.198109	-6.155638	-1.003240
C	0.632428	-5.791452	0.533192
C	-1.411364	-4.803786	-1.182482
H	-1.870845	-6.821518	-1.567483
C	0.409419	-4.378638	0.345145
C	-0.609565	-3.838032	-0.510347
C	1.210332	-3.413062	1.016449
C	-0.830799	-2.426473	-0.696879
C	0.999856	-2.059348	0.839039
C	0.000000	-1.478216	0.000000
H	1.673483	-1.394783	1.403737
C	1.736282	-6.187987	1.461835
C	2.306183	-3.798164	1.936119
N	2.491597	-5.170003	2.093916
C	-2.510310	-4.424987	-2.104529
C	-1.936153	-2.036627	-1.625377
N	-2.691451	-3.049156	-2.257873
O	2.034222	-7.353131	1.715561
O	3.014044	-2.986854	2.528858
O	-3.209622	-5.248946	-2.690385
O	-2.251529	-0.878829	-1.891876
C	3.573032	-5.563799	3.002711
H	3.606932	-6.664085	3.032655
H	3.382888	-5.147101	4.010326
H	4.533125	-5.148785	2.640711
C	-3.756832	-2.587487	-3.152408
H	-4.249778	-3.483329	-3.564653
H	-3.328759	-1.964972	-3.960905
H	-4.477709	-1.962932	-2.591422
H	-0.055524	-7.822318	-0.044245
C	0.000000	0.000000	0.000000
S	0.205093	0.766196	1.580530
C	0.628939	2.348114	0.904911
C	0.258137	0.964028	-0.985400
C	0.599745	2.239309	-0.493528
H	0.197169	0.736404	-2.059934
H	0.827678	3.090243	-1.152593
H	0.856796	3.198808	1.556025
$end

$rem
JOBTYPE		SP
EXCHANGE	HF
CORRELATION	pRIMP2
BASIS		cc-pvtz
METHOD		rimp2
AUX_BASIS	rimp2-cc-pvtz
SOLVENT_METHOD	PCM
PURECART	11111
SYMMETRY	false
MEM_TOTAL	110000
SCF_CONVERGENCE = 6
THRESH=10
GUI = 2
$end

$solvent
dielectric 4.90
$end
--------------------------------------------------------------

             Standard Nuclear Orientation (Angstroms)
    I     Atom           X                Y                Z
 ----------------------------------------------------------------
    1      C      -0.1977670000    -6.7414040000    -0.1640180000
    2      C      -1.1981090000    -6.1556380000    -1.0032400000
    3      C       0.6324280000    -5.7914520000     0.5331920000
    4      C      -1.4113640000    -4.8037860000    -1.1824820000
    5      H      -1.8708450000    -6.8215180000    -1.5674830000
    6      C       0.4094190000    -4.3786380000     0.3451450000
    7      C      -0.6095650000    -3.8380320000    -0.5103470000
    8      C       1.2103320000    -3.4130620000     1.0164490000
    9      C      -0.8307990000    -2.4264730000    -0.6968790000
   10      C       0.9998560000    -2.0593480000     0.8390390000
   11      C       0.0000000000    -1.4782160000     0.0000000000
   12      H       1.6734830000    -1.3947830000     1.4037370000
   13      C       1.7362820000    -6.1879870000     1.4618350000
   14      C       2.3061830000    -3.7981640000     1.9361190000
   15      N       2.4915970000    -5.1700030000     2.0939160000
   16      C      -2.5103100000    -4.4249870000    -2.1045290000
   17      C      -1.9361530000    -2.0366270000    -1.6253770000
   18      N      -2.6914510000    -3.0491560000    -2.2578730000
   19      O       2.0342220000    -7.3531310000     1.7155610000
   20      O       3.0140440000    -2.9868540000     2.5288580000
   21      O      -3.2096220000    -5.2489460000    -2.6903850000
   22      O      -2.2515290000    -0.8788290000    -1.8918760000
   23      C       3.5730320000    -5.5637990000     3.0027110000
   24      H       3.6069320000    -6.6640850000     3.0326550000
   25      H       3.3828880000    -5.1471010000     4.0103260000
   26      H       4.5331250000    -5.1487850000     2.6407110000
   27      C      -3.7568320000    -2.5874870000    -3.1524080000
   28      H      -4.2497780000    -3.4833290000    -3.5646530000
   29      H      -3.3287590000    -1.9649720000    -3.9609050000
   30      H      -4.4777090000    -1.9629320000    -2.5914220000
   31      H      -0.0555240000    -7.8223180000    -0.0442450000
   32      C       0.0000000000     0.0000000000     0.0000000000
   33      S       0.2050930000     0.7661960000     1.5805300000
   34      C       0.6289390000     2.3481140000     0.9049110000
   35      C       0.2581370000     0.9640280000    -0.9854000000
   36      C       0.5997450000     2.2393090000    -0.4935280000
   37      H       0.1971690000     0.7364040000    -2.0599340000
   38      H       0.8276780000     3.0902430000    -1.1525930000
   39      H       0.8567960000     3.1988080000     1.5560250000
 ----------------------------------------------------------------

   10   -1570.6883470183      7.02e-07  Convergence criterion met
 Total energy in the final basis set =    -1570.6883470183
        RIMP2         total energy =     -1575.3139475060 a.u.

                    Orbital Energies (a.u.)
 --------------------------------------------------------------

 Alpha MOs
 -- Occupied --
-91.9931 -20.5586 -20.5563 -20.5559 -20.5548 -15.6313 -15.6306 -11.4002
-11.3963 -11.3924 -11.3907 -11.3173 -11.3038 -11.3027 -11.3006 -11.2979
-11.2974 -11.2927 -11.2865 -11.2857 -11.2856 -11.2803 -11.2777 -11.2646
-11.2646 -11.2585 -11.2512  -8.9926  -6.6734  -6.6729  -6.6723  -1.4249
 -1.4238  -1.4042  -1.4029  -1.2675  -1.2651  -1.2177  -1.1772  -1.1442
 -1.1174  -1.0637  -1.0499  -0.9929  -0.9904  -0.9854  -0.9591  -0.9479
 -0.8973  -0.8793  -0.8782  -0.8608  -0.7964  -0.7782  -0.7730  -0.7608
 -0.7375  -0.7174  -0.7056  -0.6952  -0.6808  -0.6733  -0.6664  -0.6622
 -0.6567  -0.6421  -0.6373  -0.6332  -0.6296  -0.6128  -0.5866  -0.5843
 -0.5789  -0.5734  -0.5664  -0.5639  -0.5609  -0.5553  -0.5525  -0.5482
 -0.5391  -0.5268  -0.5214  -0.5139  -0.4836  -0.4701  -0.4675  -0.4636
 -0.4601  -0.4534  -0.4283  -0.4183  -0.4090  -0.3663  -0.3537  -0.3362
 -0.3098

          Ground-State Mulliken Net Atomic Charges

     Atom                 Charge (a.u.)
  ----------------------------------------
      1 C                    -0.134866
      2 C                    -0.108007
      3 C                    -0.040378
      4 C                    -0.003107
      5 H                     0.188805
      6 C                     0.001963
      7 C                     0.071332
      8 C                     0.009167
      9 C                    -0.028042
     10 C                    -0.138398
     11 C                     0.065954
     12 H                     0.188346
     13 C                     0.360216
     14 C                     0.363851
     15 N                    -0.101636
     16 C                     0.359802
     17 C                     0.346388
     18 N                    -0.096285
     19 O                    -0.464649
     20 O                    -0.475781
     21 O                    -0.480956
     22 O                    -0.462020
     23 C                    -0.201035
     24 H                     0.141045
     25 H                     0.112504
     26 H                     0.112378
     27 C                    -0.196255
     28 H                     0.133755
     29 H                     0.112310
     30 H                     0.113514
     31 H                     0.213950
     32 C                    -0.027802
     33 S                     0.020610
     34 C                    -0.195295
     35 C                    -0.146013
     36 C                    -0.211395
     37 H                     0.190942
     38 H                     0.191902
     39 H                     0.213185
  ----------------------------------------
  Sum of atomic charges =     0.000000

                    Cartesian Multipole Moments
 -----------------------------------------------------------------
    Charge (ESU x 10^10)
                 0.0000
    Dipole Moment (Debye)
         X       0.6899      Y       1.2793      Z      -0.8854
       Tot       1.7019
    Quadrupole Moments (Debye-Ang)
        XX    -175.4170     XY       3.3306     YY    -165.9652
        XZ      -9.9755     YZ       1.1832     ZZ    -165.9069

 Total job time:  1299.78s(wall), 66142.41s(cpu)
        *  Thank you very much for using Q-Chem.  Have a nice day.  *
