 Q-Chem 5.4, Q-Chem, Inc., Pleasanton, CA (2021)
 Q-Chem 5.4.0 for Intel X86 EM64T Linux

User input:
--------------------------------------------------------------
$molecule
0 1
C	0.001478	-6.741404	0.256927
C	0.001603	-6.155638	1.562675
C	0.001931	-5.791452	-0.827197
C	0.001374	-4.803786	1.841253
H	0.001794	-6.821518	2.440709
C	0.001227	-4.378638	-0.535488
C	0.000872	-3.838032	0.794999
C	0.000658	-3.413062	-1.580529
C	0.000186	-2.426473	1.084374
C	0.000046	-2.059348	-1.305258
C	0.000000	-1.478216	0.000000
H	-0.000369	-1.394783	-2.184267
C	0.003770	-6.187987	-2.269719
C	0.000767	-3.798164	-3.011152
N	0.002465	-5.170003	-3.254617
C	0.001433	-4.424987	3.275775
C	-0.000576	-2.036627	2.527951
N	0.000400	-3.049156	3.513104
O	0.006623	-7.353131	-2.661046
O	-0.000172	-2.986854	-3.934410
O	0.002151	-5.248946	4.188059
O	-0.002006	-0.878829	2.940845
C	0.003509	-5.563799	-4.667206
H	0.004658	-6.664085	-4.712423
H	0.897610	-5.147101	-5.169231
H	-0.890935	-5.148785	-5.169992
C	-0.000039	-2.587487	4.904229
H	0.001022	-3.483329	5.546833
H	-0.894545	-1.964972	5.095998
H	0.893071	-1.962932	5.095858
H	0.001797	-7.822318	0.070974
C	0.000000	0.000000	0.000000
S	0.509686	0.607733	1.580530
C	1.562368	1.862312	0.904911
C	0.641367	0.764613	-0.985400
C	1.489926	1.776040	-0.493528
H	0.489914	0.584081	-2.059934
H	2.056124	2.450920	-1.152593
H	2.128395	2.537007	1.556025
$end

$rem
JOBTYPE		SP
EXCHANGE	HF
CORRELATION	pRIMP2
BASIS		cc-pvtz
METHOD		rimp2
AUX_BASIS	rimp2-cc-pvtz
SOLVENT_METHOD	PCM
PURECART	11111
SYMMETRY	false
MEM_TOTAL	110000
SCF_CONVERGENCE = 6
THRESH=10
GUI = 2
$end

$solvent
dielectric 4.90
$end
--------------------------------------------------------------

             Standard Nuclear Orientation (Angstroms)
    I     Atom           X                Y                Z
 ----------------------------------------------------------------
    1      C       0.0014780000    -6.7414040000     0.2569270000
    2      C       0.0016030000    -6.1556380000     1.5626750000
    3      C       0.0019310000    -5.7914520000    -0.8271970000
    4      C       0.0013740000    -4.8037860000     1.8412530000
    5      H       0.0017940000    -6.8215180000     2.4407090000
    6      C       0.0012270000    -4.3786380000    -0.5354880000
    7      C       0.0008720000    -3.8380320000     0.7949990000
    8      C       0.0006580000    -3.4130620000    -1.5805290000
    9      C       0.0001860000    -2.4264730000     1.0843740000
   10      C       0.0000460000    -2.0593480000    -1.3052580000
   11      C       0.0000000000    -1.4782160000     0.0000000000
   12      H      -0.0003690000    -1.3947830000    -2.1842670000
   13      C       0.0037700000    -6.1879870000    -2.2697190000
   14      C       0.0007670000    -3.7981640000    -3.0111520000
   15      N       0.0024650000    -5.1700030000    -3.2546170000
   16      C       0.0014330000    -4.4249870000     3.2757750000
   17      C      -0.0005760000    -2.0366270000     2.5279510000
   18      N       0.0004000000    -3.0491560000     3.5131040000
   19      O       0.0066230000    -7.3531310000    -2.6610460000
   20      O      -0.0001720000    -2.9868540000    -3.9344100000
   21      O       0.0021510000    -5.2489460000     4.1880590000
   22      O      -0.0020060000    -0.8788290000     2.9408450000
   23      C       0.0035090000    -5.5637990000    -4.6672060000
   24      H       0.0046580000    -6.6640850000    -4.7124230000
   25      H       0.8976100000    -5.1471010000    -5.1692310000
   26      H      -0.8909350000    -5.1487850000    -5.1699920000
   27      C      -0.0000390000    -2.5874870000     4.9042290000
   28      H       0.0010220000    -3.4833290000     5.5468330000
   29      H      -0.8945450000    -1.9649720000     5.0959980000
   30      H       0.8930710000    -1.9629320000     5.0958580000
   31      H       0.0017970000    -7.8223180000     0.0709740000
   32      C       0.0000000000     0.0000000000     0.0000000000
   33      S       0.5096860000     0.6077330000     1.5805300000
   34      C       1.5623680000     1.8623120000     0.9049110000
   35      C       0.6413670000     0.7646130000    -0.9854000000
   36      C       1.4899260000     1.7760400000    -0.4935280000
   37      H       0.4899140000     0.5840810000    -2.0599340000
   38      H       2.0561240000     2.4509200000    -1.1525930000
   39      H       2.1283950000     2.5370070000     1.5560250000
 ----------------------------------------------------------------

   11   -1570.6058185572      5.69e-07  Convergence criterion met
 Total energy in the final basis set =    -1570.6058185572
        RIMP2         total energy =     -1575.2533267142 a.u.

                    Orbital Energies (a.u.)
 --------------------------------------------------------------

 Alpha MOs
 -- Occupied --
-91.9770 -20.5613 -20.5585 -20.5566 -20.5526 -15.6319 -15.6311 -11.3998
-11.3995 -11.3907 -11.3906 -11.3225 -11.3011 -11.2996 -11.2924 -11.2918
-11.2901 -11.2866 -11.2805 -11.2805 -11.2773 -11.2757 -11.2757 -11.2683
-11.2655 -11.2646 -11.2435  -8.9769  -6.6574  -6.6555  -6.6546  -1.4384
 -1.4248  -1.4077  -1.4042  -1.2702  -1.2663  -1.2159  -1.1767  -1.1408
 -1.1147  -1.0603  -1.0480  -0.9925  -0.9916  -0.9844  -0.9589  -0.9459
 -0.8971  -0.8794  -0.8759  -0.8627  -0.7917  -0.7801  -0.7768  -0.7613
 -0.7331  -0.7283  -0.7027  -0.6925  -0.6898  -0.6742  -0.6685  -0.6632
 -0.6569  -0.6411  -0.6377  -0.6359  -0.6256  -0.6145  -0.5865  -0.5838
 -0.5811  -0.5770  -0.5720  -0.5647  -0.5641  -0.5568  -0.5558  -0.5490
 -0.5330  -0.5284  -0.5205  -0.5145  -0.4899  -0.4735  -0.4631  -0.4609
 -0.4562  -0.4330  -0.4205  -0.4091  -0.3822  -0.3748  -0.3372  -0.3325
 -0.2945

          Ground-State Mulliken Net Atomic Charges

     Atom                 Charge (a.u.)
  ----------------------------------------
      1 C                    -0.156775
      2 C                    -0.110961
      3 C                    -0.023368
      4 C                    -0.005689
      5 H                     0.187191
      6 C                    -0.005203
      7 C                     0.079325
      8 C                     0.007879
      9 C                    -0.116190
     10 C                    -0.128233
     11 C                     0.073219
     12 H                     0.180496
     13 C                     0.359315
     14 C                     0.362162
     15 N                    -0.101657
     16 C                     0.357413
     17 C                     0.386552
     18 N                    -0.089894
     19 O                    -0.463753
     20 O                    -0.477746
     21 O                    -0.484373
     22 O                    -0.433222
     23 C                    -0.201314
     24 H                     0.141206
     25 H                     0.112131
     26 H                     0.112275
     27 C                    -0.198984
     28 H                     0.135389
     29 H                     0.113158
     30 H                     0.113105
     31 H                     0.211095
     32 C                    -0.033819
     33 S                     0.106738
     34 C                    -0.210318
     35 C                    -0.140347
     36 C                    -0.238655
     37 H                     0.192288
     38 H                     0.184030
     39 H                     0.205531
  ----------------------------------------
  Sum of atomic charges =     0.000000

                    Cartesian Multipole Moments
 -----------------------------------------------------------------
    Charge (ESU x 10^10)
                 0.0000
    Dipole Moment (Debye)
         X       1.4096      Y       1.6764      Z      -0.1270
       Tot       2.1940
    Quadrupole Moments (Debye-Ang)
        XX    -159.8237     XY       4.9828     YY    -177.9303
        XZ       0.9228     YZ       0.6675     ZZ    -175.6066

 Total job time:  273.15s(wall), 8417.08s(cpu)
        *  Thank you very much for using Q-Chem.  Have a nice day.  *
