 Q-Chem 5.4, Q-Chem, Inc., Pleasanton, CA (2021)
 Q-Chem 5.4.0 for Intel X86 EM64T Linux

User input:
--------------------------------------------------------------
$molecule
0 1
C	0.043160	-6.741404	-0.253280
C	0.269777	-6.155638	-1.539213
C	-0.145543	-5.791452	0.814295
C	0.318377	-4.803786	-1.813519
H	0.422058	-6.821518	-2.403941
C	-0.094194	-4.378638	0.527140
C	0.137191	-3.838032	-0.783072
C	-0.275104	-3.413062	1.556403
C	0.188116	-2.426473	-1.067932
C	-0.226701	-2.059348	1.285420
C	-0.000000	-1.478216	0.000000
H	-0.378931	-1.394783	2.151147
C	-0.397845	-6.187987	2.234582
C	-0.523637	-3.798164	2.965273
N	-0.567586	-5.170003	3.204744
C	0.567421	-4.424987	-3.226257
C	0.439541	-2.036627	-2.489446
N	0.609650	-3.049156	-3.459801
O	-0.468608	-7.353131	2.619468
O	-0.683034	-2.986854	3.874668
O	0.725131	-5.248946	-4.124806
O	0.512648	-0.878829	-2.895819
C	-0.813908	-5.563799	4.595691
H	-0.822891	-6.664085	4.640022
H	-1.781600	-5.147101	4.934830
H	-0.020360	-5.148785	5.246157
C	0.851649	-2.587487	-4.829716
H	0.962191	-3.483329	-5.462742
H	1.765865	-1.964972	-4.863242
H	0.005383	-1.962932	-5.173521
H	0.010555	-7.822318	-0.070208
C	0.000000	0.000000	0.000000
S	-0.000201	0.793171	1.580530
C	-0.000228	2.430885	0.904911
C	-0.000168	0.997990	-0.985400
C	-0.000267	2.318231	-0.493528
H	-0.000145	0.762343	-2.059934
H	-0.000339	3.199164	-1.152593
H	-0.000311	3.311566	1.556025
$end

$rem
JOBTYPE		SP
EXCHANGE	HF
CORRELATION	pRIMP2
BASIS		cc-pvtz
METHOD		rimp2
AUX_BASIS	rimp2-cc-pvtz
SOLVENT_METHOD	PCM
PURECART	11111
SYMMETRY	false
MEM_TOTAL	110000
SCF_CONVERGENCE = 6
THRESH=10
GUI = 2
$end

$solvent
dielectric 4.90
$end
--------------------------------------------------------------

             Standard Nuclear Orientation (Angstroms)
    I     Atom           X                Y                Z
 ----------------------------------------------------------------
    1      C       0.0431600000    -6.7414040000    -0.2532800000
    2      C       0.2697770000    -6.1556380000    -1.5392130000
    3      C      -0.1455430000    -5.7914520000     0.8142950000
    4      C       0.3183770000    -4.8037860000    -1.8135190000
    5      H       0.4220580000    -6.8215180000    -2.4039410000
    6      C      -0.0941940000    -4.3786380000     0.5271400000
    7      C       0.1371910000    -3.8380320000    -0.7830720000
    8      C      -0.2751040000    -3.4130620000     1.5564030000
    9      C       0.1881160000    -2.4264730000    -1.0679320000
   10      C      -0.2267010000    -2.0593480000     1.2854200000
   11      C       0.0000000000    -1.4782160000     0.0000000000
   12      H      -0.3789310000    -1.3947830000     2.1511470000
   13      C      -0.3978450000    -6.1879870000     2.2345820000
   14      C      -0.5236370000    -3.7981640000     2.9652730000
   15      N      -0.5675860000    -5.1700030000     3.2047440000
   16      C       0.5674210000    -4.4249870000    -3.2262570000
   17      C       0.4395410000    -2.0366270000    -2.4894460000
   18      N       0.6096500000    -3.0491560000    -3.4598010000
   19      O      -0.4686080000    -7.3531310000     2.6194680000
   20      O      -0.6830340000    -2.9868540000     3.8746680000
   21      O       0.7251310000    -5.2489460000    -4.1248060000
   22      O       0.5126480000    -0.8788290000    -2.8958190000
   23      C      -0.8139080000    -5.5637990000     4.5956910000
   24      H      -0.8228910000    -6.6640850000     4.6400220000
   25      H      -1.7816000000    -5.1471010000     4.9348300000
   26      H      -0.0203600000    -5.1487850000     5.2461570000
   27      C       0.8516490000    -2.5874870000    -4.8297160000
   28      H       0.9621910000    -3.4833290000    -5.4627420000
   29      H       1.7658650000    -1.9649720000    -4.8632420000
   30      H       0.0053830000    -1.9629320000    -5.1735210000
   31      H       0.0105550000    -7.8223180000    -0.0702080000
   32      C       0.0000000000     0.0000000000     0.0000000000
   33      S      -0.0002010000     0.7931710000     1.5805300000
   34      C      -0.0002280000     2.4308850000     0.9049110000
   35      C      -0.0001680000     0.9979900000    -0.9854000000
   36      C      -0.0002670000     2.3182310000    -0.4935280000
   37      H      -0.0001450000     0.7623430000    -2.0599340000
   38      H      -0.0003390000     3.1991640000    -1.1525930000
   39      H      -0.0003110000     3.3115660000     1.5560250000
 ----------------------------------------------------------------

   10   -1570.6864734065      7.82e-07  Convergence criterion met
 Total energy in the final basis set =    -1570.6864734065
        RIMP2         total energy =     -1575.3140723163 a.u.

                    Orbital Energies (a.u.)
 --------------------------------------------------------------

 Alpha MOs
 -- Occupied --
-91.9935 -20.5586 -20.5566 -20.5558 -20.5538 -15.6312 -15.6307 -11.3999
-11.3973 -11.3916 -11.3909 -11.3199 -11.3022 -11.3005 -11.2991 -11.2957
-11.2945 -11.2918 -11.2898 -11.2877 -11.2836 -11.2792 -11.2789 -11.2650
-11.2644 -11.2531 -11.2500  -8.9933  -6.6741  -6.6736  -6.6730  -1.4256
 -1.4249  -1.4043  -1.4041  -1.2676  -1.2655  -1.2172  -1.1773  -1.1443
 -1.1165  -1.0639  -1.0497  -0.9927  -0.9903  -0.9869  -0.9589  -0.9475
 -0.8975  -0.8795  -0.8789  -0.8617  -0.7967  -0.7800  -0.7732  -0.7622
 -0.7360  -0.7231  -0.7036  -0.6942  -0.6823  -0.6741  -0.6666  -0.6624
 -0.6562  -0.6417  -0.6376  -0.6340  -0.6283  -0.6130  -0.5911  -0.5838
 -0.5791  -0.5715  -0.5658  -0.5638  -0.5617  -0.5561  -0.5540  -0.5472
 -0.5356  -0.5257  -0.5246  -0.5165  -0.4821  -0.4696  -0.4657  -0.4624
 -0.4585  -0.4512  -0.4294  -0.4192  -0.4100  -0.3772  -0.3551  -0.3368
 -0.2997

          Ground-State Mulliken Net Atomic Charges

     Atom                 Charge (a.u.)
  ----------------------------------------
      1 C                    -0.143043
      2 C                    -0.111178
      3 C                    -0.030867
      4 C                    -0.003459
      5 H                     0.188055
      6 C                     0.003738
      7 C                     0.070500
      8 C                     0.053144
      9 C                    -0.070576
     10 C                    -0.179657
     11 C                     0.061611
     12 H                     0.166755
     13 C                     0.358458
     14 C                     0.366342
     15 N                    -0.101470
     16 C                     0.359736
     17 C                     0.384735
     18 N                    -0.091746
     19 O                    -0.464119
     20 O                    -0.476566
     21 O                    -0.483021
     22 O                    -0.478476
     23 C                    -0.201116
     24 H                     0.141137
     25 H                     0.112474
     26 H                     0.112602
     27 C                    -0.197972
     28 H                     0.134508
     29 H                     0.112971
     30 H                     0.112430
     31 H                     0.212808
     32 C                    -0.022688
     33 S                     0.009239
     34 C                    -0.187259
     35 C                    -0.110178
     36 C                    -0.245248
     37 H                     0.226795
     38 H                     0.191300
     39 H                     0.219303
  ----------------------------------------
  Sum of atomic charges =     0.000000

                    Cartesian Multipole Moments
 -----------------------------------------------------------------
    Charge (ESU x 10^10)
                -0.0000
    Dipole Moment (Debye)
         X      -0.0298      Y       2.0898      Z      -0.8453
       Tot       2.2544
    Quadrupole Moments (Debye-Ang)
        XX    -164.6314     XY       0.0211     YY    -167.3866
        XZ       3.5303     YZ       0.5926     ZZ    -177.4138

 Total job time:  294.31s(wall), 8093.30s(cpu)
        *  Thank you very much for using Q-Chem.  Have a nice day.  *
