 Q-Chem 5.4, Q-Chem, Inc., Pleasanton, CA (2021)
 Q-Chem 5.4.0 for Intel X86 EM64T Linux

User input:
--------------------------------------------------------------
$molecule
0 1
C	-0.166281	-6.741404	-0.195868
C	-1.005696	-6.155638	-1.196048
C	0.530233	-5.791452	0.634911
C	-1.184587	-4.803786	-1.409599
H	-1.570232	-6.821518	-1.868538
C	0.343266	-4.378638	0.410996
C	-0.511683	-3.838032	-0.608444
C	1.015440	-3.413062	1.211179
C	-0.697165	-2.426473	-0.830559
C	0.838968	-2.059348	0.999915
C	-0.000000	-1.478216	-0.000000
H	1.404302	-1.394783	1.673009
C	1.456059	-6.187987	1.741129
C	1.934944	-3.798164	2.307170
N	2.090139	-5.170003	2.494766
C	-2.106725	-4.424987	-2.508468
C	-1.624494	-2.036627	-1.936893
N	-2.258486	-3.049156	-2.690936
O	1.705414	-7.353131	2.042736
O	2.529122	-2.986854	3.013823
O	-2.693680	-5.248946	-3.206857
O	-1.888802	-0.878829	-2.254108
C	2.997334	-5.563799	3.577543
H	3.025519	-6.664085	3.612920
H	2.635109	-5.147101	4.536833
H	4.005702	-5.148785	3.387762
C	-3.152347	-2.587487	-3.756883
H	-3.566218	-3.483329	-4.248464
H	-2.590383	-1.964972	-4.478763
H	-3.959687	-1.962932	-3.329599
H	-0.046998	-7.822318	-0.053215
C	0.000000	0.000000	0.000000
S	0.396411	0.687007	1.580530
C	1.215245	2.105322	0.904911
C	0.498850	0.864369	-0.985400
C	1.158885	2.007781	-0.493528
H	0.381046	0.660280	-2.059934
H	1.599289	2.770727	-1.152593
H	1.655514	2.868056	1.556025
$end

$rem
JOBTYPE		SP
EXCHANGE	HF
CORRELATION	pRIMP2
BASIS		cc-pvtz
METHOD		rimp2
AUX_BASIS	rimp2-cc-pvtz
SOLVENT_METHOD	PCM
PURECART	11111
SYMMETRY	false
MEM_TOTAL	110000
SCF_CONVERGENCE = 6
THRESH=10
GUI = 2
$end

$solvent
dielectric 4.90
$end
--------------------------------------------------------------

             Standard Nuclear Orientation (Angstroms)
    I     Atom           X                Y                Z
 ----------------------------------------------------------------
    1      C      -0.1662810000    -6.7414040000    -0.1958680000
    2      C      -1.0056960000    -6.1556380000    -1.1960480000
    3      C       0.5302330000    -5.7914520000     0.6349110000
    4      C      -1.1845870000    -4.8037860000    -1.4095990000
    5      H      -1.5702320000    -6.8215180000    -1.8685380000
    6      C       0.3432660000    -4.3786380000     0.4109960000
    7      C      -0.5116830000    -3.8380320000    -0.6084440000
    8      C       1.0154400000    -3.4130620000     1.2111790000
    9      C      -0.6971650000    -2.4264730000    -0.8305590000
   10      C       0.8389680000    -2.0593480000     0.9999150000
   11      C       0.0000000000    -1.4782160000     0.0000000000
   12      H       1.4043020000    -1.3947830000     1.6730090000
   13      C       1.4560590000    -6.1879870000     1.7411290000
   14      C       1.9349440000    -3.7981640000     2.3071700000
   15      N       2.0901390000    -5.1700030000     2.4947660000
   16      C      -2.1067250000    -4.4249870000    -2.5084680000
   17      C      -1.6244940000    -2.0366270000    -1.9368930000
   18      N      -2.2584860000    -3.0491560000    -2.6909360000
   19      O       1.7054140000    -7.3531310000     2.0427360000
   20      O       2.5291220000    -2.9868540000     3.0138230000
   21      O      -2.6936800000    -5.2489460000    -3.2068570000
   22      O      -1.8888020000    -0.8788290000    -2.2541080000
   23      C       2.9973340000    -5.5637990000     3.5775430000
   24      H       3.0255190000    -6.6640850000     3.6129200000
   25      H       2.6351090000    -5.1471010000     4.5368330000
   26      H       4.0057020000    -5.1487850000     3.3877620000
   27      C      -3.1523470000    -2.5874870000    -3.7568830000
   28      H      -3.5662180000    -3.4833290000    -4.2484640000
   29      H      -2.5903830000    -1.9649720000    -4.4787630000
   30      H      -3.9596870000    -1.9629320000    -3.3295990000
   31      H      -0.0469980000    -7.8223180000    -0.0532150000
   32      C       0.0000000000     0.0000000000     0.0000000000
   33      S       0.3964110000     0.6870070000     1.5805300000
   34      C       1.2152450000     2.1053220000     0.9049110000
   35      C       0.4988500000     0.8643690000    -0.9854000000
   36      C       1.1588850000     2.0077810000    -0.4935280000
   37      H       0.3810460000     0.6602800000    -2.0599340000
   38      H       1.5992890000     2.7707270000    -1.1525930000
   39      H       1.6555140000     2.8680560000     1.5560250000
 ----------------------------------------------------------------

   10   -1570.6734315786      7.63e-07  Convergence criterion met
 Total energy in the final basis set =    -1570.6734315786
        RIMP2         total energy =     -1575.3032577202 a.u.

                    Orbital Energies (a.u.)
 --------------------------------------------------------------

 Alpha MOs
 -- Occupied --
-91.9918 -20.5583 -20.5560 -20.5549 -20.5536 -15.6309 -15.6297 -11.3996
-11.3949 -11.3913 -11.3902 -11.3176 -11.3018 -11.2996 -11.2986 -11.2954
-11.2952 -11.2923 -11.2894 -11.2855 -11.2837 -11.2792 -11.2736 -11.2649
-11.2644 -11.2642 -11.2523  -8.9920  -6.6728  -6.6722  -6.6717  -1.4245
 -1.4229  -1.4039  -1.4020  -1.2669  -1.2643  -1.2168  -1.1808  -1.1431
 -1.1158  -1.0633  -1.0486  -0.9922  -0.9912  -0.9889  -0.9584  -0.9467
 -0.8965  -0.8783  -0.8771  -0.8594  -0.7962  -0.7789  -0.7724  -0.7621
 -0.7362  -0.7171  -0.7057  -0.6948  -0.6802  -0.6733  -0.6658  -0.6616
 -0.6558  -0.6416  -0.6364  -0.6323  -0.6283  -0.6125  -0.5867  -0.5843
 -0.5802  -0.5744  -0.5668  -0.5632  -0.5612  -0.5554  -0.5524  -0.5478
 -0.5412  -0.5264  -0.5215  -0.5073  -0.4829  -0.4689  -0.4675  -0.4630
 -0.4595  -0.4525  -0.4277  -0.4180  -0.4084  -0.3704  -0.3527  -0.3357
 -0.3062

          Ground-State Mulliken Net Atomic Charges

     Atom                 Charge (a.u.)
  ----------------------------------------
      1 C                    -0.140271
      2 C                    -0.108598
      3 C                    -0.034940
      4 C                    -0.003479
      5 H                     0.188282
      6 C                    -0.002631
      7 C                     0.073066
      8 C                     0.023872
      9 C                    -0.052299
     10 C                    -0.149452
     11 C                     0.054766
     12 H                     0.186402
     13 C                     0.359024
     14 C                     0.363547
     15 N                    -0.101378
     16 C                     0.358224
     17 C                     0.355098
     18 N                    -0.095663
     19 O                    -0.464786
     20 O                    -0.476765
     21 O                    -0.482523
     22 O                    -0.467534
     23 C                    -0.201282
     24 H                     0.141022
     25 H                     0.112364
     26 H                     0.112237
     27 C                    -0.196954
     28 H                     0.133646
     29 H                     0.111848
     30 H                     0.113239
     31 H                     0.213089
     32 C                    -0.031009
     33 S                     0.012589
     34 C                    -0.167312
     35 C                    -0.108904
     36 C                    -0.232036
     37 H                     0.197997
     38 H                     0.192568
     39 H                     0.214934
  ----------------------------------------
  Sum of atomic charges =     0.000000

                    Cartesian Multipole Moments
 -----------------------------------------------------------------
    Charge (ESU x 10^10)
                 0.0000
    Dipole Moment (Debye)
         X       1.5267      Y       1.7736      Z      -0.7103
       Tot       2.4456
    Quadrupole Moments (Debye-Ang)
        XX    -169.7383     XY       5.2940     YY    -170.2046
        XZ      -9.9628     YZ       0.8790     ZZ    -169.5626

 Total job time:  247.33s(wall), 7644.08s(cpu)
        *  Thank you very much for using Q-Chem.  Have a nice day.  *
