 Q-Chem 5.4, Q-Chem, Inc., Pleasanton, CA (2021)
 Q-Chem 5.4.0 for Intel X86 EM64T Linux

User input:
--------------------------------------------------------------
$molecule
0 1
C	-0.166281	-6.741404	-0.195868
C	-1.005696	-6.155638	-1.196048
C	0.530233	-5.791452	0.634911
C	-1.184587	-4.803786	-1.409599
H	-1.570232	-6.821518	-1.868538
C	0.343266	-4.378638	0.410996
C	-0.511683	-3.838032	-0.608444
C	1.015440	-3.413062	1.211179
C	-0.697165	-2.426473	-0.830559
C	0.838968	-2.059348	0.999915
C	0.000000	-1.478216	0.000000
H	1.404302	-1.394783	1.673009
C	1.456059	-6.187987	1.741129
C	1.934944	-3.798164	2.307170
N	2.090139	-5.170003	2.494766
C	-2.106725	-4.424987	-2.508468
C	-1.624494	-2.036627	-1.936893
N	-2.258486	-3.049156	-2.690936
O	1.705414	-7.353131	2.042736
O	2.529122	-2.986854	3.013823
O	-2.693680	-5.248946	-3.206857
O	-1.888802	-0.878829	-2.254108
C	2.997334	-5.563799	3.577543
H	3.025519	-6.664085	3.612920
H	2.635109	-5.147101	4.536833
H	4.005702	-5.148785	3.387762
C	-3.152347	-2.587487	-3.756883
H	-3.566218	-3.483329	-4.248464
H	-2.590383	-1.964972	-4.478763
H	-3.959687	-1.962932	-3.329599
H	-0.046998	-7.822318	-0.053215
C	0.000000	0.000000	0.000000
S	0.205093	0.766196	1.580530
C	0.628939	2.348114	0.904911
C	0.258137	0.964028	-0.985400
C	0.599745	2.239309	-0.493528
H	0.197169	0.736404	-2.059934
H	0.827678	3.090243	-1.152593
H	0.856796	3.198808	1.556025
$end

$rem
JOBTYPE		SP
EXCHANGE	HF
CORRELATION	pRIMP2
BASIS		cc-pvtz
METHOD		rimp2
AUX_BASIS	rimp2-cc-pvtz
SOLVENT_METHOD	PCM
PURECART	11111
SYMMETRY	false
MEM_TOTAL	110000
SCF_CONVERGENCE = 6
THRESH=10
GUI = 2
$end

$solvent
dielectric 4.90
$end
--------------------------------------------------------------

             Standard Nuclear Orientation (Angstroms)
    I     Atom           X                Y                Z
 ----------------------------------------------------------------
    1      C      -0.1662810000    -6.7414040000    -0.1958680000
    2      C      -1.0056960000    -6.1556380000    -1.1960480000
    3      C       0.5302330000    -5.7914520000     0.6349110000
    4      C      -1.1845870000    -4.8037860000    -1.4095990000
    5      H      -1.5702320000    -6.8215180000    -1.8685380000
    6      C       0.3432660000    -4.3786380000     0.4109960000
    7      C      -0.5116830000    -3.8380320000    -0.6084440000
    8      C       1.0154400000    -3.4130620000     1.2111790000
    9      C      -0.6971650000    -2.4264730000    -0.8305590000
   10      C       0.8389680000    -2.0593480000     0.9999150000
   11      C       0.0000000000    -1.4782160000     0.0000000000
   12      H       1.4043020000    -1.3947830000     1.6730090000
   13      C       1.4560590000    -6.1879870000     1.7411290000
   14      C       1.9349440000    -3.7981640000     2.3071700000
   15      N       2.0901390000    -5.1700030000     2.4947660000
   16      C      -2.1067250000    -4.4249870000    -2.5084680000
   17      C      -1.6244940000    -2.0366270000    -1.9368930000
   18      N      -2.2584860000    -3.0491560000    -2.6909360000
   19      O       1.7054140000    -7.3531310000     2.0427360000
   20      O       2.5291220000    -2.9868540000     3.0138230000
   21      O      -2.6936800000    -5.2489460000    -3.2068570000
   22      O      -1.8888020000    -0.8788290000    -2.2541080000
   23      C       2.9973340000    -5.5637990000     3.5775430000
   24      H       3.0255190000    -6.6640850000     3.6129200000
   25      H       2.6351090000    -5.1471010000     4.5368330000
   26      H       4.0057020000    -5.1487850000     3.3877620000
   27      C      -3.1523470000    -2.5874870000    -3.7568830000
   28      H      -3.5662180000    -3.4833290000    -4.2484640000
   29      H      -2.5903830000    -1.9649720000    -4.4787630000
   30      H      -3.9596870000    -1.9629320000    -3.3295990000
   31      H      -0.0469980000    -7.8223180000    -0.0532150000
   32      C       0.0000000000     0.0000000000     0.0000000000
   33      S       0.2050930000     0.7661960000     1.5805300000
   34      C       0.6289390000     2.3481140000     0.9049110000
   35      C       0.2581370000     0.9640280000    -0.9854000000
   36      C       0.5997450000     2.2393090000    -0.4935280000
   37      H       0.1971690000     0.7364040000    -2.0599340000
   38      H       0.8276780000     3.0902430000    -1.1525930000
   39      H       0.8567960000     3.1988080000     1.5560250000
 ----------------------------------------------------------------

   10   -1570.6878097785      7.14e-07  Convergence criterion met
 Total energy in the final basis set =    -1570.6878097785
        RIMP2         total energy =     -1575.3142522035 a.u.

                    Orbital Energies (a.u.)
 --------------------------------------------------------------

 Alpha MOs
 -- Occupied --
-91.9932 -20.5586 -20.5563 -20.5554 -20.5543 -15.6312 -15.6303 -11.4000
-11.3958 -11.3919 -11.3906 -11.3179 -11.3025 -11.3020 -11.3003 -11.2970
-11.2964 -11.2923 -11.2876 -11.2866 -11.2849 -11.2799 -11.2769 -11.2645
-11.2645 -11.2595 -11.2514  -8.9928  -6.6736  -6.6731  -6.6725  -1.4249
 -1.4236  -1.4042  -1.4026  -1.2673  -1.2648  -1.2174  -1.1777  -1.1441
 -1.1169  -1.0637  -1.0496  -0.9927  -0.9905  -0.9863  -0.9589  -0.9476
 -0.8971  -0.8790  -0.8782  -0.8606  -0.7964  -0.7786  -0.7728  -0.7614
 -0.7369  -0.7172  -0.7054  -0.6950  -0.6807  -0.6734  -0.6662  -0.6620
 -0.6564  -0.6419  -0.6369  -0.6328  -0.6291  -0.6128  -0.5873  -0.5842
 -0.5793  -0.5734  -0.5662  -0.5635  -0.5611  -0.5555  -0.5524  -0.5480
 -0.5396  -0.5265  -0.5219  -0.5138  -0.4833  -0.4692  -0.4677  -0.4636
 -0.4599  -0.4531  -0.4283  -0.4183  -0.4090  -0.3698  -0.3541  -0.3364
 -0.3060

          Ground-State Mulliken Net Atomic Charges

     Atom                 Charge (a.u.)
  ----------------------------------------
      1 C                    -0.137783
      2 C                    -0.108160
      3 C                    -0.037817
      4 C                    -0.004444
      5 H                     0.188659
      6 C                     0.001189
      7 C                     0.072261
      8 C                     0.018987
      9 C                    -0.040611
     10 C                    -0.153694
     11 C                     0.073975
     12 H                     0.183702
     13 C                     0.359713
     14 C                     0.363728
     15 N                    -0.101607
     16 C                     0.359461
     17 C                     0.349300
     18 N                    -0.095290
     19 O                    -0.464541
     20 O                    -0.475898
     21 O                    -0.481762
     22 O                    -0.464922
     23 C                    -0.201080
     24 H                     0.141047
     25 H                     0.112467
     26 H                     0.112401
     27 C                    -0.196603
     28 H                     0.133805
     29 H                     0.112071
     30 H                     0.113350
     31 H                     0.213575
     32 C                    -0.032008
     33 S                     0.017598
     34 C                    -0.184394
     35 C                    -0.125480
     36 C                    -0.222057
     37 H                     0.194621
     38 H                     0.191768
     39 H                     0.214474
  ----------------------------------------
  Sum of atomic charges =     0.000000

                    Cartesian Multipole Moments
 -----------------------------------------------------------------
    Charge (ESU x 10^10)
                 0.0000
    Dipole Moment (Debye)
         X       0.7520      Y       1.5701      Z      -0.8202
       Tot       1.9244
    Quadrupole Moments (Debye-Ang)
        XX    -171.8669     XY       3.0820     YY    -166.7358
        XZ     -10.0526     YZ       1.0607     ZZ    -169.5516

 Total job time:  346.55s(wall), 12758.39s(cpu)
        *  Thank you very much for using Q-Chem.  Have a nice day.  *
