 Q-Chem 5.4, Q-Chem, Inc., Pleasanton, CA (2021)
 Q-Chem 5.4.0 for Intel X86 EM64T Linux

User input:
--------------------------------------------------------------
$molecule
0 1
C	-0.086486	-6.741404	0.241938
C	-0.532960	-6.155638	1.468983
C	0.284733	-5.791452	-0.776651
C	-0.628455	-4.803786	1.730681
H	-0.833086	-6.821518	2.294130
C	0.184300	-4.378638	-0.502775
C	-0.271086	-3.838032	0.747353
C	0.541191	-3.413062	-1.484986
C	-0.370703	-2.426473	1.019042
C	0.446468	-2.059348	-1.226525
C	-0.000000	-1.478216	-0.000000
H	0.746717	-1.394783	-2.052666
C	0.779832	-6.187987	-2.131549
C	1.030596	-3.798164	-2.829295
N	1.115461	-5.170003	-3.057496
C	-1.119034	-4.424987	3.078712
C	-0.865151	-2.036627	2.375300
N	-1.201176	-3.049156	3.301374
O	0.916355	-7.353131	-2.498300
O	1.345486	-2.986854	-3.697195
O	-1.430379	-5.248946	3.936224
O	-1.007714	-0.878829	2.762805
C	1.599576	-5.563799	-4.384539
H	1.616121	-6.664085	-4.426636
H	2.611458	-5.147101	-4.550487
H	0.931037	-5.148785	-5.162921
C	-1.677382	-2.587487	4.608454
H	-1.896168	-3.483329	5.212668
H	-2.583531	-1.964972	4.482719
H	-0.903674	-1.962932	5.093988
H	-0.022586	-7.822318	0.067309
C	0.000000	0.000000	0.000000
S	0.271091	0.745405	1.580530
C	0.831198	2.284363	0.904911
C	0.341175	0.937861	-0.985400
C	0.792631	2.178516	-0.493528
H	0.260601	0.716417	-2.059934
H	1.093860	3.006347	-1.152593
H	1.132330	3.111961	1.556025
$end

$rem
JOBTYPE		SP
EXCHANGE	HF
CORRELATION	pRIMP2
BASIS		cc-pvtz
METHOD		rimp2
AUX_BASIS	rimp2-cc-pvtz
SOLVENT_METHOD	PCM
PURECART	11111
SYMMETRY	false
MEM_TOTAL	110000
SCF_CONVERGENCE = 6
THRESH=10
GUI = 2
$end

$solvent
dielectric 4.90
$end
--------------------------------------------------------------

             Standard Nuclear Orientation (Angstroms)
    I     Atom           X                Y                Z
 ----------------------------------------------------------------
    1      C      -0.0864860000    -6.7414040000     0.2419380000
    2      C      -0.5329600000    -6.1556380000     1.4689830000
    3      C       0.2847330000    -5.7914520000    -0.7766510000
    4      C      -0.6284550000    -4.8037860000     1.7306810000
    5      H      -0.8330860000    -6.8215180000     2.2941300000
    6      C       0.1843000000    -4.3786380000    -0.5027750000
    7      C      -0.2710860000    -3.8380320000     0.7473530000
    8      C       0.5411910000    -3.4130620000    -1.4849860000
    9      C      -0.3707030000    -2.4264730000     1.0190420000
   10      C       0.4464680000    -2.0593480000    -1.2265250000
   11      C       0.0000000000    -1.4782160000     0.0000000000
   12      H       0.7467170000    -1.3947830000    -2.0526660000
   13      C       0.7798320000    -6.1879870000    -2.1315490000
   14      C       1.0305960000    -3.7981640000    -2.8292950000
   15      N       1.1154610000    -5.1700030000    -3.0574960000
   16      C      -1.1190340000    -4.4249870000     3.0787120000
   17      C      -0.8651510000    -2.0366270000     2.3753000000
   18      N      -1.2011760000    -3.0491560000     3.3013740000
   19      O       0.9163550000    -7.3531310000    -2.4983000000
   20      O       1.3454860000    -2.9868540000    -3.6971950000
   21      O      -1.4303790000    -5.2489460000     3.9362240000
   22      O      -1.0077140000    -0.8788290000     2.7628050000
   23      C       1.5995760000    -5.5637990000    -4.3845390000
   24      H       1.6161210000    -6.6640850000    -4.4266360000
   25      H       2.6114580000    -5.1471010000    -4.5504870000
   26      H       0.9310370000    -5.1487850000    -5.1629210000
   27      C      -1.6773820000    -2.5874870000     4.6084540000
   28      H      -1.8961680000    -3.4833290000     5.2126680000
   29      H      -2.5835310000    -1.9649720000     4.4827190000
   30      H      -0.9036740000    -1.9629320000     5.0939880000
   31      H      -0.0225860000    -7.8223180000     0.0673090000
   32      C       0.0000000000     0.0000000000     0.0000000000
   33      S       0.2710910000     0.7454050000     1.5805300000
   34      C       0.8311980000     2.2843630000     0.9049110000
   35      C       0.3411750000     0.9378610000    -0.9854000000
   36      C       0.7926310000     2.1785160000    -0.4935280000
   37      H       0.2606010000     0.7164170000    -2.0599340000
   38      H       1.0938600000     3.0063470000    -1.1525930000
   39      H       1.1323300000     3.1119610000     1.5560250000
 ----------------------------------------------------------------

   10   -1570.6679163188      8.16e-07  Convergence criterion met
 Total energy in the final basis set =    -1570.6679163188
        RIMP2         total energy =     -1575.3021114244 a.u.

                    Orbital Energies (a.u.)
 --------------------------------------------------------------

 Alpha MOs
 -- Occupied --
-91.9820 -20.5587 -20.5568 -20.5567 -20.5536 -15.6314 -15.6308 -11.4000
-11.3976 -11.3914 -11.3910 -11.3203 -11.3021 -11.3006 -11.2987 -11.2952
-11.2940 -11.2891 -11.2870 -11.2833 -11.2797 -11.2790 -11.2778 -11.2648
-11.2647 -11.2635 -11.2466  -8.9815  -6.6620  -6.6610  -6.6604  -1.4280
 -1.4251  -1.4054  -1.4045  -1.2681  -1.2660  -1.2168  -1.1749  -1.1429
 -1.1164  -1.0620  -1.0492  -0.9928  -0.9893  -0.9835  -0.9589  -0.9470
 -0.8967  -0.8795  -0.8775  -0.8620  -0.7936  -0.7774  -0.7753  -0.7621
 -0.7321  -0.7210  -0.7038  -0.6935  -0.6871  -0.6746  -0.6669  -0.6627
 -0.6568  -0.6402  -0.6373  -0.6354  -0.6273  -0.6141  -0.5837  -0.5830
 -0.5815  -0.5726  -0.5701  -0.5657  -0.5644  -0.5558  -0.5553  -0.5488
 -0.5327  -0.5250  -0.5207  -0.5181  -0.4882  -0.4735  -0.4640  -0.4633
 -0.4570  -0.4334  -0.4234  -0.4134  -0.4080  -0.3743  -0.3460  -0.3367
 -0.2983

          Ground-State Mulliken Net Atomic Charges

     Atom                 Charge (a.u.)
  ----------------------------------------
      1 C                    -0.145884
      2 C                    -0.110442
      3 C                    -0.029903
      4 C                    -0.005011
      5 H                     0.188224
      6 C                     0.002087
      7 C                     0.084194
      8 C                     0.006454
      9 C                    -0.078213
     10 C                    -0.136978
     11 C                     0.074242
     12 H                     0.180018
     13 C                     0.358637
     14 C                     0.363988
     15 N                    -0.101854
     16 C                     0.358496
     17 C                     0.371715
     18 N                    -0.094387
     19 O                    -0.464084
     20 O                    -0.477408
     21 O                    -0.482663
     22 O                    -0.468213
     23 C                    -0.201279
     24 H                     0.141232
     25 H                     0.112381
     26 H                     0.112389
     27 C                    -0.197526
     28 H                     0.134468
     29 H                     0.113119
     30 H                     0.113204
     31 H                     0.212616
     32 C                     0.011201
     33 S                     0.097752
     34 C                    -0.217087
     35 C                    -0.202599
     36 C                    -0.208963
     37 H                     0.187738
     38 H                     0.188206
     39 H                     0.210134
  ----------------------------------------
  Sum of atomic charges =     0.000000

                    Cartesian Multipole Moments
 -----------------------------------------------------------------
    Charge (ESU x 10^10)
                 0.0000
    Dipole Moment (Debye)
         X       0.5933      Y       1.5667      Z      -0.5289
       Tot       1.7568
    Quadrupole Moments (Debye-Ang)
        XX    -165.2240     XY       3.4624     YY    -170.5791
        XZ       6.5748     YZ       0.7244     ZZ    -174.4600

 Total job time:  266.68s(wall), 8591.12s(cpu)
        *  Thank you very much for using Q-Chem.  Have a nice day.  *
