 Q-Chem 5.4, Q-Chem, Inc., Pleasanton, CA (2021)
 Q-Chem 5.4.0 for Intel X86 EM64T Linux

User input:
--------------------------------------------------------------
$molecule
0 1
C	-0.197767	-6.741404	-0.164018
C	-1.198109	-6.155638	-1.003240
C	0.632428	-5.791452	0.533192
C	-1.411364	-4.803786	-1.182482
H	-1.870845	-6.821518	-1.567483
C	0.409419	-4.378638	0.345145
C	-0.609565	-3.838032	-0.510347
C	1.210332	-3.413062	1.016449
C	-0.830799	-2.426473	-0.696879
C	0.999856	-2.059348	0.839039
C	-0.000000	-1.478216	-0.000000
H	1.673483	-1.394783	1.403737
C	1.736282	-6.187987	1.461835
C	2.306183	-3.798164	1.936119
N	2.491597	-5.170003	2.093916
C	-2.510310	-4.424987	-2.104529
C	-1.936153	-2.036627	-1.625377
N	-2.691451	-3.049156	-2.257873
O	2.034222	-7.353131	1.715561
O	3.014044	-2.986854	2.528858
O	-3.209622	-5.248946	-2.690385
O	-2.251529	-0.878829	-1.891876
C	3.573032	-5.563799	3.002711
H	3.606932	-6.664085	3.032655
H	3.382888	-5.147101	4.010326
H	4.533125	-5.148785	2.640711
C	-3.756832	-2.587487	-3.152408
H	-4.249778	-3.483329	-3.564653
H	-3.328759	-1.964972	-3.960905
H	-4.477709	-1.962932	-2.591422
H	-0.055524	-7.822318	-0.044245
C	0.000000	0.000000	0.000000
S	0.271091	0.745405	1.580530
C	0.831198	2.284363	0.904911
C	0.341175	0.937861	-0.985400
C	0.792631	2.178516	-0.493528
H	0.260601	0.716417	-2.059934
H	1.093860	3.006347	-1.152593
H	1.132330	3.111961	1.556025
$end

$rem
JOBTYPE		SP
EXCHANGE	HF
CORRELATION	pRIMP2
BASIS		cc-pvtz
METHOD		rimp2
AUX_BASIS	rimp2-cc-pvtz
SOLVENT_METHOD	PCM
PURECART	11111
SYMMETRY	false
MEM_TOTAL	110000
SCF_CONVERGENCE = 6
THRESH=10
GUI = 2
$end

$solvent
dielectric 4.90
$end
--------------------------------------------------------------

             Standard Nuclear Orientation (Angstroms)
    I     Atom           X                Y                Z
 ----------------------------------------------------------------
    1      C      -0.1977670000    -6.7414040000    -0.1640180000
    2      C      -1.1981090000    -6.1556380000    -1.0032400000
    3      C       0.6324280000    -5.7914520000     0.5331920000
    4      C      -1.4113640000    -4.8037860000    -1.1824820000
    5      H      -1.8708450000    -6.8215180000    -1.5674830000
    6      C       0.4094190000    -4.3786380000     0.3451450000
    7      C      -0.6095650000    -3.8380320000    -0.5103470000
    8      C       1.2103320000    -3.4130620000     1.0164490000
    9      C      -0.8307990000    -2.4264730000    -0.6968790000
   10      C       0.9998560000    -2.0593480000     0.8390390000
   11      C       0.0000000000    -1.4782160000     0.0000000000
   12      H       1.6734830000    -1.3947830000     1.4037370000
   13      C       1.7362820000    -6.1879870000     1.4618350000
   14      C       2.3061830000    -3.7981640000     1.9361190000
   15      N       2.4915970000    -5.1700030000     2.0939160000
   16      C      -2.5103100000    -4.4249870000    -2.1045290000
   17      C      -1.9361530000    -2.0366270000    -1.6253770000
   18      N      -2.6914510000    -3.0491560000    -2.2578730000
   19      O       2.0342220000    -7.3531310000     1.7155610000
   20      O       3.0140440000    -2.9868540000     2.5288580000
   21      O      -3.2096220000    -5.2489460000    -2.6903850000
   22      O      -2.2515290000    -0.8788290000    -1.8918760000
   23      C       3.5730320000    -5.5637990000     3.0027110000
   24      H       3.6069320000    -6.6640850000     3.0326550000
   25      H       3.3828880000    -5.1471010000     4.0103260000
   26      H       4.5331250000    -5.1487850000     2.6407110000
   27      C      -3.7568320000    -2.5874870000    -3.1524080000
   28      H      -4.2497780000    -3.4833290000    -3.5646530000
   29      H      -3.3287590000    -1.9649720000    -3.9609050000
   30      H      -4.4777090000    -1.9629320000    -2.5914220000
   31      H      -0.0555240000    -7.8223180000    -0.0442450000
   32      C       0.0000000000     0.0000000000     0.0000000000
   33      S       0.2710910000     0.7454050000     1.5805300000
   34      C       0.8311980000     2.2843630000     0.9049110000
   35      C       0.3411750000     0.9378610000    -0.9854000000
   36      C       0.7926310000     2.1785160000    -0.4935280000
   37      H       0.2606010000     0.7164170000    -2.0599340000
   38      H       1.0938600000     3.0063470000    -1.1525930000
   39      H       1.1323300000     3.1119610000     1.5560250000
 ----------------------------------------------------------------

   10   -1570.6851025902      7.08e-07  Convergence criterion met
 Total energy in the final basis set =    -1570.6851025902
        RIMP2         total energy =     -1575.3115326432 a.u.

                    Orbital Energies (a.u.)
 --------------------------------------------------------------

 Alpha MOs
 -- Occupied --
-91.9927 -20.5585 -20.5562 -20.5559 -20.5547 -15.6312 -15.6305 -11.4001
-11.3961 -11.3923 -11.3906 -11.3173 -11.3031 -11.3026 -11.3003 -11.2976
-11.2971 -11.2922 -11.2867 -11.2863 -11.2854 -11.2801 -11.2770 -11.2646
-11.2645 -11.2599 -11.2515  -8.9924  -6.6732  -6.6727  -6.6721  -1.4248
 -1.4237  -1.4041  -1.4028  -1.2674  -1.2650  -1.2176  -1.1780  -1.1440
 -1.1171  -1.0636  -1.0497  -0.9928  -0.9906  -0.9861  -0.9590  -0.9477
 -0.8972  -0.8791  -0.8780  -0.8604  -0.7963  -0.7783  -0.7729  -0.7611
 -0.7373  -0.7173  -0.7058  -0.6951  -0.6807  -0.6733  -0.6663  -0.6621
 -0.6566  -0.6420  -0.6372  -0.6331  -0.6294  -0.6128  -0.5864  -0.5842
 -0.5791  -0.5736  -0.5666  -0.5638  -0.5609  -0.5553  -0.5526  -0.5482
 -0.5398  -0.5268  -0.5213  -0.5121  -0.4835  -0.4700  -0.4676  -0.4636
 -0.4600  -0.4533  -0.4282  -0.4182  -0.4089  -0.3668  -0.3532  -0.3360
 -0.3099

          Ground-State Mulliken Net Atomic Charges

     Atom                 Charge (a.u.)
  ----------------------------------------
      1 C                    -0.135269
      2 C                    -0.108290
      3 C                    -0.039853
      4 C                    -0.002640
      5 H                     0.188708
      6 C                     0.002207
      7 C                     0.071237
      8 C                     0.009137
      9 C                    -0.030800
     10 C                    -0.133462
     11 C                     0.056517
     12 H                     0.188892
     13 C                     0.360039
     14 C                     0.363434
     15 N                    -0.101566
     16 C                     0.359460
     17 C                     0.348283
     18 N                    -0.096545
     19 O                    -0.464730
     20 O                    -0.475947
     21 O                    -0.481071
     22 O                    -0.463056
     23 C                    -0.201092
     24 H                     0.141040
     25 H                     0.112478
     26 H                     0.112338
     27 C                    -0.196337
     28 H                     0.133721
     29 H                     0.112278
     30 H                     0.113491
     31 H                     0.213837
     32 C                    -0.022834
     33 S                     0.017613
     34 C                    -0.190582
     35 C                    -0.144145
     36 C                    -0.213663
     37 H                     0.191774
     38 H                     0.192136
     39 H                     0.213262
  ----------------------------------------
  Sum of atomic charges =     0.000000

                    Cartesian Multipole Moments
 -----------------------------------------------------------------
    Charge (ESU x 10^10)
                 0.0000
    Dipole Moment (Debye)
         X       0.9226      Y       1.3266      Z      -0.8615
       Tot       1.8312
    Quadrupole Moments (Debye-Ang)
        XX    -174.8647     XY       4.1743     YY    -166.8545
        XZ      -9.9378     YZ       1.1549     ZZ    -165.8896

 Total job time:  284.48s(wall), 8458.87s(cpu)
        *  Thank you very much for using Q-Chem.  Have a nice day.  *
