 Q-Chem 5.4, Q-Chem, Inc., Pleasanton, CA (2021)
 Q-Chem 5.4.0 for Intel X86 EM64T Linux

User input:
--------------------------------------------------------------
$molecule
0 1
C	-0.166281	-6.741404	-0.195868
C	-1.005696	-6.155638	-1.196048
C	0.530233	-5.791452	0.634911
C	-1.184587	-4.803786	-1.409599
H	-1.570232	-6.821518	-1.868538
C	0.343266	-4.378638	0.410996
C	-0.511683	-3.838032	-0.608444
C	1.015440	-3.413062	1.211179
C	-0.697165	-2.426473	-0.830559
C	0.838968	-2.059348	0.999915
C	0.000000	-1.478216	0.000000
H	1.404302	-1.394783	1.673009
C	1.456059	-6.187987	1.741129
C	1.934944	-3.798164	2.307170
N	2.090139	-5.170003	2.494766
C	-2.106725	-4.424987	-2.508468
C	-1.624494	-2.036627	-1.936893
N	-2.258486	-3.049156	-2.690936
O	1.705414	-7.353131	2.042736
O	2.529122	-2.986854	3.013823
O	-2.693680	-5.248946	-3.206857
O	-1.888802	-0.878829	-2.254108
C	2.997334	-5.563799	3.577543
H	3.025519	-6.664085	3.612920
H	2.635109	-5.147101	4.536833
H	4.005702	-5.148785	3.387762
C	-3.152347	-2.587487	-3.756883
H	-3.566218	-3.483329	-4.248464
H	-2.590383	-1.964972	-4.478763
H	-3.959687	-1.962932	-3.329599
H	-0.046998	-7.822318	-0.053215
C	0.000000	0.000000	0.000000
S	0.509686	0.607733	1.580530
C	1.562368	1.862312	0.904911
C	0.641367	0.764613	-0.985400
C	1.489926	1.776040	-0.493528
H	0.489914	0.584081	-2.059934
H	2.056124	2.450920	-1.152593
H	2.128395	2.537007	1.556025
$end

$rem
JOBTYPE		SP
EXCHANGE	HF
CORRELATION	pRIMP2
BASIS		cc-pvtz
METHOD		rimp2
AUX_BASIS	rimp2-cc-pvtz
SOLVENT_METHOD	PCM
PURECART	11111
SYMMETRY	false
MEM_TOTAL	110000
SCF_CONVERGENCE = 6
THRESH=10
GUI = 2
$end

$solvent
dielectric 4.90
$end
--------------------------------------------------------------

             Standard Nuclear Orientation (Angstroms)
    I     Atom           X                Y                Z
 ----------------------------------------------------------------
    1      C      -0.1662810000    -6.7414040000    -0.1958680000
    2      C      -1.0056960000    -6.1556380000    -1.1960480000
    3      C       0.5302330000    -5.7914520000     0.6349110000
    4      C      -1.1845870000    -4.8037860000    -1.4095990000
    5      H      -1.5702320000    -6.8215180000    -1.8685380000
    6      C       0.3432660000    -4.3786380000     0.4109960000
    7      C      -0.5116830000    -3.8380320000    -0.6084440000
    8      C       1.0154400000    -3.4130620000     1.2111790000
    9      C      -0.6971650000    -2.4264730000    -0.8305590000
   10      C       0.8389680000    -2.0593480000     0.9999150000
   11      C       0.0000000000    -1.4782160000     0.0000000000
   12      H       1.4043020000    -1.3947830000     1.6730090000
   13      C       1.4560590000    -6.1879870000     1.7411290000
   14      C       1.9349440000    -3.7981640000     2.3071700000
   15      N       2.0901390000    -5.1700030000     2.4947660000
   16      C      -2.1067250000    -4.4249870000    -2.5084680000
   17      C      -1.6244940000    -2.0366270000    -1.9368930000
   18      N      -2.2584860000    -3.0491560000    -2.6909360000
   19      O       1.7054140000    -7.3531310000     2.0427360000
   20      O       2.5291220000    -2.9868540000     3.0138230000
   21      O      -2.6936800000    -5.2489460000    -3.2068570000
   22      O      -1.8888020000    -0.8788290000    -2.2541080000
   23      C       2.9973340000    -5.5637990000     3.5775430000
   24      H       3.0255190000    -6.6640850000     3.6129200000
   25      H       2.6351090000    -5.1471010000     4.5368330000
   26      H       4.0057020000    -5.1487850000     3.3877620000
   27      C      -3.1523470000    -2.5874870000    -3.7568830000
   28      H      -3.5662180000    -3.4833290000    -4.2484640000
   29      H      -2.5903830000    -1.9649720000    -4.4787630000
   30      H      -3.9596870000    -1.9629320000    -3.3295990000
   31      H      -0.0469980000    -7.8223180000    -0.0532150000
   32      C       0.0000000000     0.0000000000     0.0000000000
   33      S       0.5096860000     0.6077330000     1.5805300000
   34      C       1.5623680000     1.8623120000     0.9049110000
   35      C       0.6413670000     0.7646130000    -0.9854000000
   36      C       1.4899260000     1.7760400000    -0.4935280000
   37      H       0.4899140000     0.5840810000    -2.0599340000
   38      H       2.0561240000     2.4509200000    -1.1525930000
   39      H       2.1283950000     2.5370070000     1.5560250000
 ----------------------------------------------------------------

   10   -1570.6569964018      8.44e-07  Convergence criterion met
 Total energy in the final basis set =    -1570.6569964018
        RIMP2         total energy =     -1575.2904531197 a.u.

                    Orbital Energies (a.u.)
 --------------------------------------------------------------

 Alpha MOs
 -- Occupied --
-91.9909 -20.5580 -20.5558 -20.5540 -20.5529 -15.6306 -15.6289 -11.3993
-11.3938 -11.3905 -11.3898 -11.3174 -11.3011 -11.2983 -11.2975 -11.2957
-11.2939 -11.2937 -11.2856 -11.2844 -11.2825 -11.2784 -11.2703 -11.2703
-11.2643 -11.2638 -11.2532  -8.9916  -6.6723  -6.6716  -6.6713  -1.4242
 -1.4221  -1.4036  -1.4012  -1.2665  -1.2636  -1.2164  -1.1839  -1.1420
 -1.1148  -1.0630  -1.0477  -0.9928  -0.9917  -0.9908  -0.9579  -0.9457
 -0.8959  -0.8776  -0.8761  -0.8583  -0.7963  -0.7793  -0.7719  -0.7628
 -0.7356  -0.7173  -0.7058  -0.6945  -0.6797  -0.6733  -0.6653  -0.6611
 -0.6553  -0.6418  -0.6359  -0.6318  -0.6275  -0.6122  -0.5861  -0.5851
 -0.5806  -0.5760  -0.5671  -0.5629  -0.5611  -0.5554  -0.5522  -0.5477
 -0.5420  -0.5260  -0.5210  -0.5014  -0.4824  -0.4691  -0.4667  -0.4622
 -0.4590  -0.4519  -0.4271  -0.4176  -0.4078  -0.3711  -0.3505  -0.3351
 -0.3062

          Ground-State Mulliken Net Atomic Charges

     Atom                 Charge (a.u.)
  ----------------------------------------
      1 C                    -0.143395
      2 C                    -0.108937
      3 C                    -0.032243
      4 C                    -0.002980
      5 H                     0.187940
      6 C                    -0.007450
      7 C                     0.072421
      8 C                     0.030837
      9 C                    -0.062455
     10 C                    -0.155780
     11 C                     0.055744
     12 H                     0.187163
     13 C                     0.358436
     14 C                     0.364028
     15 N                    -0.101151
     16 C                     0.357246
     17 C                     0.359640
     18 N                    -0.095449
     19 O                    -0.464975
     20 O                    -0.477807
     21 O                    -0.483459
     22 O                    -0.469701
     23 C                    -0.201443
     24 H                     0.141006
     25 H                     0.112259
     26 H                     0.112065
     27 C                    -0.197310
     28 H                     0.133481
     29 H                     0.111620
     30 H                     0.113081
     31 H                     0.212576
     32 C                    -0.046216
     33 S                     0.015898
     34 C                    -0.156333
     35 C                    -0.090606
     36 C                    -0.237353
     37 H                     0.200435
     38 H                     0.193305
     39 H                     0.215862
  ----------------------------------------
  Sum of atomic charges =     0.000000

                    Cartesian Multipole Moments
 -----------------------------------------------------------------
    Charge (ESU x 10^10)
                 0.0000
    Dipole Moment (Debye)
         X       2.1354      Y       1.9693      Z      -0.6119
       Tot       2.9686
    Quadrupole Moments (Debye-Ang)
        XX    -167.7477     XY       6.0856     YY    -173.5557
        XZ      -9.9237     YZ       0.6228     ZZ    -169.5588

 Total job time:  242.31s(wall), 7634.98s(cpu)
        *  Thank you very much for using Q-Chem.  Have a nice day.  *
