 Q-Chem 5.4, Q-Chem, Inc., Pleasanton, CA (2021)
 Q-Chem 5.4.0 for Intel X86 EM64T Linux

User input:
--------------------------------------------------------------
$molecule
0 1
C	0.001478	-6.741404	0.256927
C	0.001603	-6.155638	1.562675
C	0.001931	-5.791452	-0.827197
C	0.001374	-4.803786	1.841253
H	0.001794	-6.821518	2.440709
C	0.001227	-4.378638	-0.535488
C	0.000872	-3.838032	0.794999
C	0.000658	-3.413062	-1.580529
C	0.000186	-2.426473	1.084374
C	0.000046	-2.059348	-1.305258
C	-0.000000	-1.478216	-0.000000
H	-0.000369	-1.394783	-2.184267
C	0.003770	-6.187987	-2.269719
C	0.000767	-3.798164	-3.011152
N	0.002465	-5.170003	-3.254617
C	0.001433	-4.424987	3.275775
C	-0.000576	-2.036627	2.527951
N	0.000400	-3.049156	3.513104
O	0.006623	-7.353131	-2.661046
O	-0.000172	-2.986854	-3.934410
O	0.002151	-5.248946	4.188059
O	-0.002006	-0.878829	2.940845
C	0.003509	-5.563799	-4.667206
H	0.004658	-6.664085	-4.712423
H	0.897610	-5.147101	-5.169231
H	-0.890935	-5.148785	-5.169992
C	-0.000039	-2.587487	4.904229
H	0.001022	-3.483329	5.546833
H	-0.894545	-1.964972	5.095998
H	0.893071	-1.962932	5.095858
H	0.001797	-7.822318	0.070974
C	0.000000	0.000000	0.000000
S	-0.000201	0.793171	1.580530
C	-0.000228	2.430885	0.904911
C	-0.000168	0.997990	-0.985400
C	-0.000267	2.318231	-0.493528
H	-0.000145	0.762343	-2.059934
H	-0.000339	3.199164	-1.152593
H	-0.000311	3.311566	1.556025
$end

$rem
JOBTYPE		SP
EXCHANGE	HF
CORRELATION	pRIMP2
BASIS		cc-pvtz
METHOD		rimp2
AUX_BASIS	rimp2-cc-pvtz
SOLVENT_METHOD	PCM
PURECART	11111
SYMMETRY	false
MEM_TOTAL	110000
SCF_CONVERGENCE = 6
THRESH=10
GUI = 2
$end

$solvent
dielectric 4.90
$end
--------------------------------------------------------------

             Standard Nuclear Orientation (Angstroms)
    I     Atom           X                Y                Z
 ----------------------------------------------------------------
    1      C       0.0014780000    -6.7414040000     0.2569270000
    2      C       0.0016030000    -6.1556380000     1.5626750000
    3      C       0.0019310000    -5.7914520000    -0.8271970000
    4      C       0.0013740000    -4.8037860000     1.8412530000
    5      H       0.0017940000    -6.8215180000     2.4407090000
    6      C       0.0012270000    -4.3786380000    -0.5354880000
    7      C       0.0008720000    -3.8380320000     0.7949990000
    8      C       0.0006580000    -3.4130620000    -1.5805290000
    9      C       0.0001860000    -2.4264730000     1.0843740000
   10      C       0.0000460000    -2.0593480000    -1.3052580000
   11      C       0.0000000000    -1.4782160000     0.0000000000
   12      H      -0.0003690000    -1.3947830000    -2.1842670000
   13      C       0.0037700000    -6.1879870000    -2.2697190000
   14      C       0.0007670000    -3.7981640000    -3.0111520000
   15      N       0.0024650000    -5.1700030000    -3.2546170000
   16      C       0.0014330000    -4.4249870000     3.2757750000
   17      C      -0.0005760000    -2.0366270000     2.5279510000
   18      N       0.0004000000    -3.0491560000     3.5131040000
   19      O       0.0066230000    -7.3531310000    -2.6610460000
   20      O      -0.0001720000    -2.9868540000    -3.9344100000
   21      O       0.0021510000    -5.2489460000     4.1880590000
   22      O      -0.0020060000    -0.8788290000     2.9408450000
   23      C       0.0035090000    -5.5637990000    -4.6672060000
   24      H       0.0046580000    -6.6640850000    -4.7124230000
   25      H       0.8976100000    -5.1471010000    -5.1692310000
   26      H      -0.8909350000    -5.1487850000    -5.1699920000
   27      C      -0.0000390000    -2.5874870000     4.9042290000
   28      H       0.0010220000    -3.4833290000     5.5468330000
   29      H      -0.8945450000    -1.9649720000     5.0959980000
   30      H       0.8930710000    -1.9629320000     5.0958580000
   31      H       0.0017970000    -7.8223180000     0.0709740000
   32      C       0.0000000000     0.0000000000     0.0000000000
   33      S      -0.0002010000     0.7931710000     1.5805300000
   34      C      -0.0002280000     2.4308850000     0.9049110000
   35      C      -0.0001680000     0.9979900000    -0.9854000000
   36      C      -0.0002670000     2.3182310000    -0.4935280000
   37      H      -0.0001450000     0.7623430000    -2.0599340000
   38      H      -0.0003390000     3.1991640000    -1.1525930000
   39      H      -0.0003110000     3.3115660000     1.5560250000
 ----------------------------------------------------------------

   10   -1570.6487829746      8.55e-07  Convergence criterion met
 Total energy in the final basis set =    -1570.6487829746
        RIMP2         total energy =     -1575.2868764121 a.u.

                    Orbital Energies (a.u.)
 --------------------------------------------------------------

 Alpha MOs
 -- Occupied --
-91.9753 -20.5606 -20.5592 -20.5573 -20.5545 -15.6329 -15.6318 -11.4015
-11.4004 -11.3924 -11.3916 -11.3221 -11.3028 -11.3020 -11.3006 -11.2961
-11.2943 -11.2905 -11.2882 -11.2840 -11.2796 -11.2794 -11.2668 -11.2659
-11.2650 -11.2602 -11.2423  -8.9749  -6.6553  -6.6538  -6.6529  -1.4354
 -1.4255  -1.4085  -1.4049  -1.2707  -1.2670  -1.2177  -1.1717  -1.1426
 -1.1174  -1.0621  -1.0503  -0.9937  -0.9899  -0.9798  -0.9599  -0.9469
 -0.8983  -0.8811  -0.8789  -0.8641  -0.7939  -0.7793  -0.7778  -0.7595
 -0.7325  -0.7291  -0.7027  -0.6935  -0.6896  -0.6748  -0.6688  -0.6638
 -0.6580  -0.6416  -0.6392  -0.6370  -0.6276  -0.6150  -0.5847  -0.5836
 -0.5813  -0.5764  -0.5716  -0.5654  -0.5614  -0.5568  -0.5566  -0.5496
 -0.5330  -0.5252  -0.5215  -0.5200  -0.4901  -0.4717  -0.4709  -0.4639
 -0.4573  -0.4330  -0.4210  -0.4105  -0.3845  -0.3757  -0.3432  -0.3378
 -0.2951

          Ground-State Mulliken Net Atomic Charges

     Atom                 Charge (a.u.)
  ----------------------------------------
      1 C                    -0.146122
      2 C                    -0.111676
      3 C                    -0.028646
      4 C                    -0.000888
      5 H                     0.188150
      6 C                     0.004987
      7 C                     0.082182
      8 C                    -0.002753
      9 C                    -0.076526
     10 C                    -0.128783
     11 C                     0.065345
     12 H                     0.184525
     13 C                     0.358977
     14 C                     0.364657
     15 N                    -0.101859
     16 C                     0.359574
     17 C                     0.373768
     18 N                    -0.091130
     19 O                    -0.463660
     20 O                    -0.476646
     21 O                    -0.481857
     22 O                    -0.440781
     23 C                    -0.201123
     24 H                     0.141315
     25 H                     0.112492
     26 H                     0.112516
     27 C                    -0.199007
     28 H                     0.135497
     29 H                     0.113792
     30 H                     0.113792
     31 H                     0.212700
     32 C                    -0.019258
     33 S                     0.097039
     34 C                    -0.232346
     35 C                    -0.146959
     36 C                    -0.247969
     37 H                     0.188446
     38 H                     0.182217
     39 H                     0.206020
  ----------------------------------------
  Sum of atomic charges =     0.000000

                    Cartesian Multipole Moments
 -----------------------------------------------------------------
    Charge (ESU x 10^10)
                 0.0000
    Dipole Moment (Debye)
         X      -0.0040      Y       0.8573      Z      -0.1377
       Tot       0.8683
    Quadrupole Moments (Debye-Ang)
        XX    -164.1326     XY       0.0595     YY    -169.7468
        XZ       0.0041     YZ       0.0797     ZZ    -175.4861

 Total job time:  266.99s(wall), 8130.24s(cpu)
        *  Thank you very much for using Q-Chem.  Have a nice day.  *
