 Q-Chem 5.4, Q-Chem, Inc., Pleasanton, CA (2021)
 Q-Chem 5.4.0 for Intel X86 EM64T Linux

User input:
--------------------------------------------------------------
$molecule
0 1
C	0.164018	-6.741404	-0.197767
C	1.003240	-6.155638	-1.198109
C	-0.533192	-5.791452	0.632428
C	1.182482	-4.803786	-1.411364
H	1.567483	-6.821518	-1.870845
C	-0.345145	-4.378638	0.409419
C	0.510347	-3.838032	-0.609565
C	-1.016449	-3.413062	1.210332
C	0.696879	-2.426473	-0.830799
C	-0.839039	-2.059348	0.999856
C	-0.000000	-1.478216	-0.000000
H	-1.403737	-1.394783	1.673483
C	-1.461835	-6.187987	1.736282
C	-1.936119	-3.798164	2.306183
N	-2.093916	-5.170003	2.491597
C	2.104529	-4.424987	-2.510310
C	1.625377	-2.036627	-1.936153
N	2.257873	-3.049156	-2.691451
O	-1.715561	-7.353131	2.034222
O	-2.528858	-2.986854	3.014044
O	2.690385	-5.248946	-3.209622
O	1.891876	-0.878829	-2.251529
C	-3.002711	-5.563799	3.573032
H	-3.032655	-6.664085	3.606932
H	-4.010326	-5.147101	3.382888
H	-2.640711	-5.148785	4.533125
C	3.152408	-2.587487	-3.756832
H	3.564653	-3.483329	-4.249778
H	3.960905	-1.964972	-3.328759
H	2.591422	-1.962932	-4.477709
H	0.044245	-7.822318	-0.055524
C	0.000000	0.000000	0.000000
S	0.396411	0.687007	1.580530
C	1.215245	2.105322	0.904911
C	0.498850	0.864369	-0.985400
C	1.158885	2.007781	-0.493528
H	0.381046	0.660280	-2.059934
H	1.599289	2.770727	-1.152593
H	1.655514	2.868056	1.556025
$end

$rem
JOBTYPE		SP
EXCHANGE	HF
CORRELATION	pRIMP2
BASIS		cc-pvtz
METHOD		rimp2
AUX_BASIS	rimp2-cc-pvtz
SOLVENT_METHOD	PCM
PURECART	11111
SYMMETRY	false
MEM_TOTAL	110000
SCF_CONVERGENCE = 6
THRESH=10
GUI = 2
$end

$solvent
dielectric 4.90
$end
--------------------------------------------------------------

             Standard Nuclear Orientation (Angstroms)
    I     Atom           X                Y                Z
 ----------------------------------------------------------------
    1      C       0.1640180000    -6.7414040000    -0.1977670000
    2      C       1.0032400000    -6.1556380000    -1.1981090000
    3      C      -0.5331920000    -5.7914520000     0.6324280000
    4      C       1.1824820000    -4.8037860000    -1.4113640000
    5      H       1.5674830000    -6.8215180000    -1.8708450000
    6      C      -0.3451450000    -4.3786380000     0.4094190000
    7      C       0.5103470000    -3.8380320000    -0.6095650000
    8      C      -1.0164490000    -3.4130620000     1.2103320000
    9      C       0.6968790000    -2.4264730000    -0.8307990000
   10      C      -0.8390390000    -2.0593480000     0.9998560000
   11      C       0.0000000000    -1.4782160000     0.0000000000
   12      H      -1.4037370000    -1.3947830000     1.6734830000
   13      C      -1.4618350000    -6.1879870000     1.7362820000
   14      C      -1.9361190000    -3.7981640000     2.3061830000
   15      N      -2.0939160000    -5.1700030000     2.4915970000
   16      C       2.1045290000    -4.4249870000    -2.5103100000
   17      C       1.6253770000    -2.0366270000    -1.9361530000
   18      N       2.2578730000    -3.0491560000    -2.6914510000
   19      O      -1.7155610000    -7.3531310000     2.0342220000
   20      O      -2.5288580000    -2.9868540000     3.0140440000
   21      O       2.6903850000    -5.2489460000    -3.2096220000
   22      O       1.8918760000    -0.8788290000    -2.2515290000
   23      C      -3.0027110000    -5.5637990000     3.5730320000
   24      H      -3.0326550000    -6.6640850000     3.6069320000
   25      H      -4.0103260000    -5.1471010000     3.3828880000
   26      H      -2.6407110000    -5.1487850000     4.5331250000
   27      C       3.1524080000    -2.5874870000    -3.7568320000
   28      H       3.5646530000    -3.4833290000    -4.2497780000
   29      H       3.9609050000    -1.9649720000    -3.3287590000
   30      H       2.5914220000    -1.9629320000    -4.4777090000
   31      H       0.0442450000    -7.8223180000    -0.0555240000
   32      C       0.0000000000     0.0000000000     0.0000000000
   33      S       0.3964110000     0.6870070000     1.5805300000
   34      C       1.2152450000     2.1053220000     0.9049110000
   35      C       0.4988500000     0.8643690000    -0.9854000000
   36      C       1.1588850000     2.0077810000    -0.4935280000
   37      H       0.3810460000     0.6602800000    -2.0599340000
   38      H       1.5992890000     2.7707270000    -1.1525930000
   39      H       1.6555140000     2.8680560000     1.5560250000
 ----------------------------------------------------------------

   10   -1570.6710695850      9.24e-07  Convergence criterion met
 Total energy in the final basis set =    -1570.6710695850
        RIMP2         total energy =     -1575.3003441691 a.u.

                    Orbital Energies (a.u.)
 --------------------------------------------------------------

 Alpha MOs
 -- Occupied --
-91.9930 -20.5580 -20.5556 -20.5534 -20.5519 -15.6306 -15.6296 -11.3993
-11.3950 -11.3910 -11.3898 -11.3168 -11.3014 -11.2992 -11.2972 -11.2945
-11.2945 -11.2938 -11.2855 -11.2829 -11.2788 -11.2785 -11.2757 -11.2645
-11.2641 -11.2617 -11.2503  -8.9925  -6.6733  -6.6728  -6.6722  -1.4243
 -1.4234  -1.4036  -1.4024  -1.2667  -1.2644  -1.2158  -1.1774  -1.1431
 -1.1152  -1.0619  -1.0480  -0.9920  -0.9894  -0.9869  -0.9583  -0.9473
 -0.8956  -0.8784  -0.8754  -0.8604  -0.7946  -0.7765  -0.7721  -0.7621
 -0.7356  -0.7199  -0.7039  -0.6930  -0.6805  -0.6721  -0.6657  -0.6615
 -0.6553  -0.6409  -0.6360  -0.6332  -0.6273  -0.6118  -0.5875  -0.5837
 -0.5767  -0.5759  -0.5648  -0.5617  -0.5598  -0.5550  -0.5515  -0.5473
 -0.5348  -0.5239  -0.5216  -0.5167  -0.4819  -0.4700  -0.4642  -0.4622
 -0.4578  -0.4516  -0.4275  -0.4178  -0.4081  -0.3713  -0.3488  -0.3357
 -0.3029

          Ground-State Mulliken Net Atomic Charges

     Atom                 Charge (a.u.)
  ----------------------------------------
      1 C                    -0.145282
      2 C                    -0.108697
      3 C                    -0.035274
      4 C                    -0.006695
      5 H                     0.187749
      6 C                    -0.012641
      7 C                     0.082607
      8 C                     0.020353
      9 C                    -0.051833
     10 C                    -0.175968
     11 C                     0.108246
     12 H                     0.174966
     13 C                     0.360708
     14 C                     0.364922
     15 N                    -0.101244
     16 C                     0.359270
     17 C                     0.384757
     18 N                    -0.093007
     19 O                    -0.464686
     20 O                    -0.476317
     21 O                    -0.483184
     22 O                    -0.476854
     23 C                    -0.201206
     24 H                     0.140937
     25 H                     0.112282
     26 H                     0.112320
     27 C                    -0.197449
     28 H                     0.134176
     29 H                     0.112754
     30 H                     0.111697
     31 H                     0.212558
     32 C                    -0.086556
     33 S                     0.038291
     34 C                    -0.185844
     35 C                    -0.118053
     36 C                    -0.200246
     37 H                     0.194917
     38 H                     0.191590
     39 H                     0.215935
  ----------------------------------------
  Sum of atomic charges =     0.000000

                    Cartesian Multipole Moments
 -----------------------------------------------------------------
    Charge (ESU x 10^10)
                 0.0000
    Dipole Moment (Debye)
         X       1.3787      Y       2.2221      Z      -1.0513
       Tot       2.8185
    Quadrupole Moments (Debye-Ang)
        XX    -169.6828     XY       5.5266     YY    -171.4976
        XZ      10.8166     YZ       0.6182     ZZ    -169.6961

 Total job time:  255.62s(wall), 8234.72s(cpu)
        *  Thank you very much for using Q-Chem.  Have a nice day.  *
