 Q-Chem 5.4, Q-Chem, Inc., Pleasanton, CA (2021)
 Q-Chem 5.4.0 for Intel X86 EM64T Linux

User input:
--------------------------------------------------------------
$molecule
0 1
C	1.169177	-6.639243	-0.256927
C	1.067337	-6.062399	-1.562675
C	1.003773	-5.703803	0.827197
C	0.832816	-4.731044	-1.841253
H	1.182777	-6.718195	-2.440709
C	0.759135	-4.312330	0.535488
C	0.665608	-3.779876	-0.794999
C	0.592024	-3.361324	1.580529
C	0.421169	-2.389641	-1.084374
C	0.357557	-2.028070	1.305258
C	0.256690	-1.455759	0.000000
H	0.242565	-1.373530	2.184267
C	1.070820	-6.094632	2.269719
C	0.658788	-3.740595	3.011152
N	0.895334	-5.091887	3.254617
C	0.766979	-4.358010	-3.275775
C	0.354224	-2.005586	-2.527951
N	0.529086	-3.002902	-3.513104
O	1.270336	-7.242571	2.661046
O	0.518831	-2.941447	3.934410
O	0.909352	-5.169576	-4.188059
O	0.154583	-0.865129	-2.940845
C	0.962688	-5.479882	4.667206
H	1.152619	-6.563651	4.712423
H	0.009812	-5.224773	5.169231
H	1.771476	-4.915854	5.169992
C	0.449351	-2.548170	-4.904229
H	0.603867	-3.430587	-5.546833
H	1.222168	-1.779783	-5.095998
H	-0.538644	-2.088191	-5.095858
H	1.356562	-7.703791	-0.070974
C	0.000000	0.000000	0.000000
S	0.396411	0.687007	1.580530
C	1.215245	2.105322	0.904911
C	0.498850	0.864369	-0.985400
C	1.158885	2.007781	-0.493528
H	0.381046	0.660280	-2.059934
H	1.599289	2.770727	-1.152593
H	1.655514	2.868056	1.556025
$end

$rem
JOBTYPE		SP
EXCHANGE	HF
CORRELATION	pRIMP2
BASIS		cc-pvtz
METHOD		rimp2
AUX_BASIS	rimp2-cc-pvtz
SOLVENT_METHOD	PCM
PURECART	11111
SYMMETRY	false
MEM_TOTAL	110000
SCF_CONVERGENCE = 6
THRESH=10
GUI = 2
$end

$solvent
dielectric 4.90
$end
--------------------------------------------------------------

             Standard Nuclear Orientation (Angstroms)
    I     Atom           X                Y                Z
 ----------------------------------------------------------------
    1      C       1.1691770000    -6.6392430000    -0.2569270000
    2      C       1.0673370000    -6.0623990000    -1.5626750000
    3      C       1.0037730000    -5.7038030000     0.8271970000
    4      C       0.8328160000    -4.7310440000    -1.8412530000
    5      H       1.1827770000    -6.7181950000    -2.4407090000
    6      C       0.7591350000    -4.3123300000     0.5354880000
    7      C       0.6656080000    -3.7798760000    -0.7949990000
    8      C       0.5920240000    -3.3613240000     1.5805290000
    9      C       0.4211690000    -2.3896410000    -1.0843740000
   10      C       0.3575570000    -2.0280700000     1.3052580000
   11      C       0.2566900000    -1.4557590000     0.0000000000
   12      H       0.2425650000    -1.3735300000     2.1842670000
   13      C       1.0708200000    -6.0946320000     2.2697190000
   14      C       0.6587880000    -3.7405950000     3.0111520000
   15      N       0.8953340000    -5.0918870000     3.2546170000
   16      C       0.7669790000    -4.3580100000    -3.2757750000
   17      C       0.3542240000    -2.0055860000    -2.5279510000
   18      N       0.5290860000    -3.0029020000    -3.5131040000
   19      O       1.2703360000    -7.2425710000     2.6610460000
   20      O       0.5188310000    -2.9414470000     3.9344100000
   21      O       0.9093520000    -5.1695760000    -4.1880590000
   22      O       0.1545830000    -0.8651290000    -2.9408450000
   23      C       0.9626880000    -5.4798820000     4.6672060000
   24      H       1.1526190000    -6.5636510000     4.7124230000
   25      H       0.0098120000    -5.2247730000     5.1692310000
   26      H       1.7714760000    -4.9158540000     5.1699920000
   27      C       0.4493510000    -2.5481700000    -4.9042290000
   28      H       0.6038670000    -3.4305870000    -5.5468330000
   29      H       1.2221680000    -1.7797830000    -5.0959980000
   30      H      -0.5386440000    -2.0881910000    -5.0958580000
   31      H       1.3565620000    -7.7037910000    -0.0709740000
   32      C       0.0000000000     0.0000000000     0.0000000000
   33      S       0.3964110000     0.6870070000     1.5805300000
   34      C       1.2152450000     2.1053220000     0.9049110000
   35      C       0.4988500000     0.8643690000    -0.9854000000
   36      C       1.1588850000     2.0077810000    -0.4935280000
   37      H       0.3810460000     0.6602800000    -2.0599340000
   38      H       1.5992890000     2.7707270000    -1.1525930000
   39      H       1.6555140000     2.8680560000     1.5560250000
 ----------------------------------------------------------------

   11   -1570.6500439516      4.91e-07  Convergence criterion met
 Total energy in the final basis set =    -1570.6500439516
        RIMP2         total energy =     -1575.2840665828 a.u.

                    Orbital Energies (a.u.)
 --------------------------------------------------------------

 Alpha MOs
 -- Occupied --
-91.9922 -20.5577 -20.5557 -20.5539 -20.5518 -15.6303 -15.6293 -11.3987
-11.3957 -11.3897 -11.3896 -11.3201 -11.3016 -11.3002 -11.2977 -11.2910
-11.2906 -11.2901 -11.2852 -11.2819 -11.2799 -11.2767 -11.2738 -11.2643
-11.2639 -11.2610 -11.2509  -8.9929  -6.6736  -6.6729  -6.6724  -1.4251
 -1.4240  -1.4034  -1.4032  -1.2665  -1.2644  -1.2155  -1.1829  -1.1418
 -1.1136  -1.0626  -1.0472  -0.9931  -0.9910  -0.9907  -0.9577  -0.9457
 -0.8958  -0.8773  -0.8762  -0.8599  -0.7963  -0.7797  -0.7720  -0.7641
 -0.7341  -0.7266  -0.7017  -0.6934  -0.6816  -0.6734  -0.6656  -0.6615
 -0.6547  -0.6406  -0.6372  -0.6333  -0.6259  -0.6124  -0.5911  -0.5832
 -0.5793  -0.5721  -0.5696  -0.5632  -0.5607  -0.5558  -0.5534  -0.5462
 -0.5355  -0.5241  -0.5229  -0.5109  -0.4799  -0.4648  -0.4633  -0.4601
 -0.4568  -0.4482  -0.4280  -0.4185  -0.4087  -0.3774  -0.3561  -0.3341
 -0.2982

          Ground-State Mulliken Net Atomic Charges

     Atom                 Charge (a.u.)
  ----------------------------------------
      1 C                    -0.155160
      2 C                    -0.111717
      3 C                    -0.024562
      4 C                    -0.002633
      5 H                     0.186888
      6 C                    -0.012571
      7 C                     0.075367
      8 C                     0.048051
      9 C                    -0.090219
     10 C                    -0.156776
     11 C                     0.046617
     12 H                     0.171357
     13 C                     0.358544
     14 C                     0.362314
     15 N                    -0.101149
     16 C                     0.357217
     17 C                     0.385472
     18 N                    -0.091805
     19 O                    -0.464551
     20 O                    -0.477758
     21 O                    -0.485408
     22 O                    -0.483794
     23 C                    -0.201498
     24 H                     0.140974
     25 H                     0.112267
     26 H                     0.112141
     27 C                    -0.198810
     28 H                     0.134346
     29 H                     0.111692
     30 H                     0.112528
     31 H                     0.211110
     32 C                    -0.023621
     33 S                     0.021817
     34 C                    -0.157509
     35 C                    -0.122564
     36 C                    -0.242231
     37 H                     0.242736
     38 H                     0.193787
     39 H                     0.219110
  ----------------------------------------
  Sum of atomic charges =     0.000000

                    Cartesian Multipole Moments
 -----------------------------------------------------------------
    Charge (ESU x 10^10)
                 0.0000
    Dipole Moment (Debye)
         X       1.5204      Y       3.1937      Z      -0.6139
       Tot       3.5900
    Quadrupole Moments (Debye-Ang)
        XX    -161.2599     XY       8.9282     YY    -174.2856
        XZ       0.6885     YZ      -0.0784     ZZ    -178.5563

 Total job time:  294.61s(wall), 8381.12s(cpu)
        *  Thank you very much for using Q-Chem.  Have a nice day.  *
