 Q-Chem 5.4, Q-Chem, Inc., Pleasanton, CA (2021)
 Q-Chem 5.4.0 for Intel X86 EM64T Linux

User input:
--------------------------------------------------------------
$molecule
0 1
C	-0.223244	-6.741404	-0.127184
C	-1.354118	-6.155638	-0.779949
C	0.715408	-5.791452	0.415271
C	-1.595259	-4.803786	-0.919437
H	-2.114613	-6.821518	-1.218801
C	0.463133	-4.378638	0.268806
C	-0.688925	-3.838032	-0.396744
C	1.368449	-3.413062	0.790835
C	-0.939189	-2.426473	-0.542026
C	1.130363	-2.059348	0.652669
C	-0.000000	-1.478216	-0.000000
H	1.891815	-1.394783	1.091814
C	1.963749	-6.187987	1.138124
C	2.607351	-3.798164	1.506241
N	2.817348	-5.170003	1.629443
C	-2.837621	-4.424987	-1.636646
C	-2.188982	-2.036627	-1.264474
N	-3.042637	-3.049156	-1.756205
O	2.301222	-7.353131	1.336258
O	3.407386	-2.986854	1.967056
O	-3.628041	-5.248946	-2.092167
O	-2.545844	-0.878829	-1.472160
C	4.040164	-5.563799	2.336642
H	4.078749	-6.664085	2.360245
H	4.027880	-5.147101	3.361968
H	4.922811	-5.148785	1.813424
C	-4.247167	-2.587487	-2.452149
H	-4.804209	-3.483329	-2.772531
H	-3.965991	-1.964972	-3.322697
H	-4.859678	-1.962932	-1.774507
H	-0.062364	-7.822318	-0.033931
C	0.000000	0.000000	0.000000
S	0.271091	0.745405	1.580530
C	0.831198	2.284363	0.904911
C	0.341175	0.937861	-0.985400
C	0.792631	2.178516	-0.493528
H	0.260601	0.716417	-2.059934
H	1.093860	3.006347	-1.152593
H	1.132330	3.111961	1.556025
$end

$rem
JOBTYPE		SP
EXCHANGE	HF
CORRELATION	pRIMP2
BASIS		cc-pvtz
METHOD		rimp2
AUX_BASIS	rimp2-cc-pvtz
SOLVENT_METHOD	PCM
PURECART	11111
SYMMETRY	false
MEM_TOTAL	110000
SCF_CONVERGENCE = 6
THRESH=10
GUI = 2
$end

$solvent
dielectric 4.90
$end
--------------------------------------------------------------

             Standard Nuclear Orientation (Angstroms)
    I     Atom           X                Y                Z
 ----------------------------------------------------------------
    1      C      -0.2232440000    -6.7414040000    -0.1271840000
    2      C      -1.3541180000    -6.1556380000    -0.7799490000
    3      C       0.7154080000    -5.7914520000     0.4152710000
    4      C      -1.5952590000    -4.8037860000    -0.9194370000
    5      H      -2.1146130000    -6.8215180000    -1.2188010000
    6      C       0.4631330000    -4.3786380000     0.2688060000
    7      C      -0.6889250000    -3.8380320000    -0.3967440000
    8      C       1.3684490000    -3.4130620000     0.7908350000
    9      C      -0.9391890000    -2.4264730000    -0.5420260000
   10      C       1.1303630000    -2.0593480000     0.6526690000
   11      C       0.0000000000    -1.4782160000     0.0000000000
   12      H       1.8918150000    -1.3947830000     1.0918140000
   13      C       1.9637490000    -6.1879870000     1.1381240000
   14      C       2.6073510000    -3.7981640000     1.5062410000
   15      N       2.8173480000    -5.1700030000     1.6294430000
   16      C      -2.8376210000    -4.4249870000    -1.6366460000
   17      C      -2.1889820000    -2.0366270000    -1.2644740000
   18      N      -3.0426370000    -3.0491560000    -1.7562050000
   19      O       2.3012220000    -7.3531310000     1.3362580000
   20      O       3.4073860000    -2.9868540000     1.9670560000
   21      O      -3.6280410000    -5.2489460000    -2.0921670000
   22      O      -2.5458440000    -0.8788290000    -1.4721600000
   23      C       4.0401640000    -5.5637990000     2.3366420000
   24      H       4.0787490000    -6.6640850000     2.3602450000
   25      H       4.0278800000    -5.1471010000     3.3619680000
   26      H       4.9228110000    -5.1487850000     1.8134240000
   27      C      -4.2471670000    -2.5874870000    -2.4521490000
   28      H      -4.8042090000    -3.4833290000    -2.7725310000
   29      H      -3.9659910000    -1.9649720000    -3.3226970000
   30      H      -4.8596780000    -1.9629320000    -1.7745070000
   31      H      -0.0623640000    -7.8223180000    -0.0339310000
   32      C       0.0000000000     0.0000000000     0.0000000000
   33      S       0.2710910000     0.7454050000     1.5805300000
   34      C       0.8311980000     2.2843630000     0.9049110000
   35      C       0.3411750000     0.9378610000    -0.9854000000
   36      C       0.7926310000     2.1785160000    -0.4935280000
   37      H       0.2606010000     0.7164170000    -2.0599340000
   38      H       1.0938600000     3.0063470000    -1.1525930000
   39      H       1.1323300000     3.1119610000     1.5560250000
 ----------------------------------------------------------------

   10   -1570.6855445984      7.05e-07  Convergence criterion met
 Total energy in the final basis set =    -1570.6855445984
        RIMP2         total energy =     -1575.3111412253 a.u.

                    Orbital Energies (a.u.)
 --------------------------------------------------------------

 Alpha MOs
 -- Occupied --
-91.9927 -20.5586 -20.5566 -20.5561 -20.5551 -15.6312 -15.6309 -11.4002
-11.3968 -11.3927 -11.3906 -11.3169 -11.3047 -11.3027 -11.3005 -11.2984
-11.2979 -11.2926 -11.2862 -11.2861 -11.2848 -11.2803 -11.2781 -11.2647
-11.2646 -11.2585 -11.2513  -8.9922  -6.6730  -6.6725  -6.6719  -1.4249
 -1.4241  -1.4042  -1.4032  -1.2676  -1.2653  -1.2179  -1.1775  -1.1441
 -1.1175  -1.0636  -1.0500  -0.9930  -0.9905  -0.9852  -0.9592  -0.9479
 -0.8975  -0.8794  -0.8781  -0.8606  -0.7962  -0.7780  -0.7731  -0.7605
 -0.7377  -0.7179  -0.7058  -0.6952  -0.6810  -0.6734  -0.6664  -0.6623
 -0.6569  -0.6422  -0.6376  -0.6336  -0.6299  -0.6128  -0.5860  -0.5844
 -0.5787  -0.5736  -0.5668  -0.5641  -0.5610  -0.5553  -0.5527  -0.5483
 -0.5389  -0.5270  -0.5211  -0.5122  -0.4837  -0.4706  -0.4674  -0.4632
 -0.4603  -0.4535  -0.4283  -0.4183  -0.4089  -0.3642  -0.3515  -0.3356
 -0.3144

          Ground-State Mulliken Net Atomic Charges

     Atom                 Charge (a.u.)
  ----------------------------------------
      1 C                    -0.132791
      2 C                    -0.108609
      3 C                    -0.041835
      4 C                    -0.000994
      5 H                     0.188816
      6 C                     0.003118
      7 C                     0.071193
      8 C                     0.002351
      9 C                    -0.020617
     10 C                    -0.116809
     11 C                     0.040901
     12 H                     0.190786
     13 C                     0.360416
     14 C                     0.363371
     15 N                    -0.101605
     16 C                     0.359675
     17 C                     0.348331
     18 N                    -0.097279
     19 O                    -0.464923
     20 O                    -0.476004
     21 O                    -0.480217
     22 O                    -0.461236
     23 C                    -0.201102
     24 H                     0.141043
     25 H                     0.112527
     26 H                     0.112379
     27 C                    -0.196101
     28 H                     0.133763
     29 H                     0.112560
     30 H                     0.113588
     31 H                     0.214099
     32 C                    -0.013484
     33 S                     0.021585
     34 C                    -0.200925
     35 C                    -0.165311
     36 C                    -0.204679
     37 H                     0.189517
     38 H                     0.192264
     39 H                     0.212235
  ----------------------------------------
  Sum of atomic charges =     0.000000

                    Cartesian Multipole Moments
 -----------------------------------------------------------------
    Charge (ESU x 10^10)
                 0.0000
    Dipole Moment (Debye)
         X       0.8325      Y       1.0670      Z      -0.9192
       Tot       1.6359
    Quadrupole Moments (Debye-Ang)
        XX    -178.1440     XY       4.4491     YY    -166.1926
        XZ      -8.6402     YZ       1.1908     ZZ    -162.5080

 Total job time:  268.41s(wall), 8293.88s(cpu)
        *  Thank you very much for using Q-Chem.  Have a nice day.  *
