 Q-Chem 5.4, Q-Chem, Inc., Pleasanton, CA (2021)
 Q-Chem 5.4.0 for Intel X86 EM64T Linux

User input:
--------------------------------------------------------------
$molecule
0 1
C	0.223244	-6.741404	0.127184
C	1.354118	-6.155638	0.779949
C	-0.715408	-5.791452	-0.415271
C	1.595259	-4.803786	0.919437
H	2.114613	-6.821518	1.218801
C	-0.463133	-4.378638	-0.268806
C	0.688925	-3.838032	0.396744
C	-1.368449	-3.413062	-0.790835
C	0.939189	-2.426473	0.542026
C	-1.130363	-2.059348	-0.652669
C	-0.000000	-1.478216	-0.000000
H	-1.891815	-1.394783	-1.091814
C	-1.963749	-6.187987	-1.138124
C	-2.607351	-3.798164	-1.506241
N	-2.817348	-5.170003	-1.629443
C	2.837621	-4.424987	1.636646
C	2.188982	-2.036627	1.264474
N	3.042637	-3.049156	1.756205
O	-2.301222	-7.353131	-1.336258
O	-3.407386	-2.986854	-1.967056
O	3.628041	-5.248946	2.092167
O	2.545844	-0.878829	1.472160
C	-4.040164	-5.563799	-2.336642
H	-4.078749	-6.664085	-2.360245
H	-4.027880	-5.147101	-3.361968
H	-4.922811	-5.148785	-1.813424
C	4.247167	-2.587487	2.452149
H	4.804209	-3.483329	2.772531
H	3.965991	-1.964972	3.322697
H	4.859678	-1.962932	1.774507
H	0.062364	-7.822318	0.033931
C	0.000000	0.000000	0.000000
S	0.686805	0.396760	1.580530
C	2.105095	1.215640	0.904911
C	0.864201	0.499140	-0.985400
C	2.007514	1.159347	-0.493528
H	0.660136	0.381296	-2.059934
H	2.770388	1.599875	-1.152593
H	2.867745	1.656053	1.556025
$end

$rem
JOBTYPE		SP
EXCHANGE	HF
CORRELATION	pRIMP2
BASIS		cc-pvtz
METHOD		rimp2
AUX_BASIS	rimp2-cc-pvtz
SOLVENT_METHOD	PCM
PURECART	11111
SYMMETRY	false
MEM_TOTAL	110000
SCF_CONVERGENCE = 6
THRESH=10
GUI = 2
$end

$solvent
dielectric 4.90
$end
--------------------------------------------------------------

             Standard Nuclear Orientation (Angstroms)
    I     Atom           X                Y                Z
 ----------------------------------------------------------------
    1      C       0.2232440000    -6.7414040000     0.1271840000
    2      C       1.3541180000    -6.1556380000     0.7799490000
    3      C      -0.7154080000    -5.7914520000    -0.4152710000
    4      C       1.5952590000    -4.8037860000     0.9194370000
    5      H       2.1146130000    -6.8215180000     1.2188010000
    6      C      -0.4631330000    -4.3786380000    -0.2688060000
    7      C       0.6889250000    -3.8380320000     0.3967440000
    8      C      -1.3684490000    -3.4130620000    -0.7908350000
    9      C       0.9391890000    -2.4264730000     0.5420260000
   10      C      -1.1303630000    -2.0593480000    -0.6526690000
   11      C       0.0000000000    -1.4782160000     0.0000000000
   12      H      -1.8918150000    -1.3947830000    -1.0918140000
   13      C      -1.9637490000    -6.1879870000    -1.1381240000
   14      C      -2.6073510000    -3.7981640000    -1.5062410000
   15      N      -2.8173480000    -5.1700030000    -1.6294430000
   16      C       2.8376210000    -4.4249870000     1.6366460000
   17      C       2.1889820000    -2.0366270000     1.2644740000
   18      N       3.0426370000    -3.0491560000     1.7562050000
   19      O      -2.3012220000    -7.3531310000    -1.3362580000
   20      O      -3.4073860000    -2.9868540000    -1.9670560000
   21      O       3.6280410000    -5.2489460000     2.0921670000
   22      O       2.5458440000    -0.8788290000     1.4721600000
   23      C      -4.0401640000    -5.5637990000    -2.3366420000
   24      H      -4.0787490000    -6.6640850000    -2.3602450000
   25      H      -4.0278800000    -5.1471010000    -3.3619680000
   26      H      -4.9228110000    -5.1487850000    -1.8134240000
   27      C       4.2471670000    -2.5874870000     2.4521490000
   28      H       4.8042090000    -3.4833290000     2.7725310000
   29      H       3.9659910000    -1.9649720000     3.3226970000
   30      H       4.8596780000    -1.9629320000     1.7745070000
   31      H       0.0623640000    -7.8223180000     0.0339310000
   32      C       0.0000000000     0.0000000000     0.0000000000
   33      S       0.6868050000     0.3967600000     1.5805300000
   34      C       2.1050950000     1.2156400000     0.9049110000
   35      C       0.8642010000     0.4991400000    -0.9854000000
   36      C       2.0075140000     1.1593470000    -0.4935280000
   37      H       0.6601360000     0.3812960000    -2.0599340000
   38      H       2.7703880000     1.5998750000    -1.1525930000
   39      H       2.8677450000     1.6560530000     1.5560250000
 ----------------------------------------------------------------

   11   -1570.5590906727      8.23e-07  Convergence criterion met
 Total energy in the final basis set =    -1570.5590906727
        RIMP2         total energy =     -1575.2127668950 a.u.

                    Orbital Energies (a.u.)
 --------------------------------------------------------------

 Alpha MOs
 -- Occupied --
-91.9703 -20.5576 -20.5548 -20.5520 -20.5473 -15.6297 -15.6295 -11.3987
-11.3933 -11.3896 -11.3885 -11.3154 -11.3028 -11.3005 -11.2976 -11.2913
-11.2912 -11.2906 -11.2829 -11.2806 -11.2781 -11.2774 -11.2672 -11.2651
-11.2637 -11.2544 -11.2429  -8.9720  -6.6524  -6.6518  -6.6514  -1.4293
 -1.4235  -1.4053  -1.4028  -1.2674  -1.2648  -1.2148  -1.1804  -1.1399
 -1.1130  -1.0598  -1.0455  -0.9918  -0.9892  -0.9866  -0.9578  -0.9479
 -0.8949  -0.8776  -0.8686  -0.8587  -0.7886  -0.7791  -0.7718  -0.7644
 -0.7342  -0.7187  -0.7026  -0.6937  -0.6844  -0.6710  -0.6649  -0.6614
 -0.6556  -0.6507  -0.6369  -0.6349  -0.6264  -0.6102  -0.5877  -0.5819
 -0.5777  -0.5734  -0.5691  -0.5641  -0.5584  -0.5554  -0.5542  -0.5478
 -0.5391  -0.5232  -0.5180  -0.4986  -0.4780  -0.4716  -0.4614  -0.4552
 -0.4517  -0.4323  -0.4254  -0.4170  -0.4065  -0.3528  -0.3335  -0.3286
 -0.2936

          Ground-State Mulliken Net Atomic Charges

     Atom                 Charge (a.u.)
  ----------------------------------------
      1 C                    -0.151494
      2 C                    -0.109181
      3 C                    -0.031658
      4 C                    -0.000300
      5 H                     0.186965
      6 C                    -0.016806
      7 C                     0.075676
      8 C                     0.008194
      9 C                    -0.090753
     10 C                    -0.145148
     11 C                     0.096671
     12 H                     0.178964
     13 C                     0.360206
     14 C                     0.364448
     15 N                    -0.101113
     16 C                     0.353264
     17 C                     0.419713
     18 N                    -0.090509
     19 O                    -0.464908
     20 O                    -0.476043
     21 O                    -0.486084
     22 O                    -0.462367
     23 C                    -0.201536
     24 H                     0.140737
     25 H                     0.111855
     26 H                     0.112278
     27 C                    -0.197527
     28 H                     0.135396
     29 H                     0.111654
     30 H                     0.110478
     31 H                     0.211581
     32 C                    -0.170112
     33 S                    -0.016917
     34 C                    -0.007374
     35 C                    -0.063233
     36 C                    -0.282285
     37 H                     0.195317
     38 H                     0.185115
     39 H                     0.206834
  ----------------------------------------
  Sum of atomic charges =     0.000000

                    Cartesian Multipole Moments
 -----------------------------------------------------------------
    Charge (ESU x 10^10)
                 0.0000
    Dipole Moment (Debye)
         X       3.8520      Y       1.4298      Z      -0.6533
       Tot       4.1604
    Quadrupole Moments (Debye-Ang)
        XX    -168.4829     XY       6.1817     YY    -181.7590
        XZ      -6.2739     YZ       0.1281     ZZ    -162.0687

 Total job time:  277.42s(wall), 8536.65s(cpu)
        *  Thank you very much for using Q-Chem.  Have a nice day.  *
