 Q-Chem 5.4, Q-Chem, Inc., Pleasanton, CA (2021)
 Q-Chem 5.4.0 for Intel X86 EM64T Linux

User input:
--------------------------------------------------------------
$molecule
0 1
C	-0.127184	-6.741404	0.223244
C	-0.779949	-6.155638	1.354118
C	0.415271	-5.791452	-0.715408
C	-0.919437	-4.803786	1.595259
H	-1.218801	-6.821518	2.114613
C	0.268806	-4.378638	-0.463133
C	-0.396744	-3.838032	0.688925
C	0.790835	-3.413062	-1.368449
C	-0.542026	-2.426473	0.939189
C	0.652669	-2.059348	-1.130363
C	0.000000	-1.478216	0.000000
H	1.091814	-1.394783	-1.891815
C	1.138124	-6.187987	-1.963749
C	1.506241	-3.798164	-2.607351
N	1.629443	-5.170003	-2.817348
C	-1.636646	-4.424987	2.837621
C	-1.264474	-2.036627	2.188982
N	-1.756205	-3.049156	3.042637
O	1.336258	-7.353131	-2.301222
O	1.967056	-2.986854	-3.407386
O	-2.092167	-5.248946	3.628041
O	-1.472160	-0.878829	2.545844
C	2.336642	-5.563799	-4.040164
H	2.360245	-6.664085	-4.078749
H	3.361968	-5.147101	-4.027880
H	1.813424	-5.148785	-4.922811
C	-2.452149	-2.587487	4.247167
H	-2.772531	-3.483329	4.804209
H	-3.322697	-1.964972	3.965991
H	-1.774507	-1.962932	4.859678
H	-0.033931	-7.822318	0.062364
C	0.000000	0.000000	0.000000
S	0.509686	0.607733	1.580530
C	1.562368	1.862312	0.904911
C	0.641367	0.764613	-0.985400
C	1.489926	1.776040	-0.493528
H	0.489914	0.584081	-2.059934
H	2.056124	2.450920	-1.152593
H	2.128395	2.537007	1.556025
$end

$rem
JOBTYPE		SP
EXCHANGE	HF
CORRELATION	pRIMP2
BASIS		cc-pvtz
METHOD		rimp2
AUX_BASIS	rimp2-cc-pvtz
SOLVENT_METHOD	PCM
PURECART	11111
SYMMETRY	false
MEM_TOTAL	110000
SCF_CONVERGENCE = 6
THRESH=10
GUI = 2
$end

$solvent
dielectric 4.90
$end
--------------------------------------------------------------

             Standard Nuclear Orientation (Angstroms)
    I     Atom           X                Y                Z
 ----------------------------------------------------------------
    1      C      -0.1271840000    -6.7414040000     0.2232440000
    2      C      -0.7799490000    -6.1556380000     1.3541180000
    3      C       0.4152710000    -5.7914520000    -0.7154080000
    4      C      -0.9194370000    -4.8037860000     1.5952590000
    5      H      -1.2188010000    -6.8215180000     2.1146130000
    6      C       0.2688060000    -4.3786380000    -0.4631330000
    7      C      -0.3967440000    -3.8380320000     0.6889250000
    8      C       0.7908350000    -3.4130620000    -1.3684490000
    9      C      -0.5420260000    -2.4264730000     0.9391890000
   10      C       0.6526690000    -2.0593480000    -1.1303630000
   11      C       0.0000000000    -1.4782160000     0.0000000000
   12      H       1.0918140000    -1.3947830000    -1.8918150000
   13      C       1.1381240000    -6.1879870000    -1.9637490000
   14      C       1.5062410000    -3.7981640000    -2.6073510000
   15      N       1.6294430000    -5.1700030000    -2.8173480000
   16      C      -1.6366460000    -4.4249870000     2.8376210000
   17      C      -1.2644740000    -2.0366270000     2.1889820000
   18      N      -1.7562050000    -3.0491560000     3.0426370000
   19      O       1.3362580000    -7.3531310000    -2.3012220000
   20      O       1.9670560000    -2.9868540000    -3.4073860000
   21      O      -2.0921670000    -5.2489460000     3.6280410000
   22      O      -1.4721600000    -0.8788290000     2.5458440000
   23      C       2.3366420000    -5.5637990000    -4.0401640000
   24      H       2.3602450000    -6.6640850000    -4.0787490000
   25      H       3.3619680000    -5.1471010000    -4.0278800000
   26      H       1.8134240000    -5.1487850000    -4.9228110000
   27      C      -2.4521490000    -2.5874870000     4.2471670000
   28      H      -2.7725310000    -3.4833290000     4.8042090000
   29      H      -3.3226970000    -1.9649720000     3.9659910000
   30      H      -1.7745070000    -1.9629320000     4.8596780000
   31      H      -0.0339310000    -7.8223180000     0.0623640000
   32      C       0.0000000000     0.0000000000     0.0000000000
   33      S       0.5096860000     0.6077330000     1.5805300000
   34      C       1.5623680000     1.8623120000     0.9049110000
   35      C       0.6413670000     0.7646130000    -0.9854000000
   36      C       1.4899260000     1.7760400000    -0.4935280000
   37      H       0.4899140000     0.5840810000    -2.0599340000
   38      H       2.0561240000     2.4509200000    -1.1525930000
   39      H       2.1283950000     2.5370070000     1.5560250000
 ----------------------------------------------------------------

   10   -1570.6625624270      9.75e-07  Convergence criterion met
 Total energy in the final basis set =    -1570.6625624270
        RIMP2         total energy =     -1575.2969724127 a.u.

                    Orbital Energies (a.u.)
 --------------------------------------------------------------

 Alpha MOs
 -- Occupied --
-91.9895 -20.5582 -20.5564 -20.5547 -20.5522 -15.6309 -15.6289 -11.3994
-11.3943 -11.3905 -11.3900 -11.3189 -11.3011 -11.2986 -11.2938 -11.2936
-11.2929 -11.2924 -11.2856 -11.2833 -11.2815 -11.2779 -11.2746 -11.2699
-11.2645 -11.2635 -11.2523  -8.9889  -6.6695  -6.6687  -6.6682  -1.4247
 -1.4237  -1.4041  -1.4024  -1.2668  -1.2640  -1.2158  -1.1813  -1.1420
 -1.1147  -1.0618  -1.0476  -0.9920  -0.9910  -0.9891  -0.9578  -0.9463
 -0.8954  -0.8778  -0.8752  -0.8595  -0.7931  -0.7760  -0.7748  -0.7658
 -0.7321  -0.7168  -0.7057  -0.6932  -0.6840  -0.6745  -0.6657  -0.6614
 -0.6555  -0.6398  -0.6357  -0.6325  -0.6262  -0.6132  -0.5853  -0.5843
 -0.5812  -0.5723  -0.5684  -0.5661  -0.5636  -0.5550  -0.5540  -0.5479
 -0.5312  -0.5271  -0.5182  -0.5148  -0.4854  -0.4728  -0.4627  -0.4583
 -0.4573  -0.4432  -0.4265  -0.4169  -0.4077  -0.3725  -0.3535  -0.3351
 -0.3010

          Ground-State Mulliken Net Atomic Charges

     Atom                 Charge (a.u.)
  ----------------------------------------
      1 C                    -0.149136
      2 C                    -0.109140
      3 C                    -0.028452
      4 C                    -0.005836
      5 H                     0.187758
      6 C                    -0.008067
      7 C                     0.083188
      8 C                     0.017343
      9 C                    -0.085641
     10 C                    -0.155676
     11 C                     0.093374
     12 H                     0.179906
     13 C                     0.358458
     14 C                     0.363946
     15 N                    -0.101408
     16 C                     0.356701
     17 C                     0.368864
     18 N                    -0.094416
     19 O                    -0.464487
     20 O                    -0.478462
     21 O                    -0.484162
     22 O                    -0.477608
     23 C                    -0.201460
     24 H                     0.141228
     25 H                     0.112175
     26 H                     0.112108
     27 C                    -0.197553
     28 H                     0.133775
     29 H                     0.112715
     30 H                     0.112535
     31 H                     0.211938
     32 C                    -0.036804
     33 S                     0.089968
     34 C                    -0.183766
     35 C                    -0.170792
     36 C                    -0.203724
     37 H                     0.192280
     38 H                     0.193633
     39 H                     0.214697
  ----------------------------------------
  Sum of atomic charges =     0.000000

                    Cartesian Multipole Moments
 -----------------------------------------------------------------
    Charge (ESU x 10^10)
                 0.0000
    Dipole Moment (Debye)
         X       1.8575      Y       2.1950      Z      -0.9127
       Tot       3.0168
    Quadrupole Moments (Debye-Ang)
        XX    -164.4373     XY       5.8422     YY    -174.8980
        XZ       9.9200     YZ       1.0960     ZZ    -172.6201

 Total job time:  248.70s(wall), 7797.76s(cpu)
        *  Thank you very much for using Q-Chem.  Have a nice day.  *
