 Q-Chem 5.4, Q-Chem, Inc., Pleasanton, CA (2021)
 Q-Chem 5.4.0 for Intel X86 EM64T Linux

User input:
--------------------------------------------------------------
$molecule
0 1
C	0.586080	-6.715879	-0.256927
C	0.534902	-6.132354	-1.562675
C	0.502834	-5.769583	0.827197
C	0.417309	-4.785626	-1.841253
H	0.592747	-6.795716	-2.440709
C	0.380402	-4.362083	0.535488
C	0.333638	-3.823504	-0.794999
C	0.296812	-3.400131	1.580529
C	0.211295	-2.417255	-1.084374
C	0.179438	-2.051515	1.305258
C	0.128835	-1.472591	0.000000
H	0.121931	-1.389444	2.184267
C	0.535563	-6.164769	2.269719
C	0.330267	-3.783778	3.011152
N	0.448140	-5.150545	3.254617
C	0.384235	-4.408274	-3.275775
C	0.178078	-2.028827	-2.527951
N	0.265353	-3.037588	-3.513104
O	0.634270	-7.325728	2.661046
O	0.260493	-2.975473	3.934410
O	0.455333	-5.229160	-4.188059
O	0.078594	-0.875310	-2.940845
C	0.481421	-5.542933	4.667206
H	0.576173	-6.639132	4.712423
H	-0.445595	-5.205747	5.169231
H	1.336290	-5.051542	5.169992
C	0.225553	-2.577637	-4.904229
H	0.302574	-3.470163	-5.546833
H	1.062399	-1.879530	-5.095998
H	-0.718592	-2.033299	-5.095858
H	0.679970	-7.792708	-0.070974
C	0.000000	0.000000	0.000000
S	0.205093	0.766196	1.580530
C	0.628939	2.348114	0.904911
C	0.258137	0.964028	-0.985400
C	0.599745	2.239309	-0.493528
H	0.197169	0.736404	-2.059934
H	0.827678	3.090243	-1.152593
H	0.856796	3.198808	1.556025
$end

$rem
JOBTYPE		SP
EXCHANGE	HF
CORRELATION	pRIMP2
BASIS		cc-pvtz
METHOD		rimp2
AUX_BASIS	rimp2-cc-pvtz
SOLVENT_METHOD	PCM
PURECART	11111
SYMMETRY	false
MEM_TOTAL	110000
SCF_CONVERGENCE = 6
THRESH=10
GUI = 2
$end

$solvent
dielectric 4.90
$end
--------------------------------------------------------------

             Standard Nuclear Orientation (Angstroms)
    I     Atom           X                Y                Z
 ----------------------------------------------------------------
    1      C       0.5860800000    -6.7158790000    -0.2569270000
    2      C       0.5349020000    -6.1323540000    -1.5626750000
    3      C       0.5028340000    -5.7695830000     0.8271970000
    4      C       0.4173090000    -4.7856260000    -1.8412530000
    5      H       0.5927470000    -6.7957160000    -2.4407090000
    6      C       0.3804020000    -4.3620830000     0.5354880000
    7      C       0.3336380000    -3.8235040000    -0.7949990000
    8      C       0.2968120000    -3.4001310000     1.5805290000
    9      C       0.2112950000    -2.4172550000    -1.0843740000
   10      C       0.1794380000    -2.0515150000     1.3052580000
   11      C       0.1288350000    -1.4725910000     0.0000000000
   12      H       0.1219310000    -1.3894440000     2.1842670000
   13      C       0.5355630000    -6.1647690000     2.2697190000
   14      C       0.3302670000    -3.7837780000     3.0111520000
   15      N       0.4481400000    -5.1505450000     3.2546170000
   16      C       0.3842350000    -4.4082740000    -3.2757750000
   17      C       0.1780780000    -2.0288270000    -2.5279510000
   18      N       0.2653530000    -3.0375880000    -3.5131040000
   19      O       0.6342700000    -7.3257280000     2.6610460000
   20      O       0.2604930000    -2.9754730000     3.9344100000
   21      O       0.4553330000    -5.2291600000    -4.1880590000
   22      O       0.0785940000    -0.8753100000    -2.9408450000
   23      C       0.4814210000    -5.5429330000     4.6672060000
   24      H       0.5761730000    -6.6391320000     4.7124230000
   25      H      -0.4455950000    -5.2057470000     5.1692310000
   26      H       1.3362900000    -5.0515420000     5.1699920000
   27      C       0.2255530000    -2.5776370000    -4.9042290000
   28      H       0.3025740000    -3.4701630000    -5.5468330000
   29      H       1.0623990000    -1.8795300000    -5.0959980000
   30      H      -0.7185920000    -2.0332990000    -5.0958580000
   31      H       0.6799700000    -7.7927080000    -0.0709740000
   32      C       0.0000000000     0.0000000000     0.0000000000
   33      S       0.2050930000     0.7661960000     1.5805300000
   34      C       0.6289390000     2.3481140000     0.9049110000
   35      C       0.2581370000     0.9640280000    -0.9854000000
   36      C       0.5997450000     2.2393090000    -0.4935280000
   37      H       0.1971690000     0.7364040000    -2.0599340000
   38      H       0.8276780000     3.0902430000    -1.1525930000
   39      H       0.8567960000     3.1988080000     1.5560250000
 ----------------------------------------------------------------

   10   -1570.6769991891      8.58e-07  Convergence criterion met
 Total energy in the final basis set =    -1570.6769991891
        RIMP2         total energy =     -1575.3064268808 a.u.

                    Orbital Energies (a.u.)
 --------------------------------------------------------------

 Alpha MOs
 -- Occupied --
-91.9930 -20.5583 -20.5563 -20.5555 -20.5532 -15.6309 -15.6304 -11.3995
-11.3971 -11.3910 -11.3905 -11.3199 -11.3016 -11.2995 -11.2967 -11.2943
-11.2932 -11.2928 -11.2893 -11.2870 -11.2825 -11.2784 -11.2776 -11.2648
-11.2643 -11.2542 -11.2500  -8.9930  -6.6738  -6.6733  -6.6726  -1.4257
 -1.4246  -1.4040  -1.4040  -1.2673  -1.2652  -1.2165  -1.1786  -1.1436
 -1.1157  -1.0634  -1.0489  -0.9923  -0.9904  -0.9882  -0.9585  -0.9470
 -0.8971  -0.8788  -0.8782  -0.8613  -0.7964  -0.7800  -0.7729  -0.7627
 -0.7354  -0.7248  -0.7030  -0.6939  -0.6822  -0.6739  -0.6663  -0.6622
 -0.6558  -0.6413  -0.6375  -0.6339  -0.6276  -0.6128  -0.5913  -0.5834
 -0.5791  -0.5707  -0.5674  -0.5639  -0.5613  -0.5561  -0.5540  -0.5469
 -0.5352  -0.5251  -0.5244  -0.5149  -0.4813  -0.4684  -0.4650  -0.4616
 -0.4578  -0.4500  -0.4291  -0.4191  -0.4097  -0.3775  -0.3555  -0.3361
 -0.2990

          Ground-State Mulliken Net Atomic Charges

     Atom                 Charge (a.u.)
  ----------------------------------------
      1 C                    -0.146806
      2 C                    -0.111964
      3 C                    -0.028203
      4 C                    -0.002410
      5 H                     0.187686
      6 C                     0.001320
      7 C                     0.073770
      8 C                     0.053877
      9 C                    -0.079498
     10 C                    -0.168660
     11 C                     0.042362
     12 H                     0.170313
     13 C                     0.358339
     14 C                     0.362597
     15 N                    -0.101309
     16 C                     0.358677
     17 C                     0.383309
     18 N                    -0.091899
     19 O                    -0.464294
     20 O                    -0.476710
     21 O                    -0.483577
     22 O                    -0.480411
     23 C                    -0.201204
     24 H                     0.141066
     25 H                     0.112473
     26 H                     0.112412
     27 C                    -0.198374
     28 H                     0.134615
     29 H                     0.112252
     30 H                     0.112725
     31 H                     0.212309
     32 C                     0.017273
     33 S                     0.012392
     34 C                    -0.187597
     35 C                    -0.151651
     36 C                    -0.233010
     37 H                     0.235592
     38 H                     0.192977
     39 H                     0.219240
  ----------------------------------------
  Sum of atomic charges =     0.000000

                    Cartesian Multipole Moments
 -----------------------------------------------------------------
    Charge (ESU x 10^10)
                -0.0000
    Dipole Moment (Debye)
         X       0.7181      Y       2.4106      Z      -0.8018
       Tot       2.6400
    Quadrupole Moments (Debye-Ang)
        XX    -163.2540     XY       4.4093     YY    -169.3805
        XZ       0.2356     YZ       0.4189     ZZ    -178.1808

 Total job time:  285.60s(wall), 8349.68s(cpu)
        *  Thank you very much for using Q-Chem.  Have a nice day.  *
