 Q-Chem 5.4, Q-Chem, Inc., Pleasanton, CA (2021)
 Q-Chem 5.4.0 for Intel X86 EM64T Linux

User input:
--------------------------------------------------------------
$molecule
0 1
C	0.086486	-6.741404	-0.241938
C	0.532960	-6.155638	-1.468983
C	-0.284733	-5.791452	0.776651
C	0.628455	-4.803786	-1.730681
H	0.833086	-6.821518	-2.294130
C	-0.184300	-4.378638	0.502775
C	0.271086	-3.838032	-0.747353
C	-0.541191	-3.413062	1.484986
C	0.370703	-2.426473	-1.019042
C	-0.446468	-2.059348	1.226525
C	0.000000	-1.478216	0.000000
H	-0.746717	-1.394783	2.052666
C	-0.779832	-6.187987	2.131549
C	-1.030596	-3.798164	2.829295
N	-1.115461	-5.170003	3.057496
C	1.119034	-4.424987	-3.078712
C	0.865151	-2.036627	-2.375300
N	1.201176	-3.049156	-3.301374
O	-0.916355	-7.353131	2.498300
O	-1.345486	-2.986854	3.697195
O	1.430379	-5.248946	-3.936224
O	1.007714	-0.878829	-2.762805
C	-1.599576	-5.563799	4.384539
H	-1.616121	-6.664085	4.426636
H	-2.611458	-5.147101	4.550487
H	-0.931037	-5.148785	5.162921
C	1.677382	-2.587487	-4.608454
H	1.896168	-3.483329	-5.212668
H	2.583531	-1.964972	-4.482719
H	0.903674	-1.962932	-5.093988
H	0.022586	-7.822318	-0.067309
C	0.000000	0.000000	0.000000
S	0.509686	0.607733	1.580530
C	1.562368	1.862312	0.904911
C	0.641367	0.764613	-0.985400
C	1.489926	1.776040	-0.493528
H	0.489914	0.584081	-2.059934
H	2.056124	2.450920	-1.152593
H	2.128395	2.537007	1.556025
$end

$rem
JOBTYPE		SP
EXCHANGE	HF
CORRELATION	pRIMP2
BASIS		cc-pvtz
METHOD		rimp2
AUX_BASIS	rimp2-cc-pvtz
SOLVENT_METHOD	PCM
PURECART	11111
SYMMETRY	false
MEM_TOTAL	110000
SCF_CONVERGENCE = 6
THRESH=10
GUI = 2
$end

$solvent
dielectric 4.90
$end
--------------------------------------------------------------

             Standard Nuclear Orientation (Angstroms)
    I     Atom           X                Y                Z
 ----------------------------------------------------------------
    1      C       0.0864860000    -6.7414040000    -0.2419380000
    2      C       0.5329600000    -6.1556380000    -1.4689830000
    3      C      -0.2847330000    -5.7914520000     0.7766510000
    4      C       0.6284550000    -4.8037860000    -1.7306810000
    5      H       0.8330860000    -6.8215180000    -2.2941300000
    6      C      -0.1843000000    -4.3786380000     0.5027750000
    7      C       0.2710860000    -3.8380320000    -0.7473530000
    8      C      -0.5411910000    -3.4130620000     1.4849860000
    9      C       0.3707030000    -2.4264730000    -1.0190420000
   10      C      -0.4464680000    -2.0593480000     1.2265250000
   11      C       0.0000000000    -1.4782160000     0.0000000000
   12      H      -0.7467170000    -1.3947830000     2.0526660000
   13      C      -0.7798320000    -6.1879870000     2.1315490000
   14      C      -1.0305960000    -3.7981640000     2.8292950000
   15      N      -1.1154610000    -5.1700030000     3.0574960000
   16      C       1.1190340000    -4.4249870000    -3.0787120000
   17      C       0.8651510000    -2.0366270000    -2.3753000000
   18      N       1.2011760000    -3.0491560000    -3.3013740000
   19      O      -0.9163550000    -7.3531310000     2.4983000000
   20      O      -1.3454860000    -2.9868540000     3.6971950000
   21      O       1.4303790000    -5.2489460000    -3.9362240000
   22      O       1.0077140000    -0.8788290000    -2.7628050000
   23      C      -1.5995760000    -5.5637990000     4.3845390000
   24      H      -1.6161210000    -6.6640850000     4.4266360000
   25      H      -2.6114580000    -5.1471010000     4.5504870000
   26      H      -0.9310370000    -5.1487850000     5.1629210000
   27      C       1.6773820000    -2.5874870000    -4.6084540000
   28      H       1.8961680000    -3.4833290000    -5.2126680000
   29      H       2.5835310000    -1.9649720000    -4.4827190000
   30      H       0.9036740000    -1.9629320000    -5.0939880000
   31      H       0.0225860000    -7.8223180000    -0.0673090000
   32      C       0.0000000000     0.0000000000     0.0000000000
   33      S       0.5096860000     0.6077330000     1.5805300000
   34      C       1.5623680000     1.8623120000     0.9049110000
   35      C       0.6413670000     0.7646130000    -0.9854000000
   36      C       1.4899260000     1.7760400000    -0.4935280000
   37      H       0.4899140000     0.5840810000    -2.0599340000
   38      H       2.0561240000     2.4509200000    -1.1525930000
   39      H       2.1283950000     2.5370070000     1.5560250000
 ----------------------------------------------------------------

   11   -1570.6461904382      5.12e-07  Convergence criterion met
 Total energy in the final basis set =    -1570.6461904382
        RIMP2         total energy =     -1575.2794891620 a.u.

                    Orbital Energies (a.u.)
 --------------------------------------------------------------

 Alpha MOs
 -- Occupied --
-91.9921 -20.5577 -20.5554 -20.5522 -20.5522 -15.6302 -15.6299 -11.3988
-11.3969 -11.3900 -11.3896 -11.3195 -11.3013 -11.3003 -11.2979 -11.2913
-11.2911 -11.2901 -11.2853 -11.2801 -11.2767 -11.2766 -11.2754 -11.2648
-11.2638 -11.2576 -11.2497  -8.9923  -6.6730  -6.6724  -6.6718  -1.4263
 -1.4239  -1.4040  -1.4033  -1.2669  -1.2648  -1.2152  -1.1808  -1.1420
 -1.1137  -1.0618  -1.0471  -0.9922  -0.9908  -0.9893  -0.9579  -0.9463
 -0.8959  -0.8778  -0.8752  -0.8606  -0.7949  -0.7777  -0.7729  -0.7644
 -0.7346  -0.7299  -0.7022  -0.6923  -0.6806  -0.6726  -0.6658  -0.6617
 -0.6547  -0.6401  -0.6376  -0.6337  -0.6259  -0.6121  -0.5894  -0.5831
 -0.5767  -0.5747  -0.5661  -0.5631  -0.5589  -0.5554  -0.5536  -0.5461
 -0.5322  -0.5230  -0.5206  -0.5163  -0.4797  -0.4663  -0.4646  -0.4619
 -0.4562  -0.4444  -0.4286  -0.4187  -0.4083  -0.3766  -0.3511  -0.3350
 -0.2978

          Ground-State Mulliken Net Atomic Charges

     Atom                 Charge (a.u.)
  ----------------------------------------
      1 C                    -0.155700
      2 C                    -0.110835
      3 C                    -0.027615
      4 C                    -0.003553
      5 H                     0.186907
      6 C                    -0.014153
      7 C                     0.081308
      8 C                     0.023401
      9 C                    -0.085105
     10 C                    -0.145102
     11 C                     0.065386
     12 H                     0.165847
     13 C                     0.359630
     14 C                     0.364584
     15 N                    -0.101449
     16 C                     0.357779
     17 C                     0.391855
     18 N                    -0.091083
     19 O                    -0.464538
     20 O                    -0.477199
     21 O                    -0.484774
     22 O                    -0.477143
     23 C                    -0.201419
     24 H                     0.140907
     25 H                     0.112228
     26 H                     0.112271
     27 C                    -0.199193
     28 H                     0.134760
     29 H                     0.111936
     30 H                     0.112447
     31 H                     0.211193
     32 C                    -0.047953
     33 S                     0.028521
     34 C                    -0.163109
     35 C                    -0.128581
     36 C                    -0.221145
     37 H                     0.226194
     38 H                     0.194010
     39 H                     0.218483
  ----------------------------------------
  Sum of atomic charges =     0.000000

                    Cartesian Multipole Moments
 -----------------------------------------------------------------
    Charge (ESU x 10^10)
                -0.0000
    Dipole Moment (Debye)
         X       1.9933      Y       2.8231      Z      -0.9288
       Tot       3.5785
    Quadrupole Moments (Debye-Ang)
        XX    -161.0925     XY       6.5403     YY    -176.8874
        XZ       7.4181     YZ       0.0080     ZZ    -175.8803

 Total job time:  286.84s(wall), 8479.81s(cpu)
        *  Thank you very much for using Q-Chem.  Have a nice day.  *
