 Q-Chem 5.4, Q-Chem, Inc., Pleasanton, CA (2021)
 Q-Chem 5.4.0 for Intel X86 EM64T Linux

User input:
--------------------------------------------------------------
$molecule
0 1
C	0.221766	-6.741404	-0.129743
C	1.352515	-6.155638	-0.782726
C	-0.717339	-5.791452	0.411926
C	1.593885	-4.803786	-0.921816
H	2.112819	-6.821518	-1.221908
C	-0.464360	-4.378638	0.266682
C	0.688053	-3.838032	-0.398255
C	-1.369108	-3.413062	0.789694
C	0.939002	-2.426473	-0.542349
C	-1.130409	-2.059348	0.652589
C	-0.000000	-1.478216	-0.000000
H	-1.891446	-1.394783	1.092453
C	-1.967519	-6.187987	1.131595
C	-2.608118	-3.798164	1.504912
N	-2.819813	-5.170003	1.625174
C	2.836188	-4.424987	-1.639129
C	2.189558	-2.036627	-1.263477
N	3.042237	-3.049156	-1.756898
O	-2.307845	-7.353131	1.324787
O	-3.407213	-2.986854	1.967354
O	3.625890	-5.248946	-2.095892
O	2.547850	-0.878829	-1.468685
C	-4.043674	-5.563799	2.330564
H	-4.083407	-6.664085	2.352178
H	-4.925490	-5.147101	1.807263
H	-4.031877	-5.148785	3.356568
C	4.247206	-2.587487	-2.452080
H	4.803187	-3.483329	-2.774302
H	4.860536	-1.964972	-1.773301
H	3.966607	-1.962932	-3.321351
H	0.060567	-7.822318	-0.037043
C	0.000000	0.000000	0.000000
S	0.686805	0.396760	1.580530
C	2.105095	1.215640	0.904911
C	0.864201	0.499140	-0.985400
C	2.007514	1.159347	-0.493528
H	0.660136	0.381296	-2.059934
H	2.770388	1.599875	-1.152593
H	2.867745	1.656053	1.556025
$end

$rem
JOBTYPE		SP
EXCHANGE	HF
CORRELATION	pRIMP2
BASIS		cc-pvtz
METHOD		rimp2
AUX_BASIS	rimp2-cc-pvtz
SOLVENT_METHOD	PCM
PURECART	11111
SYMMETRY	false
MEM_TOTAL	110000
SCF_CONVERGENCE = 6
THRESH=10
GUI = 2
$end

$solvent
dielectric 4.90
$end
--------------------------------------------------------------

             Standard Nuclear Orientation (Angstroms)
    I     Atom           X                Y                Z
 ----------------------------------------------------------------
    1      C       0.2217660000    -6.7414040000    -0.1297430000
    2      C       1.3525150000    -6.1556380000    -0.7827260000
    3      C      -0.7173390000    -5.7914520000     0.4119260000
    4      C       1.5938850000    -4.8037860000    -0.9218160000
    5      H       2.1128190000    -6.8215180000    -1.2219080000
    6      C      -0.4643600000    -4.3786380000     0.2666820000
    7      C       0.6880530000    -3.8380320000    -0.3982550000
    8      C      -1.3691080000    -3.4130620000     0.7896940000
    9      C       0.9390020000    -2.4264730000    -0.5423490000
   10      C      -1.1304090000    -2.0593480000     0.6525890000
   11      C       0.0000000000    -1.4782160000     0.0000000000
   12      H      -1.8914460000    -1.3947830000     1.0924530000
   13      C      -1.9675190000    -6.1879870000     1.1315950000
   14      C      -2.6081180000    -3.7981640000     1.5049120000
   15      N      -2.8198130000    -5.1700030000     1.6251740000
   16      C       2.8361880000    -4.4249870000    -1.6391290000
   17      C       2.1895580000    -2.0366270000    -1.2634770000
   18      N       3.0422370000    -3.0491560000    -1.7568980000
   19      O      -2.3078450000    -7.3531310000     1.3247870000
   20      O      -3.4072130000    -2.9868540000     1.9673540000
   21      O       3.6258900000    -5.2489460000    -2.0958920000
   22      O       2.5478500000    -0.8788290000    -1.4686850000
   23      C      -4.0436740000    -5.5637990000     2.3305640000
   24      H      -4.0834070000    -6.6640850000     2.3521780000
   25      H      -4.9254900000    -5.1471010000     1.8072630000
   26      H      -4.0318770000    -5.1487850000     3.3565680000
   27      C       4.2472060000    -2.5874870000    -2.4520800000
   28      H       4.8031870000    -3.4833290000    -2.7743020000
   29      H       4.8605360000    -1.9649720000    -1.7733010000
   30      H       3.9666070000    -1.9629320000    -3.3213510000
   31      H       0.0605670000    -7.8223180000    -0.0370430000
   32      C       0.0000000000     0.0000000000     0.0000000000
   33      S       0.6868050000     0.3967600000     1.5805300000
   34      C       2.1050950000     1.2156400000     0.9049110000
   35      C       0.8642010000     0.4991400000    -0.9854000000
   36      C       2.0075140000     1.1593470000    -0.4935280000
   37      H       0.6601360000     0.3812960000    -2.0599340000
   38      H       2.7703880000     1.5998750000    -1.1525930000
   39      H       2.8677450000     1.6560530000     1.5560250000
 ----------------------------------------------------------------

   11   -1570.6004277319      4.82e-07  Convergence criterion met
 Total energy in the final basis set =    -1570.6004277319
        RIMP2         total energy =     -1575.2411275987 a.u.

                    Orbital Energies (a.u.)
 --------------------------------------------------------------

 Alpha MOs
 -- Occupied --
-91.9808 -20.5575 -20.5545 -20.5542 -20.5530 -15.6317 -15.6296 -11.3987
-11.3986 -11.3915 -11.3884 -11.3158 -11.3007 -11.2978 -11.2946 -11.2915
-11.2914 -11.2912 -11.2829 -11.2825 -11.2811 -11.2777 -11.2683 -11.2661
-11.2635 -11.2516 -11.2492  -8.9815  -6.6623  -6.6616  -6.6610  -1.4289
 -1.4234  -1.4060  -1.4027  -1.2683  -1.2648  -1.2153  -1.1827  -1.1403
 -1.1134  -1.0597  -1.0462  -0.9929  -0.9914  -0.9863  -0.9583  -0.9479
 -0.8956  -0.8779  -0.8695  -0.8588  -0.7914  -0.7757  -0.7744  -0.7625
 -0.7350  -0.7231  -0.7024  -0.6914  -0.6857  -0.6712  -0.6662  -0.6617
 -0.6542  -0.6432  -0.6368  -0.6341  -0.6258  -0.6105  -0.5890  -0.5852
 -0.5799  -0.5737  -0.5650  -0.5634  -0.5562  -0.5539  -0.5515  -0.5484
 -0.5381  -0.5240  -0.5173  -0.5021  -0.4818  -0.4701  -0.4629  -0.4616
 -0.4540  -0.4437  -0.4287  -0.4175  -0.4062  -0.3626  -0.3353  -0.3281
 -0.3069

          Ground-State Mulliken Net Atomic Charges

     Atom                 Charge (a.u.)
  ----------------------------------------
      1 C                    -0.152159
      2 C                    -0.107895
      3 C                    -0.030223
      4 C                    -0.005532
      5 H                     0.187028
      6 C                    -0.014558
      7 C                     0.081036
      8 C                     0.006852
      9 C                    -0.080229
     10 C                    -0.146836
     11 C                     0.091760
     12 H                     0.181393
     13 C                     0.360354
     14 C                     0.364809
     15 N                    -0.101185
     16 C                     0.357740
     17 C                     0.398976
     18 N                    -0.090133
     19 O                    -0.464971
     20 O                    -0.476127
     21 O                    -0.482545
     22 O                    -0.471885
     23 C                    -0.201630
     24 H                     0.140674
     25 H                     0.112123
     26 H                     0.112321
     27 C                    -0.197679
     28 H                     0.135634
     29 H                     0.112521
     30 H                     0.111519
     31 H                     0.211578
     32 C                    -0.214352
     33 S                     0.005148
     34 C                    -0.168574
     35 C                     0.013961
     36 C                    -0.168563
     37 H                     0.198167
     38 H                     0.180131
     39 H                     0.211352
  ----------------------------------------
  Sum of atomic charges =     0.000000

                    Cartesian Multipole Moments
 -----------------------------------------------------------------
    Charge (ESU x 10^10)
                 0.0000
    Dipole Moment (Debye)
         X       3.5164      Y       1.5914      Z      -1.9084
       Tot       4.3057
    Quadrupole Moments (Debye-Ang)
        XX    -168.9516     XY       5.3811     YY    -180.2313
        XZ       8.8416     YZ       0.0765     ZZ    -162.3993

 Total job time:  276.95s(wall), 8559.86s(cpu)
        *  Thank you very much for using Q-Chem.  Have a nice day.  *
