 Q-Chem 5.4, Q-Chem, Inc., Pleasanton, CA (2021)
 Q-Chem 5.4.0 for Intel X86 EM64T Linux

User input:
--------------------------------------------------------------
$molecule
0 1
C	-0.195868	-6.741404	0.166281
C	-1.196048	-6.155638	1.005696
C	0.634911	-5.791452	-0.530233
C	-1.409599	-4.803786	1.184587
H	-1.868538	-6.821518	1.570232
C	0.410996	-4.378638	-0.343266
C	-0.608444	-3.838032	0.511683
C	1.211179	-3.413062	-1.015440
C	-0.830559	-2.426473	0.697165
C	0.999915	-2.059348	-0.838968
C	-0.000000	-1.478216	-0.000000
H	1.673009	-1.394783	-1.404302
C	1.741129	-6.187987	-1.456059
C	2.307170	-3.798164	-1.934944
N	2.494766	-5.170003	-2.090139
C	-2.508468	-4.424987	2.106725
C	-1.936893	-2.036627	1.624494
N	-2.690936	-3.049156	2.258486
O	2.042736	-7.353131	-1.705414
O	3.013823	-2.986854	-2.529122
O	-3.206857	-5.248946	2.693680
O	-2.254108	-0.878829	1.888802
C	3.577543	-5.563799	-2.997334
H	3.612920	-6.664085	-3.025519
H	4.536833	-5.147101	-2.635109
H	3.387762	-5.148785	-4.005702
C	-3.756883	-2.587487	3.152347
H	-4.248464	-3.483329	3.566218
H	-4.478763	-1.964972	2.590383
H	-3.329599	-1.962932	3.959687
H	-0.053215	-7.822318	0.046998
C	0.000000	0.000000	0.000000
S	0.607475	0.509994	1.580530
C	1.862020	1.562717	0.904911
C	0.764397	0.641624	-0.985400
C	1.775697	1.490335	-0.493528
H	0.583895	0.490135	-2.059934
H	2.450484	2.056643	-1.152593
H	2.536607	2.128872	1.556025
$end

$rem
JOBTYPE		SP
EXCHANGE	HF
CORRELATION	pRIMP2
BASIS		cc-pvtz
METHOD		rimp2
AUX_BASIS	rimp2-cc-pvtz
SOLVENT_METHOD	PCM
PURECART	11111
SYMMETRY	false
MEM_TOTAL	110000
SCF_CONVERGENCE = 6
THRESH=10
GUI = 2
$end

$solvent
dielectric 4.90
$end
--------------------------------------------------------------

             Standard Nuclear Orientation (Angstroms)
    I     Atom           X                Y                Z
 ----------------------------------------------------------------
    1      C      -0.1958680000    -6.7414040000     0.1662810000
    2      C      -1.1960480000    -6.1556380000     1.0056960000
    3      C       0.6349110000    -5.7914520000    -0.5302330000
    4      C      -1.4095990000    -4.8037860000     1.1845870000
    5      H      -1.8685380000    -6.8215180000     1.5702320000
    6      C       0.4109960000    -4.3786380000    -0.3432660000
    7      C      -0.6084440000    -3.8380320000     0.5116830000
    8      C       1.2111790000    -3.4130620000    -1.0154400000
    9      C      -0.8305590000    -2.4264730000     0.6971650000
   10      C       0.9999150000    -2.0593480000    -0.8389680000
   11      C       0.0000000000    -1.4782160000     0.0000000000
   12      H       1.6730090000    -1.3947830000    -1.4043020000
   13      C       1.7411290000    -6.1879870000    -1.4560590000
   14      C       2.3071700000    -3.7981640000    -1.9349440000
   15      N       2.4947660000    -5.1700030000    -2.0901390000
   16      C      -2.5084680000    -4.4249870000     2.1067250000
   17      C      -1.9368930000    -2.0366270000     1.6244940000
   18      N      -2.6909360000    -3.0491560000     2.2584860000
   19      O       2.0427360000    -7.3531310000    -1.7054140000
   20      O       3.0138230000    -2.9868540000    -2.5291220000
   21      O      -3.2068570000    -5.2489460000     2.6936800000
   22      O      -2.2541080000    -0.8788290000     1.8888020000
   23      C       3.5775430000    -5.5637990000    -2.9973340000
   24      H       3.6129200000    -6.6640850000    -3.0255190000
   25      H       4.5368330000    -5.1471010000    -2.6351090000
   26      H       3.3877620000    -5.1487850000    -4.0057020000
   27      C      -3.7568830000    -2.5874870000     3.1523470000
   28      H      -4.2484640000    -3.4833290000     3.5662180000
   29      H      -4.4787630000    -1.9649720000     2.5903830000
   30      H      -3.3295990000    -1.9629320000     3.9596870000
   31      H      -0.0532150000    -7.8223180000     0.0469980000
   32      C       0.0000000000     0.0000000000     0.0000000000
   33      S       0.6074750000     0.5099940000     1.5805300000
   34      C       1.8620200000     1.5627170000     0.9049110000
   35      C       0.7643970000     0.6416240000    -0.9854000000
   36      C       1.7756970000     1.4903350000    -0.4935280000
   37      H       0.5838950000     0.4901350000    -2.0599340000
   38      H       2.4504840000     2.0566430000    -1.1525930000
   39      H       2.5366070000     2.1288720000     1.5560250000
 ----------------------------------------------------------------

   11   -1570.6518080275      4.55e-07  Convergence criterion met
 Total energy in the final basis set =    -1570.6518080275
        RIMP2         total energy =     -1575.2869732435 a.u.

                    Orbital Energies (a.u.)
 --------------------------------------------------------------

 Alpha MOs
 -- Occupied --
-91.9956 -20.5582 -20.5564 -20.5538 -20.5524 -15.6309 -15.6283 -11.3995
-11.3933 -11.3904 -11.3900 -11.3165 -11.3016 -11.3011 -11.2982 -11.2937
-11.2935 -11.2935 -11.2850 -11.2820 -11.2782 -11.2776 -11.2731 -11.2707
-11.2646 -11.2631 -11.2555  -8.9950  -6.6757  -6.6750  -6.6746  -1.4247
 -1.4218  -1.4041  -1.4009  -1.2667  -1.2632  -1.2165  -1.1860  -1.1416
 -1.1146  -1.0622  -1.0474  -0.9937  -0.9926  -0.9907  -0.9577  -0.9459
 -0.8953  -0.8773  -0.8744  -0.8579  -0.7937  -0.7755  -0.7750  -0.7669
 -0.7332  -0.7163  -0.7066  -0.6933  -0.6823  -0.6745  -0.6654  -0.6609
 -0.6554  -0.6410  -0.6358  -0.6317  -0.6267  -0.6124  -0.5871  -0.5850
 -0.5797  -0.5754  -0.5668  -0.5642  -0.5631  -0.5548  -0.5528  -0.5474
 -0.5303  -0.5280  -0.5183  -0.5097  -0.4827  -0.4744  -0.4648  -0.4594
 -0.4561  -0.4513  -0.4268  -0.4173  -0.4073  -0.3692  -0.3520  -0.3360
 -0.3077

          Ground-State Mulliken Net Atomic Charges

     Atom                 Charge (a.u.)
  ----------------------------------------
      1 C                    -0.145115
      2 C                    -0.108079
      3 C                    -0.031450
      4 C                    -0.003763
      5 H                     0.187901
      6 C                    -0.009536
      7 C                     0.078682
      8 C                     0.015720
      9 C                    -0.074105
     10 C                    -0.169440
     11 C                     0.109271
     12 H                     0.182483
     13 C                     0.358545
     14 C                     0.363993
     15 N                    -0.101056
     16 C                     0.356654
     17 C                     0.362304
     18 N                    -0.094511
     19 O                    -0.464648
     20 O                    -0.478415
     21 O                    -0.483811
     22 O                    -0.469743
     23 C                    -0.201503
     24 H                     0.141213
     25 H                     0.112100
     26 H                     0.112021
     27 C                    -0.197664
     28 H                     0.133177
     29 H                     0.112815
     30 H                     0.112558
     31 H                     0.212412
     32 C                    -0.102033
     33 S                     0.070845
     34 C                    -0.162071
     35 C                    -0.127710
     36 C                    -0.209480
     37 H                     0.199361
     38 H                     0.195314
     39 H                     0.216765
  ----------------------------------------
  Sum of atomic charges =     0.000000

                    Cartesian Multipole Moments
 -----------------------------------------------------------------
    Charge (ESU x 10^10)
                 0.0000
    Dipole Moment (Debye)
         X       2.6250      Y       1.8933      Z      -0.9993
       Tot       3.3873
    Quadrupole Moments (Debye-Ang)
        XX    -169.2911     XY       6.4198     YY    -175.5439
        XZ      11.6525     YZ       0.8668     ZZ    -165.5855

 Total job time:  284.86s(wall), 8481.08s(cpu)
        *  Thank you very much for using Q-Chem.  Have a nice day.  *
