 Q-Chem 5.4, Q-Chem, Inc., Pleasanton, CA (2021)
 Q-Chem 5.4.0 for Intel X86 EM64T Linux

User input:
--------------------------------------------------------------
$molecule
0 1
C	0.223244	-6.741404	0.127184
C	1.354118	-6.155638	0.779949
C	-0.715408	-5.791452	-0.415271
C	1.595259	-4.803786	0.919437
H	2.114613	-6.821518	1.218801
C	-0.463133	-4.378638	-0.268806
C	0.688925	-3.838032	0.396744
C	-1.368449	-3.413062	-0.790835
C	0.939189	-2.426473	0.542026
C	-1.130363	-2.059348	-0.652669
C	0.000000	-1.478216	0.000000
H	-1.891815	-1.394783	-1.091814
C	-1.963749	-6.187987	-1.138124
C	-2.607351	-3.798164	-1.506241
N	-2.817348	-5.170003	-1.629443
C	2.837621	-4.424987	1.636646
C	2.188982	-2.036627	1.264474
N	3.042637	-3.049156	1.756205
O	-2.301222	-7.353131	-1.336258
O	-3.407386	-2.986854	-1.967056
O	3.628041	-5.248946	2.092167
O	2.545844	-0.878829	1.472160
C	-4.040164	-5.563799	-2.336642
H	-4.078749	-6.664085	-2.360245
H	-4.027880	-5.147101	-3.361968
H	-4.922811	-5.148785	-1.813424
C	4.247167	-2.587487	2.452149
H	4.804209	-3.483329	2.772531
H	3.965991	-1.964972	3.322697
H	4.859678	-1.962932	1.774507
H	0.062364	-7.822318	0.033931
C	0.000000	0.000000	0.000000
S	0.068929	0.790170	1.580530
C	0.211639	2.421655	0.904911
C	0.086813	0.994207	-0.985400
C	0.201782	2.309433	-0.493528
H	0.066299	0.759454	-2.059934
H	0.278488	3.187020	-1.152593
H	0.288312	3.298992	1.556025
$end

$rem
JOBTYPE		SP
EXCHANGE	HF
CORRELATION	pRIMP2
BASIS		cc-pvtz
METHOD		rimp2
AUX_BASIS	rimp2-cc-pvtz
SOLVENT_METHOD	PCM
PURECART	11111
SYMMETRY	false
MEM_TOTAL	110000
SCF_CONVERGENCE = 6
THRESH=10
GUI = 2
$end

$solvent
dielectric 4.90
$end
--------------------------------------------------------------

             Standard Nuclear Orientation (Angstroms)
    I     Atom           X                Y                Z
 ----------------------------------------------------------------
    1      C       0.2232440000    -6.7414040000     0.1271840000
    2      C       1.3541180000    -6.1556380000     0.7799490000
    3      C      -0.7154080000    -5.7914520000    -0.4152710000
    4      C       1.5952590000    -4.8037860000     0.9194370000
    5      H       2.1146130000    -6.8215180000     1.2188010000
    6      C      -0.4631330000    -4.3786380000    -0.2688060000
    7      C       0.6889250000    -3.8380320000     0.3967440000
    8      C      -1.3684490000    -3.4130620000    -0.7908350000
    9      C       0.9391890000    -2.4264730000     0.5420260000
   10      C      -1.1303630000    -2.0593480000    -0.6526690000
   11      C       0.0000000000    -1.4782160000     0.0000000000
   12      H      -1.8918150000    -1.3947830000    -1.0918140000
   13      C      -1.9637490000    -6.1879870000    -1.1381240000
   14      C      -2.6073510000    -3.7981640000    -1.5062410000
   15      N      -2.8173480000    -5.1700030000    -1.6294430000
   16      C       2.8376210000    -4.4249870000     1.6366460000
   17      C       2.1889820000    -2.0366270000     1.2644740000
   18      N       3.0426370000    -3.0491560000     1.7562050000
   19      O      -2.3012220000    -7.3531310000    -1.3362580000
   20      O      -3.4073860000    -2.9868540000    -1.9670560000
   21      O       3.6280410000    -5.2489460000     2.0921670000
   22      O       2.5458440000    -0.8788290000     1.4721600000
   23      C      -4.0401640000    -5.5637990000    -2.3366420000
   24      H      -4.0787490000    -6.6640850000    -2.3602450000
   25      H      -4.0278800000    -5.1471010000    -3.3619680000
   26      H      -4.9228110000    -5.1487850000    -1.8134240000
   27      C       4.2471670000    -2.5874870000     2.4521490000
   28      H       4.8042090000    -3.4833290000     2.7725310000
   29      H       3.9659910000    -1.9649720000     3.3226970000
   30      H       4.8596780000    -1.9629320000     1.7745070000
   31      H       0.0623640000    -7.8223180000     0.0339310000
   32      C       0.0000000000     0.0000000000     0.0000000000
   33      S       0.0689290000     0.7901700000     1.5805300000
   34      C       0.2116390000     2.4216550000     0.9049110000
   35      C       0.0868130000     0.9942070000    -0.9854000000
   36      C       0.2017820000     2.3094330000    -0.4935280000
   37      H       0.0662990000     0.7594540000    -2.0599340000
   38      H       0.2784880000     3.1870200000    -1.1525930000
   39      H       0.2883120000     3.2989920000     1.5560250000
 ----------------------------------------------------------------

   10   -1570.6865912772      7.16e-07  Convergence criterion met
 Total energy in the final basis set =    -1570.6865912772
        RIMP2         total energy =     -1575.3126881422 a.u.

                    Orbital Energies (a.u.)
 --------------------------------------------------------------

 Alpha MOs
 -- Occupied --
-91.9866 -20.5588 -20.5565 -20.5550 -20.5548 -15.6315 -15.6305 -11.4004
-11.3960 -11.3926 -11.3908 -11.3164 -11.3066 -11.3031 -11.3015 -11.2991
-11.2985 -11.2916 -11.2866 -11.2864 -11.2817 -11.2808 -11.2784 -11.2648
-11.2644 -11.2577 -11.2481  -8.9861  -6.6668  -6.6663  -6.6658  -1.4252
 -1.4239  -1.4045  -1.4029  -1.2677  -1.2652  -1.2180  -1.1735  -1.1442
 -1.1180  -1.0631  -1.0504  -0.9932  -0.9887  -0.9819  -0.9593  -0.9485
 -0.8971  -0.8799  -0.8778  -0.8616  -0.7950  -0.7773  -0.7736  -0.7601
 -0.7348  -0.7190  -0.7050  -0.6949  -0.6814  -0.6736  -0.6665  -0.6622
 -0.6571  -0.6421  -0.6377  -0.6338  -0.6300  -0.6130  -0.5850  -0.5842
 -0.5781  -0.5718  -0.5662  -0.5642  -0.5642  -0.5554  -0.5534  -0.5485
 -0.5344  -0.5258  -0.5206  -0.5151  -0.4832  -0.4710  -0.4655  -0.4595
 -0.4584  -0.4526  -0.4282  -0.4182  -0.4092  -0.3605  -0.3473  -0.3361
 -0.3140

          Ground-State Mulliken Net Atomic Charges

     Atom                 Charge (a.u.)
  ----------------------------------------
      1 C                    -0.132413
      2 C                    -0.108220
      3 C                    -0.042263
      4 C                    -0.002273
      5 H                     0.188968
      6 C                    -0.002535
      7 C                     0.074758
      8 C                     0.005291
      9 C                    -0.030368
     10 C                    -0.136662
     11 C                     0.081453
     12 H                     0.183168
     13 C                     0.361057
     14 C                     0.368923
     15 N                    -0.101676
     16 C                     0.359444
     17 C                     0.365700
     18 N                    -0.095225
     19 O                    -0.464704
     20 O                    -0.476491
     21 O                    -0.480512
     22 O                    -0.455600
     23 C                    -0.200953
     24 H                     0.141110
     25 H                     0.112314
     26 H                     0.112573
     27 C                    -0.196170
     28 H                     0.133678
     29 H                     0.113035
     30 H                     0.113166
     31 H                     0.214315
     32 C                    -0.054225
     33 S                     0.048187
     34 C                    -0.204416
     35 C                    -0.178115
     36 C                    -0.208166
     37 H                     0.192479
     38 H                     0.190629
     39 H                     0.210741
  ----------------------------------------
  Sum of atomic charges =     0.000000

                    Cartesian Multipole Moments
 -----------------------------------------------------------------
    Charge (ESU x 10^10)
                 0.0000
    Dipole Moment (Debye)
         X       0.3520      Y       0.8880      Z      -0.7704
       Tot       1.2272
    Quadrupole Moments (Debye-Ang)
        XX    -179.3287     XY       0.4036     YY    -164.8184
        XZ      -8.4127     YZ       0.2815     ZZ    -162.4400

 Total job time:  249.39s(wall), 7764.16s(cpu)
        *  Thank you very much for using Q-Chem.  Have a nice day.  *
