 Q-Chem 5.4, Q-Chem, Inc., Pleasanton, CA (2021)
 Q-Chem 5.4.0 for Intel X86 EM64T Linux

User input:
--------------------------------------------------------------
$molecule
0 1
C	0.166281	-6.741404	0.195868
C	1.005696	-6.155638	1.196048
C	-0.530233	-5.791452	-0.634911
C	1.184587	-4.803786	1.409599
H	1.570232	-6.821518	1.868538
C	-0.343266	-4.378638	-0.410996
C	0.511683	-3.838032	0.608444
C	-1.015440	-3.413062	-1.211179
C	0.697165	-2.426473	0.830559
C	-0.838968	-2.059348	-0.999915
C	-0.000000	-1.478216	-0.000000
H	-1.404302	-1.394783	-1.673009
C	-1.456059	-6.187987	-1.741129
C	-1.934944	-3.798164	-2.307170
N	-2.090139	-5.170003	-2.494766
C	2.106725	-4.424987	2.508468
C	1.624494	-2.036627	1.936893
N	2.258486	-3.049156	2.690936
O	-1.705414	-7.353131	-2.042736
O	-2.529122	-2.986854	-3.013823
O	2.693680	-5.248946	3.206857
O	1.888802	-0.878829	2.254108
C	-2.997334	-5.563799	-3.577543
H	-3.025519	-6.664085	-3.612920
H	-2.635109	-5.147101	-4.536833
H	-4.005702	-5.148785	-3.387762
C	3.152347	-2.587487	3.756883
H	3.566218	-3.483329	4.248464
H	2.590383	-1.964972	4.478763
H	3.959687	-1.962932	3.329599
H	0.046998	-7.822318	0.053215
C	0.000000	0.000000	0.000000
S	0.686805	0.396760	1.580530
C	2.105095	1.215640	0.904911
C	0.864201	0.499140	-0.985400
C	2.007514	1.159347	-0.493528
H	0.660136	0.381296	-2.059934
H	2.770388	1.599875	-1.152593
H	2.867745	1.656053	1.556025
$end

$rem
JOBTYPE		SP
EXCHANGE	HF
CORRELATION	pRIMP2
BASIS		cc-pvtz
METHOD		rimp2
AUX_BASIS	rimp2-cc-pvtz
SOLVENT_METHOD	PCM
PURECART	11111
SYMMETRY	false
MEM_TOTAL	110000
SCF_CONVERGENCE = 6
THRESH=10
GUI = 2
$end

$solvent
dielectric 4.90
$end
--------------------------------------------------------------

             Standard Nuclear Orientation (Angstroms)
    I     Atom           X                Y                Z
 ----------------------------------------------------------------
    1      C       0.1662810000    -6.7414040000     0.1958680000
    2      C       1.0056960000    -6.1556380000     1.1960480000
    3      C      -0.5302330000    -5.7914520000    -0.6349110000
    4      C       1.1845870000    -4.8037860000     1.4095990000
    5      H       1.5702320000    -6.8215180000     1.8685380000
    6      C      -0.3432660000    -4.3786380000    -0.4109960000
    7      C       0.5116830000    -3.8380320000     0.6084440000
    8      C      -1.0154400000    -3.4130620000    -1.2111790000
    9      C       0.6971650000    -2.4264730000     0.8305590000
   10      C      -0.8389680000    -2.0593480000    -0.9999150000
   11      C       0.0000000000    -1.4782160000     0.0000000000
   12      H      -1.4043020000    -1.3947830000    -1.6730090000
   13      C      -1.4560590000    -6.1879870000    -1.7411290000
   14      C      -1.9349440000    -3.7981640000    -2.3071700000
   15      N      -2.0901390000    -5.1700030000    -2.4947660000
   16      C       2.1067250000    -4.4249870000     2.5084680000
   17      C       1.6244940000    -2.0366270000     1.9368930000
   18      N       2.2584860000    -3.0491560000     2.6909360000
   19      O      -1.7054140000    -7.3531310000    -2.0427360000
   20      O      -2.5291220000    -2.9868540000    -3.0138230000
   21      O       2.6936800000    -5.2489460000     3.2068570000
   22      O       1.8888020000    -0.8788290000     2.2541080000
   23      C      -2.9973340000    -5.5637990000    -3.5775430000
   24      H      -3.0255190000    -6.6640850000    -3.6129200000
   25      H      -2.6351090000    -5.1471010000    -4.5368330000
   26      H      -4.0057020000    -5.1487850000    -3.3877620000
   27      C       3.1523470000    -2.5874870000     3.7568830000
   28      H       3.5662180000    -3.4833290000     4.2484640000
   29      H       2.5903830000    -1.9649720000     4.4787630000
   30      H       3.9596870000    -1.9629320000     3.3295990000
   31      H       0.0469980000    -7.8223180000     0.0532150000
   32      C       0.0000000000     0.0000000000     0.0000000000
   33      S       0.6868050000     0.3967600000     1.5805300000
   34      C       2.1050950000     1.2156400000     0.9049110000
   35      C       0.8642010000     0.4991400000    -0.9854000000
   36      C       2.0075140000     1.1593470000    -0.4935280000
   37      H       0.6601360000     0.3812960000    -2.0599340000
   38      H       2.7703880000     1.5998750000    -1.1525930000
   39      H       2.8677450000     1.6560530000     1.5560250000
 ----------------------------------------------------------------

   11   -1570.5028615976      8.98e-07  Convergence criterion met
 Total energy in the final basis set =    -1570.5028615976
        RIMP2         total energy =     -1575.1760064494 a.u.

                    Orbital Energies (a.u.)
 --------------------------------------------------------------

 Alpha MOs
 -- Occupied --
-92.0150 -20.5839 -20.5596 -20.5587 -20.5571 -15.6440 -15.6315 -11.4207
-11.4004 -11.3966 -11.3909 -11.3242 -11.3034 -11.3022 -11.2927 -11.2923
-11.2905 -11.2882 -11.2821 -11.2800 -11.2714 -11.2711 -11.2665 -11.2646
-11.2528 -11.2399 -11.2378  -9.0114  -6.6925  -6.6905  -6.6891  -1.4730
 -1.4254  -1.4157  -1.4047  -1.2836  -1.2670  -1.2181  -1.1776  -1.1404
 -1.1165  -1.0601  -1.0500  -1.0000  -0.9961  -0.9836  -0.9623  -0.9479
 -0.9022  -0.8828  -0.8725  -0.8647  -0.7929  -0.7858  -0.7803  -0.7586
 -0.7473  -0.7276  -0.7056  -0.6924  -0.6899  -0.6792  -0.6725  -0.6643
 -0.6592  -0.6518  -0.6408  -0.6398  -0.6296  -0.6152  -0.5989  -0.5938
 -0.5837  -0.5767  -0.5666  -0.5642  -0.5602  -0.5592  -0.5548  -0.5506
 -0.5394  -0.5330  -0.5184  -0.5124  -0.4821  -0.4784  -0.4672  -0.4604
 -0.4554  -0.4398  -0.4263  -0.4208  -0.4098  -0.3634  -0.3388  -0.3043
 -0.2532

          Ground-State Mulliken Net Atomic Charges

     Atom                 Charge (a.u.)
  ----------------------------------------
      1 C                    -0.160744
      2 C                    -0.103477
      3 C                    -0.022388
      4 C                    -0.012202
      5 H                     0.187726
      6 C                    -0.013167
      7 C                     0.089735
      8 C                     0.002015
      9 C                    -0.142988
     10 C                    -0.156003
     11 C                     0.140421
     12 H                     0.180320
     13 C                     0.361274
     14 C                     0.364601
     15 N                    -0.101654
     16 C                     0.362341
     17 C                     0.451248
     18 N                    -0.082089
     19 O                    -0.462105
     20 O                    -0.473060
     21 O                    -0.476853
     22 O                    -0.371688
     23 C                    -0.201105
     24 H                     0.141044
     25 H                     0.112447
     26 H                     0.112719
     27 C                    -0.198298
     28 H                     0.138159
     29 H                     0.116216
     30 H                     0.114975
     31 H                     0.211261
     32 C                    -0.171536
     33 S                     0.133367
     34 C                    -0.214426
     35 C                    -0.179617
     36 C                    -0.247919
     37 H                     0.186398
     38 H                     0.185146
     39 H                     0.199907
  ----------------------------------------
  Sum of atomic charges =     0.000000

                    Cartesian Multipole Moments
 -----------------------------------------------------------------
    Charge (ESU x 10^10)
                 0.0000
    Dipole Moment (Debye)
         X       3.2720      Y      -0.7003      Z       1.8047
       Tot       3.8018
    Quadrupole Moments (Debye-Ang)
        XX    -162.1685     XY       2.5036     YY    -178.7127
        XZ      -3.6852     YZ      -1.6414     ZZ    -164.1841

 Total job time:  280.63s(wall), 8822.89s(cpu)
        *  Thank you very much for using Q-Chem.  Have a nice day.  *
