 Q-Chem 5.4, Q-Chem, Inc., Pleasanton, CA (2021)
 Q-Chem 5.4.0 for Intel X86 EM64T Linux

User input:
--------------------------------------------------------------
$molecule
0 1
C	-0.197767	-6.741404	-0.164018
C	-1.198109	-6.155638	-1.003240
C	0.632428	-5.791452	0.533192
C	-1.411364	-4.803786	-1.182482
H	-1.870845	-6.821518	-1.567483
C	0.409419	-4.378638	0.345145
C	-0.609565	-3.838032	-0.510347
C	1.210332	-3.413062	1.016449
C	-0.830799	-2.426473	-0.696879
C	0.999856	-2.059348	0.839039
C	-0.000000	-1.478216	-0.000000
H	1.673483	-1.394783	1.403737
C	1.736282	-6.187987	1.461835
C	2.306183	-3.798164	1.936119
N	2.491597	-5.170003	2.093916
C	-2.510310	-4.424987	-2.104529
C	-1.936153	-2.036627	-1.625377
N	-2.691451	-3.049156	-2.257873
O	2.034222	-7.353131	1.715561
O	3.014044	-2.986854	2.528858
O	-3.209622	-5.248946	-2.690385
O	-2.251529	-0.878829	-1.891876
C	3.573032	-5.563799	3.002711
H	3.606932	-6.664085	3.032655
H	3.382888	-5.147101	4.010326
H	4.533125	-5.148785	2.640711
C	-3.756832	-2.587487	-3.152408
H	-4.249778	-3.483329	-3.564653
H	-3.328759	-1.964972	-3.960905
H	-4.477709	-1.962932	-2.591422
H	-0.055524	-7.822318	-0.044245
C	0.000000	0.000000	0.000000
S	0.686805	0.396760	1.580530
C	2.105095	1.215640	0.904911
C	0.864201	0.499140	-0.985400
C	2.007514	1.159347	-0.493528
H	0.660136	0.381296	-2.059934
H	2.770388	1.599875	-1.152593
H	2.867745	1.656053	1.556025
$end

$rem
JOBTYPE		SP
EXCHANGE	HF
CORRELATION	pRIMP2
BASIS		cc-pvtz
METHOD		rimp2
AUX_BASIS	rimp2-cc-pvtz
SOLVENT_METHOD	PCM
PURECART	11111
SYMMETRY	false
MEM_TOTAL	110000
SCF_CONVERGENCE = 6
THRESH=10
GUI = 2
$end

$solvent
dielectric 4.90
$end
--------------------------------------------------------------

             Standard Nuclear Orientation (Angstroms)
    I     Atom           X                Y                Z
 ----------------------------------------------------------------
    1      C      -0.1977670000    -6.7414040000    -0.1640180000
    2      C      -1.1981090000    -6.1556380000    -1.0032400000
    3      C       0.6324280000    -5.7914520000     0.5331920000
    4      C      -1.4113640000    -4.8037860000    -1.1824820000
    5      H      -1.8708450000    -6.8215180000    -1.5674830000
    6      C       0.4094190000    -4.3786380000     0.3451450000
    7      C      -0.6095650000    -3.8380320000    -0.5103470000
    8      C       1.2103320000    -3.4130620000     1.0164490000
    9      C      -0.8307990000    -2.4264730000    -0.6968790000
   10      C       0.9998560000    -2.0593480000     0.8390390000
   11      C       0.0000000000    -1.4782160000     0.0000000000
   12      H       1.6734830000    -1.3947830000     1.4037370000
   13      C       1.7362820000    -6.1879870000     1.4618350000
   14      C       2.3061830000    -3.7981640000     1.9361190000
   15      N       2.4915970000    -5.1700030000     2.0939160000
   16      C      -2.5103100000    -4.4249870000    -2.1045290000
   17      C      -1.9361530000    -2.0366270000    -1.6253770000
   18      N      -2.6914510000    -3.0491560000    -2.2578730000
   19      O       2.0342220000    -7.3531310000     1.7155610000
   20      O       3.0140440000    -2.9868540000     2.5288580000
   21      O      -3.2096220000    -5.2489460000    -2.6903850000
   22      O      -2.2515290000    -0.8788290000    -1.8918760000
   23      C       3.5730320000    -5.5637990000     3.0027110000
   24      H       3.6069320000    -6.6640850000     3.0326550000
   25      H       3.3828880000    -5.1471010000     4.0103260000
   26      H       4.5331250000    -5.1487850000     2.6407110000
   27      C      -3.7568320000    -2.5874870000    -3.1524080000
   28      H      -4.2497780000    -3.4833290000    -3.5646530000
   29      H      -3.3287590000    -1.9649720000    -3.9609050000
   30      H      -4.4777090000    -1.9629320000    -2.5914220000
   31      H      -0.0555240000    -7.8223180000    -0.0442450000
   32      C       0.0000000000     0.0000000000     0.0000000000
   33      S       0.6868050000     0.3967600000     1.5805300000
   34      C       2.1050950000     1.2156400000     0.9049110000
   35      C       0.8642010000     0.4991400000    -0.9854000000
   36      C       2.0075140000     1.1593470000    -0.4935280000
   37      H       0.6601360000     0.3812960000    -2.0599340000
   38      H       2.7703880000     1.5998750000    -1.1525930000
   39      H       2.8677450000     1.6560530000     1.5560250000
 ----------------------------------------------------------------

   11   -1570.6107012755      4.43e-07  Convergence criterion met
 Total energy in the final basis set =    -1570.6107012755
        RIMP2         total energy =     -1575.2537841815 a.u.

                    Orbital Energies (a.u.)
 --------------------------------------------------------------

 Alpha MOs
 -- Occupied --
-91.9908 -20.5572 -20.5550 -20.5517 -20.5516 -15.6298 -15.6274 -11.3983
-11.3915 -11.3891 -11.3888 -11.3176 -11.3094 -11.2993 -11.2957 -11.2915
-11.2909 -11.2903 -11.2841 -11.2812 -11.2804 -11.2763 -11.2752 -11.2669
-11.2640 -11.2628 -11.2583  -8.9924  -6.6729  -6.6722  -6.6720  -1.4235
 -1.4203  -1.4029  -1.3994  -1.2656  -1.2621  -1.2186  -1.1929  -1.1395
 -1.1127  -1.0630  -1.0462  -1.0014  -0.9935  -0.9901  -0.9569  -0.9439
 -0.8944  -0.8763  -0.8736  -0.8557  -0.7978  -0.7793  -0.7709  -0.7655
 -0.7354  -0.7188  -0.7064  -0.6934  -0.6803  -0.6735  -0.6643  -0.6600
 -0.6542  -0.6450  -0.6350  -0.6308  -0.6263  -0.6113  -0.5912  -0.5827
 -0.5813  -0.5799  -0.5674  -0.5621  -0.5601  -0.5552  -0.5520  -0.5472
 -0.5434  -0.5253  -0.5174  -0.4862  -0.4812  -0.4732  -0.4648  -0.4611
 -0.4581  -0.4505  -0.4257  -0.4167  -0.4061  -0.3737  -0.3467  -0.3300
 -0.3090

          Ground-State Mulliken Net Atomic Charges

     Atom                 Charge (a.u.)
  ----------------------------------------
      1 C                    -0.148333
      2 C                    -0.111828
      3 C                    -0.028444
      4 C                     0.000184
      5 H                     0.187070
      6 C                    -0.009998
      7 C                     0.066541
      8 C                     0.035016
      9 C                    -0.065822
     10 C                    -0.178236
     11 C                     0.073331
     12 H                     0.185674
     13 C                     0.357682
     14 C                     0.361044
     15 N                    -0.100430
     16 C                     0.355399
     17 C                     0.364877
     18 N                    -0.095310
     19 O                    -0.465935
     20 O                    -0.481366
     21 O                    -0.484802
     22 O                    -0.470470
     23 C                    -0.201792
     24 H                     0.141005
     25 H                     0.111941
     26 H                     0.111530
     27 C                    -0.198002
     28 H                     0.132999
     29 H                     0.111381
     30 H                     0.112739
     31 H                     0.211597
     32 C                    -0.103541
     33 S                     0.032793
     34 C                    -0.136519
     35 C                    -0.053640
     36 C                    -0.235534
     37 H                     0.202537
     38 H                     0.195174
     39 H                     0.219491
  ----------------------------------------
  Sum of atomic charges =     0.000000

                    Cartesian Multipole Moments
 -----------------------------------------------------------------
    Charge (ESU x 10^10)
                 0.0000
    Dipole Moment (Debye)
         X       3.4426      Y       2.1345      Z      -0.5825
       Tot       4.0923
    Quadrupole Moments (Debye-Ang)
        XX    -167.1258     XY       5.8345     YY    -181.1029
        XZ      -9.9484     YZ       0.0319     ZZ    -165.4891

 Total job time:  268.05s(wall), 8222.32s(cpu)
        *  Thank you very much for using Q-Chem.  Have a nice day.  *
