 Q-Chem 5.4, Q-Chem, Inc., Pleasanton, CA (2021)
 Q-Chem 5.4.0 for Intel X86 EM64T Linux

User input:
--------------------------------------------------------------
$molecule
0 1
C	0.046070	-6.741404	0.252767
C	0.272935	-6.155638	1.538656
C	-0.141739	-5.791452	-0.814966
C	0.321083	-4.803786	1.813042
H	0.425592	-6.821518	2.403318
C	-0.091779	-4.378638	-0.527566
C	0.138909	-3.838032	0.782769
C	-0.273808	-3.413062	-1.556632
C	0.188483	-2.426473	1.067868
C	-0.226610	-2.059348	-1.285436
C	0.000000	-1.478216	0.000000
H	-0.379657	-1.394783	-2.151019
C	-0.390420	-6.187987	-2.235891
C	-0.522125	-3.798164	-2.965540
N	-0.562731	-5.170003	-3.205600
C	0.570244	-4.424987	3.225760
C	0.438407	-2.036627	2.489646
N	0.610438	-3.049156	3.459662
O	-0.455563	-7.353131	-2.621768
O	-0.683373	-2.986854	-3.874608
O	0.729367	-5.248946	4.124059
O	0.508697	-0.878829	2.896516
C	-0.806996	-5.563799	-4.596910
H	-0.813717	-6.664085	-4.641640
H	-0.013655	-5.147101	-5.246567
H	-1.775159	-5.148785	-4.936739
C	0.851572	-2.587487	4.829729
H	0.964204	-3.483329	5.462387
H	0.003956	-1.964972	5.173914
H	1.764390	-1.962932	4.863360
H	0.014094	-7.822318	0.069584
C	0.000000	0.000000	0.000000
S	0.509686	0.607733	1.580530
C	1.562368	1.862312	0.904911
C	0.641367	0.764613	-0.985400
C	1.489926	1.776040	-0.493528
H	0.489914	0.584081	-2.059934
H	2.056124	2.450920	-1.152593
H	2.128395	2.537007	1.556025
$end

$rem
JOBTYPE		SP
EXCHANGE	HF
CORRELATION	pRIMP2
BASIS		cc-pvtz
METHOD		rimp2
AUX_BASIS	rimp2-cc-pvtz
SOLVENT_METHOD	PCM
PURECART	11111
SYMMETRY	false
MEM_TOTAL	110000
SCF_CONVERGENCE = 6
THRESH=10
GUI = 2
$end

$solvent
dielectric 4.90
$end
--------------------------------------------------------------

             Standard Nuclear Orientation (Angstroms)
    I     Atom           X                Y                Z
 ----------------------------------------------------------------
    1      C       0.0460700000    -6.7414040000     0.2527670000
    2      C       0.2729350000    -6.1556380000     1.5386560000
    3      C      -0.1417390000    -5.7914520000    -0.8149660000
    4      C       0.3210830000    -4.8037860000     1.8130420000
    5      H       0.4255920000    -6.8215180000     2.4033180000
    6      C      -0.0917790000    -4.3786380000    -0.5275660000
    7      C       0.1389090000    -3.8380320000     0.7827690000
    8      C      -0.2738080000    -3.4130620000    -1.5566320000
    9      C       0.1884830000    -2.4264730000     1.0678680000
   10      C      -0.2266100000    -2.0593480000    -1.2854360000
   11      C       0.0000000000    -1.4782160000     0.0000000000
   12      H      -0.3796570000    -1.3947830000    -2.1510190000
   13      C      -0.3904200000    -6.1879870000    -2.2358910000
   14      C      -0.5221250000    -3.7981640000    -2.9655400000
   15      N      -0.5627310000    -5.1700030000    -3.2056000000
   16      C       0.5702440000    -4.4249870000     3.2257600000
   17      C       0.4384070000    -2.0366270000     2.4896460000
   18      N       0.6104380000    -3.0491560000     3.4596620000
   19      O      -0.4555630000    -7.3531310000    -2.6217680000
   20      O      -0.6833730000    -2.9868540000    -3.8746080000
   21      O       0.7293670000    -5.2489460000     4.1240590000
   22      O       0.5086970000    -0.8788290000     2.8965160000
   23      C      -0.8069960000    -5.5637990000    -4.5969100000
   24      H      -0.8137170000    -6.6640850000    -4.6416400000
   25      H      -0.0136550000    -5.1471010000    -5.2465670000
   26      H      -1.7751590000    -5.1487850000    -4.9367390000
   27      C       0.8515720000    -2.5874870000     4.8297290000
   28      H       0.9642040000    -3.4833290000     5.4623870000
   29      H       0.0039560000    -1.9649720000     5.1739140000
   30      H       1.7643900000    -1.9629320000     4.8633600000
   31      H       0.0140940000    -7.8223180000     0.0695840000
   32      C       0.0000000000     0.0000000000     0.0000000000
   33      S       0.5096860000     0.6077330000     1.5805300000
   34      C       1.5623680000     1.8623120000     0.9049110000
   35      C       0.6413670000     0.7646130000    -0.9854000000
   36      C       1.4899260000     1.7760400000    -0.4935280000
   37      H       0.4899140000     0.5840810000    -2.0599340000
   38      H       2.0561240000     2.4509200000    -1.1525930000
   39      H       2.1283950000     2.5370070000     1.5560250000
 ----------------------------------------------------------------

   11   -1570.5762722639      6.52e-07  Convergence criterion met
 Total energy in the final basis set =    -1570.5762722639
        RIMP2         total energy =     -1575.2315363231 a.u.

                    Orbital Energies (a.u.)
 --------------------------------------------------------------

 Alpha MOs
 -- Occupied --
-91.9823 -20.5653 -20.5588 -20.5567 -20.5538 -15.6345 -15.6313 -11.4046
-11.3998 -11.3917 -11.3909 -11.3232 -11.3017 -11.3005 -11.2929 -11.2920
-11.2900 -11.2873 -11.2809 -11.2779 -11.2773 -11.2757 -11.2712 -11.2669
-11.2646 -11.2614 -11.2386  -8.9819  -6.6624  -6.6603  -6.6590  -1.4472
 -1.4250  -1.4098  -1.4044  -1.2734  -1.2666  -1.2163  -1.1747  -1.1405
 -1.1153  -1.0599  -1.0487  -0.9936  -0.9931  -0.9825  -0.9598  -0.9460
 -0.8991  -0.8804  -0.8763  -0.8639  -0.7924  -0.7824  -0.7779  -0.7589
 -0.7378  -0.7301  -0.7024  -0.6929  -0.6892  -0.6741  -0.6710  -0.6637
 -0.6577  -0.6427  -0.6385  -0.6367  -0.6263  -0.6150  -0.5890  -0.5836
 -0.5816  -0.5782  -0.5715  -0.5651  -0.5617  -0.5577  -0.5567  -0.5496
 -0.5336  -0.5289  -0.5224  -0.5158  -0.4880  -0.4733  -0.4649  -0.4620
 -0.4564  -0.4353  -0.4209  -0.4094  -0.3880  -0.3736  -0.3382  -0.3044
 -0.2935

          Ground-State Mulliken Net Atomic Charges

     Atom                 Charge (a.u.)
  ----------------------------------------
      1 C                    -0.158512
      2 C                    -0.110067
      3 C                    -0.022935
      4 C                    -0.007479
      5 H                     0.187189
      6 C                    -0.006658
      7 C                     0.086789
      8 C                     0.002867
      9 C                    -0.133248
     10 C                    -0.134206
     11 C                     0.085864
     12 H                     0.182070
     13 C                     0.359980
     14 C                     0.362754
     15 N                    -0.101714
     16 C                     0.358403
     17 C                     0.400619
     18 N                    -0.089466
     19 O                    -0.463221
     20 O                    -0.476586
     21 O                    -0.483199
     22 O                    -0.404602
     23 C                    -0.201252
     24 H                     0.141216
     25 H                     0.112251
     26 H                     0.112366
     27 C                    -0.199871
     28 H                     0.135916
     29 H                     0.114006
     30 H                     0.113689
     31 H                     0.211083
     32 C                    -0.060176
     33 S                     0.118805
     34 C                    -0.221395
     35 C                    -0.135796
     36 C                    -0.251515
     37 H                     0.189345
     38 H                     0.182403
     39 H                     0.204284
  ----------------------------------------
  Sum of atomic charges =     0.000000

                    Cartesian Multipole Moments
 -----------------------------------------------------------------
    Charge (ESU x 10^10)
                 0.0000
    Dipole Moment (Debye)
         X       1.4677      Y       1.1236      Z       0.5113
       Tot       1.9178
    Quadrupole Moments (Debye-Ang)
        XX    -160.5906     XY       4.6021     YY    -178.0880
        XZ      -1.6335     YZ       0.2446     ZZ    -173.5831

 Total job time:  275.34s(wall), 8484.18s(cpu)
        *  Thank you very much for using Q-Chem.  Have a nice day.  *
