 Q-Chem 5.4, Q-Chem, Inc., Pleasanton, CA (2021)
 Q-Chem 5.4.0 for Intel X86 EM64T Linux

User input:
--------------------------------------------------------------
$molecule
0 1
C	-0.089263	-6.741404	-0.240927
C	-0.535973	-6.155638	-1.467886
C	0.281103	-5.791452	0.777972
C	-0.631036	-4.803786	-1.729742
H	-0.836458	-6.821518	-2.292903
C	0.181995	-4.378638	0.503614
C	-0.272725	-3.838032	-0.746756
C	0.539954	-3.413062	1.485437
C	-0.371053	-2.426473	-1.018915
C	0.446381	-2.059348	1.226557
C	-0.000000	-1.478216	-0.000000
H	0.747410	-1.394783	2.052413
C	0.772747	-6.187987	2.134128
C	1.029154	-3.798164	2.829820
N	1.110828	-5.170003	3.059182
C	-1.121728	-4.424987	-3.077731
C	-0.864069	-2.036627	-2.375694
N	-1.201928	-3.049156	-3.301101
O	0.903908	-7.353131	2.502830
O	1.345809	-2.986854	3.697078
O	-1.434422	-5.248946	-3.934752
O	-1.003943	-0.878829	-2.764177
C	1.592981	-5.563799	4.386939
H	1.607367	-6.664085	4.429822
H	0.924504	-5.147101	5.164489
H	2.605446	-5.148785	4.553486
C	-1.677308	-2.587487	-4.608481
H	-1.898089	-3.483329	-5.211969
H	-0.902337	-1.964972	-5.094624
H	-2.582098	-1.962932	-4.483092
H	-0.025963	-7.822318	-0.066080
C	0.000000	0.000000	0.000000
S	0.335026	0.718942	1.580530
C	1.027130	2.203226	0.904911
C	0.421617	0.904557	-0.985400
C	0.979485	2.101144	-0.493528
H	0.322049	0.690978	-2.059934
H	1.351718	2.899571	-1.152593
H	1.399246	3.001430	1.556025
$end

$rem
JOBTYPE		SP
EXCHANGE	HF
CORRELATION	pRIMP2
BASIS		cc-pvtz
METHOD		rimp2
AUX_BASIS	rimp2-cc-pvtz
SOLVENT_METHOD	PCM
PURECART	11111
SYMMETRY	false
MEM_TOTAL	110000
SCF_CONVERGENCE = 6
THRESH=10
GUI = 2
$end

$solvent
dielectric 4.90
$end
--------------------------------------------------------------

             Standard Nuclear Orientation (Angstroms)
    I     Atom           X                Y                Z
 ----------------------------------------------------------------
    1      C      -0.0892630000    -6.7414040000    -0.2409270000
    2      C      -0.5359730000    -6.1556380000    -1.4678860000
    3      C       0.2811030000    -5.7914520000     0.7779720000
    4      C      -0.6310360000    -4.8037860000    -1.7297420000
    5      H      -0.8364580000    -6.8215180000    -2.2929030000
    6      C       0.1819950000    -4.3786380000     0.5036140000
    7      C      -0.2727250000    -3.8380320000    -0.7467560000
    8      C       0.5399540000    -3.4130620000     1.4854370000
    9      C      -0.3710530000    -2.4264730000    -1.0189150000
   10      C       0.4463810000    -2.0593480000     1.2265570000
   11      C       0.0000000000    -1.4782160000     0.0000000000
   12      H       0.7474100000    -1.3947830000     2.0524130000
   13      C       0.7727470000    -6.1879870000     2.1341280000
   14      C       1.0291540000    -3.7981640000     2.8298200000
   15      N       1.1108280000    -5.1700030000     3.0591820000
   16      C      -1.1217280000    -4.4249870000    -3.0777310000
   17      C      -0.8640690000    -2.0366270000    -2.3756940000
   18      N      -1.2019280000    -3.0491560000    -3.3011010000
   19      O       0.9039080000    -7.3531310000     2.5028300000
   20      O       1.3458090000    -2.9868540000     3.6970780000
   21      O      -1.4344220000    -5.2489460000    -3.9347520000
   22      O      -1.0039430000    -0.8788290000    -2.7641770000
   23      C       1.5929810000    -5.5637990000     4.3869390000
   24      H       1.6073670000    -6.6640850000     4.4298220000
   25      H       0.9245040000    -5.1471010000     5.1644890000
   26      H       2.6054460000    -5.1487850000     4.5534860000
   27      C      -1.6773080000    -2.5874870000    -4.6084810000
   28      H      -1.8980890000    -3.4833290000    -5.2119690000
   29      H      -0.9023370000    -1.9649720000    -5.0946240000
   30      H      -2.5820980000    -1.9629320000    -4.4830920000
   31      H      -0.0259630000    -7.8223180000    -0.0660800000
   32      C       0.0000000000     0.0000000000     0.0000000000
   33      S       0.3350260000     0.7189420000     1.5805300000
   34      C       1.0271300000     2.2032260000     0.9049110000
   35      C       0.4216170000     0.9045570000    -0.9854000000
   36      C       0.9794850000     2.1011440000    -0.4935280000
   37      H       0.3220490000     0.6909780000    -2.0599340000
   38      H       1.3517180000     2.8995710000    -1.1525930000
   39      H       1.3992460000     3.0014300000     1.5560250000
 ----------------------------------------------------------------

   10   -1570.6762508500      8.14e-07  Convergence criterion met
 Total energy in the final basis set =    -1570.6762508500
        RIMP2         total energy =     -1575.3060490133 a.u.

                    Orbital Energies (a.u.)
 --------------------------------------------------------------

 Alpha MOs
 -- Occupied --
-91.9927 -20.5582 -20.5562 -20.5548 -20.5531 -15.6309 -15.6297 -11.3995
-11.3952 -11.3908 -11.3903 -11.3190 -11.3016 -11.2993 -11.2968 -11.2943
-11.2937 -11.2937 -11.2899 -11.2862 -11.2827 -11.2786 -11.2746 -11.2644
-11.2643 -11.2620 -11.2517  -8.9930  -6.6737  -6.6732  -6.6726  -1.4246
 -1.4236  -1.4039  -1.4025  -1.2669  -1.2644  -1.2165  -1.1802  -1.1433
 -1.1155  -1.0635  -1.0486  -0.9922  -0.9911  -0.9892  -0.9583  -0.9467
 -0.8965  -0.8782  -0.8778  -0.8601  -0.7966  -0.7799  -0.7723  -0.7626
 -0.7354  -0.7191  -0.7040  -0.6946  -0.6810  -0.6737  -0.6659  -0.6617
 -0.6556  -0.6414  -0.6362  -0.6327  -0.6276  -0.6127  -0.5897  -0.5840
 -0.5803  -0.5731  -0.5668  -0.5629  -0.5621  -0.5559  -0.5527  -0.5474
 -0.5392  -0.5257  -0.5235  -0.5109  -0.4824  -0.4678  -0.4663  -0.4613
 -0.4592  -0.4521  -0.4281  -0.4183  -0.4091  -0.3753  -0.3552  -0.3358
 -0.3011

          Ground-State Mulliken Net Atomic Charges

     Atom                 Charge (a.u.)
  ----------------------------------------
      1 C                    -0.145138
      2 C                    -0.109931
      3 C                    -0.029245
      4 C                    -0.005546
      5 H                     0.188010
      6 C                    -0.002074
      7 C                     0.074709
      8 C                     0.049332
      9 C                    -0.072526
     10 C                    -0.173713
     11 C                     0.047264
     12 H                     0.176701
     13 C                     0.358138
     14 C                     0.362436
     15 N                    -0.101531
     16 C                     0.358519
     17 C                     0.371764
     18 N                    -0.094276
     19 O                    -0.464501
     20 O                    -0.477087
     21 O                    -0.483608
     22 O                    -0.479251
     23 C                    -0.201293
     24 H                     0.141026
     25 H                     0.112504
     26 H                     0.112309
     27 C                    -0.197555
     28 H                     0.134022
     29 H                     0.111882
     30 H                     0.112873
     31 H                     0.212543
     32 C                    -0.015961
     33 S                     0.009344
     34 C                    -0.159403
     35 C                    -0.097740
     36 C                    -0.247187
     37 H                     0.213945
     38 H                     0.192461
     39 H                     0.217785
  ----------------------------------------
  Sum of atomic charges =     0.000000

                    Cartesian Multipole Moments
 -----------------------------------------------------------------
    Charge (ESU x 10^10)
                 0.0000
    Dipole Moment (Debye)
         X       1.2847      Y       2.2353      Z      -0.6417
       Tot       2.6569
    Quadrupole Moments (Debye-Ang)
        XX    -164.2717     XY       4.4731     YY    -170.4553
        XZ      -6.4509     YZ       0.5294     ZZ    -175.9228

 Total job time:  254.13s(wall), 7927.97s(cpu)
        *  Thank you very much for using Q-Chem.  Have a nice day.  *
