 Q-Chem 5.4, Q-Chem, Inc., Pleasanton, CA (2021)
 Q-Chem 5.4.0 for Intel X86 EM64T Linux

User input:
--------------------------------------------------------------
$molecule
0 1
C	0.089263	-6.741404	0.240927
C	0.535973	-6.155638	1.467886
C	-0.281103	-5.791452	-0.777972
C	0.631036	-4.803786	1.729742
H	0.836458	-6.821518	2.292903
C	-0.181995	-4.378638	-0.503614
C	0.272725	-3.838032	0.746756
C	-0.539954	-3.413062	-1.485437
C	0.371053	-2.426473	1.018915
C	-0.446381	-2.059348	-1.226557
C	0.000000	-1.478216	0.000000
H	-0.747410	-1.394783	-2.052413
C	-0.772747	-6.187987	-2.134128
C	-1.029154	-3.798164	-2.829820
N	-1.110828	-5.170003	-3.059182
C	1.121728	-4.424987	3.077731
C	0.864069	-2.036627	2.375694
N	1.201928	-3.049156	3.301101
O	-0.903908	-7.353131	-2.502830
O	-1.345809	-2.986854	-3.697078
O	1.434422	-5.248946	3.934752
O	1.003943	-0.878829	2.764177
C	-1.592981	-5.563799	-4.386939
H	-1.607367	-6.664085	-4.429822
H	-0.924504	-5.147101	-5.164489
H	-2.605446	-5.148785	-4.553486
C	1.677308	-2.587487	4.608481
H	1.898089	-3.483329	5.211969
H	0.902337	-1.964972	5.094624
H	2.582098	-1.962932	4.483092
H	0.025963	-7.822318	0.066080
C	0.000000	0.000000	0.000000
S	0.509686	0.607733	1.580530
C	1.562368	1.862312	0.904911
C	0.641367	0.764613	-0.985400
C	1.489926	1.776040	-0.493528
H	0.489914	0.584081	-2.059934
H	2.056124	2.450920	-1.152593
H	2.128395	2.537007	1.556025
$end

$rem
JOBTYPE		SP
EXCHANGE	HF
CORRELATION	pRIMP2
BASIS		cc-pvtz
METHOD		rimp2
AUX_BASIS	rimp2-cc-pvtz
SOLVENT_METHOD	PCM
PURECART	11111
SYMMETRY	false
MEM_TOTAL	110000
SCF_CONVERGENCE = 6
THRESH=10
GUI = 2
$end

$solvent
dielectric 4.90
$end
--------------------------------------------------------------

             Standard Nuclear Orientation (Angstroms)
    I     Atom           X                Y                Z
 ----------------------------------------------------------------
    1      C       0.0892630000    -6.7414040000     0.2409270000
    2      C       0.5359730000    -6.1556380000     1.4678860000
    3      C      -0.2811030000    -5.7914520000    -0.7779720000
    4      C       0.6310360000    -4.8037860000     1.7297420000
    5      H       0.8364580000    -6.8215180000     2.2929030000
    6      C      -0.1819950000    -4.3786380000    -0.5036140000
    7      C       0.2727250000    -3.8380320000     0.7467560000
    8      C      -0.5399540000    -3.4130620000    -1.4854370000
    9      C       0.3710530000    -2.4264730000     1.0189150000
   10      C      -0.4463810000    -2.0593480000    -1.2265570000
   11      C       0.0000000000    -1.4782160000     0.0000000000
   12      H      -0.7474100000    -1.3947830000    -2.0524130000
   13      C      -0.7727470000    -6.1879870000    -2.1341280000
   14      C      -1.0291540000    -3.7981640000    -2.8298200000
   15      N      -1.1108280000    -5.1700030000    -3.0591820000
   16      C       1.1217280000    -4.4249870000     3.0777310000
   17      C       0.8640690000    -2.0366270000     2.3756940000
   18      N       1.2019280000    -3.0491560000     3.3011010000
   19      O      -0.9039080000    -7.3531310000    -2.5028300000
   20      O      -1.3458090000    -2.9868540000    -3.6970780000
   21      O       1.4344220000    -5.2489460000     3.9347520000
   22      O       1.0039430000    -0.8788290000     2.7641770000
   23      C      -1.5929810000    -5.5637990000    -4.3869390000
   24      H      -1.6073670000    -6.6640850000    -4.4298220000
   25      H      -0.9245040000    -5.1471010000    -5.1644890000
   26      H      -2.6054460000    -5.1487850000    -4.5534860000
   27      C       1.6773080000    -2.5874870000     4.6084810000
   28      H       1.8980890000    -3.4833290000     5.2119690000
   29      H       0.9023370000    -1.9649720000     5.0946240000
   30      H       2.5820980000    -1.9629320000     4.4830920000
   31      H       0.0259630000    -7.8223180000     0.0660800000
   32      C       0.0000000000     0.0000000000     0.0000000000
   33      S       0.5096860000     0.6077330000     1.5805300000
   34      C       1.5623680000     1.8623120000     0.9049110000
   35      C       0.6413670000     0.7646130000    -0.9854000000
   36      C       1.4899260000     1.7760400000    -0.4935280000
   37      H       0.4899140000     0.5840810000    -2.0599340000
   38      H       2.0561240000     2.4509200000    -1.1525930000
   39      H       2.1283950000     2.5370070000     1.5560250000
 ----------------------------------------------------------------

   11   -1570.5628671664      7.06e-07  Convergence criterion met
 Total energy in the final basis set =    -1570.5628671664
        RIMP2         total energy =     -1575.2232310163 a.u.

                    Orbital Energies (a.u.)
 --------------------------------------------------------------

 Alpha MOs
 -- Occupied --
-91.9943 -20.5684 -20.5591 -20.5568 -20.5554 -15.6372 -15.6314 -11.4100
-11.4000 -11.3932 -11.3909 -11.3230 -11.3023 -11.3011 -11.2933 -11.2923
-11.2902 -11.2877 -11.2813 -11.2785 -11.2751 -11.2721 -11.2717 -11.2682
-11.2646 -11.2521 -11.2346  -8.9931  -6.6736  -6.6717  -6.6703  -1.4522
 -1.4251  -1.4116  -1.4045  -1.2761  -1.2667  -1.2165  -1.1731  -1.1403
 -1.1158  -1.0596  -1.0492  -0.9947  -0.9935  -0.9816  -0.9605  -0.9461
 -0.9004  -0.8811  -0.8760  -0.8644  -0.7927  -0.7830  -0.7787  -0.7569
 -0.7399  -0.7301  -0.7027  -0.6929  -0.6885  -0.6745  -0.6725  -0.6640
 -0.6583  -0.6435  -0.6393  -0.6376  -0.6273  -0.6153  -0.5897  -0.5848
 -0.5825  -0.5777  -0.5694  -0.5652  -0.5592  -0.5578  -0.5576  -0.5501
 -0.5351  -0.5294  -0.5222  -0.5168  -0.4855  -0.4724  -0.4677  -0.4630
 -0.4566  -0.4376  -0.4214  -0.4098  -0.4030  -0.3722  -0.3384  -0.2960
 -0.2824

          Ground-State Mulliken Net Atomic Charges

     Atom                 Charge (a.u.)
  ----------------------------------------
      1 C                    -0.159204
      2 C                    -0.107780
      3 C                    -0.023288
      4 C                    -0.010190
      5 H                     0.187438
      6 C                    -0.009583
      7 C                     0.091698
      8 C                     0.000917
      9 C                    -0.144416
     10 C                    -0.142434
     11 C                     0.099446
     12 H                     0.181862
     13 C                     0.360394
     14 C                     0.363560
     15 N                    -0.101801
     16 C                     0.359906
     17 C                     0.421083
     18 N                    -0.089473
     19 O                    -0.462956
     20 O                    -0.475445
     21 O                    -0.481052
     22 O                    -0.399950
     23 C                    -0.201150
     24 H                     0.141111
     25 H                     0.112382
     26 H                     0.112484
     27 C                    -0.199904
     28 H                     0.136452
     29 H                     0.114722
     30 H                     0.114275
     31 H                     0.211177
     32 C                    -0.089695
     33 S                     0.153118
     34 C                    -0.231994
     35 C                    -0.147996
     36 C                    -0.259352
     37 H                     0.187176
     38 H                     0.183497
     39 H                     0.204962
  ----------------------------------------
  Sum of atomic charges =     0.000000

                    Cartesian Multipole Moments
 -----------------------------------------------------------------
    Charge (ESU x 10^10)
                -0.0000
    Dipole Moment (Debye)
         X       1.7323      Y       0.5793      Z       1.1781
       Tot       2.1736
    Quadrupole Moments (Debye-Ang)
        XX    -162.0811     XY       4.2617     YY    -177.5366
        XZ      -3.3689     YZ      -0.1133     ZZ    -170.8038

 Total job time:  274.28s(wall), 8399.87s(cpu)
        *  Thank you very much for using Q-Chem.  Have a nice day.  *
