 Q-Chem 5.4, Q-Chem, Inc., Pleasanton, CA (2021)
 Q-Chem 5.4.0 for Intel X86 EM64T Linux

User input:
--------------------------------------------------------------
$molecule
0 1
C	-0.195868	-6.741404	0.166281
C	-1.196048	-6.155638	1.005696
C	0.634911	-5.791452	-0.530233
C	-1.409599	-4.803786	1.184587
H	-1.868538	-6.821518	1.570232
C	0.410996	-4.378638	-0.343266
C	-0.608444	-3.838032	0.511683
C	1.211179	-3.413062	-1.015440
C	-0.830559	-2.426473	0.697165
C	0.999915	-2.059348	-0.838968
C	-0.000000	-1.478216	-0.000000
H	1.673009	-1.394783	-1.404302
C	1.741129	-6.187987	-1.456059
C	2.307170	-3.798164	-1.934944
N	2.494766	-5.170003	-2.090139
C	-2.508468	-4.424987	2.106725
C	-1.936893	-2.036627	1.624494
N	-2.690936	-3.049156	2.258486
O	2.042736	-7.353131	-1.705414
O	3.013823	-2.986854	-2.529122
O	-3.206857	-5.248946	2.693680
O	-2.254108	-0.878829	1.888802
C	3.577543	-5.563799	-2.997334
H	3.612920	-6.664085	-3.025519
H	4.536833	-5.147101	-2.635109
H	3.387762	-5.148785	-4.005702
C	-3.756883	-2.587487	3.152347
H	-4.248464	-3.483329	3.566218
H	-4.478763	-1.964972	2.590383
H	-3.329599	-1.962932	3.959687
H	-0.053215	-7.822318	0.046998
C	0.000000	0.000000	0.000000
S	0.686805	0.396760	1.580530
C	2.105095	1.215640	0.904911
C	0.864201	0.499140	-0.985400
C	2.007514	1.159347	-0.493528
H	0.660136	0.381296	-2.059934
H	2.770388	1.599875	-1.152593
H	2.867745	1.656053	1.556025
$end

$rem
JOBTYPE		SP
EXCHANGE	HF
CORRELATION	pRIMP2
BASIS		cc-pvtz
METHOD		rimp2
AUX_BASIS	rimp2-cc-pvtz
SOLVENT_METHOD	PCM
PURECART	11111
SYMMETRY	false
MEM_TOTAL	110000
SCF_CONVERGENCE = 6
THRESH=10
GUI = 2
$end

$solvent
dielectric 4.90
$end
--------------------------------------------------------------

             Standard Nuclear Orientation (Angstroms)
    I     Atom           X                Y                Z
 ----------------------------------------------------------------
    1      C      -0.1958680000    -6.7414040000     0.1662810000
    2      C      -1.1960480000    -6.1556380000     1.0056960000
    3      C       0.6349110000    -5.7914520000    -0.5302330000
    4      C      -1.4095990000    -4.8037860000     1.1845870000
    5      H      -1.8685380000    -6.8215180000     1.5702320000
    6      C       0.4109960000    -4.3786380000    -0.3432660000
    7      C      -0.6084440000    -3.8380320000     0.5116830000
    8      C       1.2111790000    -3.4130620000    -1.0154400000
    9      C      -0.8305590000    -2.4264730000     0.6971650000
   10      C       0.9999150000    -2.0593480000    -0.8389680000
   11      C       0.0000000000    -1.4782160000     0.0000000000
   12      H       1.6730090000    -1.3947830000    -1.4043020000
   13      C       1.7411290000    -6.1879870000    -1.4560590000
   14      C       2.3071700000    -3.7981640000    -1.9349440000
   15      N       2.4947660000    -5.1700030000    -2.0901390000
   16      C      -2.5084680000    -4.4249870000     2.1067250000
   17      C      -1.9368930000    -2.0366270000     1.6244940000
   18      N      -2.6909360000    -3.0491560000     2.2584860000
   19      O       2.0427360000    -7.3531310000    -1.7054140000
   20      O       3.0138230000    -2.9868540000    -2.5291220000
   21      O      -3.2068570000    -5.2489460000     2.6936800000
   22      O      -2.2541080000    -0.8788290000     1.8888020000
   23      C       3.5775430000    -5.5637990000    -2.9973340000
   24      H       3.6129200000    -6.6640850000    -3.0255190000
   25      H       4.5368330000    -5.1471010000    -2.6351090000
   26      H       3.3877620000    -5.1487850000    -4.0057020000
   27      C      -3.7568830000    -2.5874870000     3.1523470000
   28      H      -4.2484640000    -3.4833290000     3.5662180000
   29      H      -4.4787630000    -1.9649720000     2.5903830000
   30      H      -3.3295990000    -1.9629320000     3.9596870000
   31      H      -0.0532150000    -7.8223180000     0.0469980000
   32      C       0.0000000000     0.0000000000     0.0000000000
   33      S       0.6868050000     0.3967600000     1.5805300000
   34      C       2.1050950000     1.2156400000     0.9049110000
   35      C       0.8642010000     0.4991400000    -0.9854000000
   36      C       2.0075140000     1.1593470000    -0.4935280000
   37      H       0.6601360000     0.3812960000    -2.0599340000
   38      H       2.7703880000     1.5998750000    -1.1525930000
   39      H       2.8677450000     1.6560530000     1.5560250000
 ----------------------------------------------------------------

   11   -1570.6295485210      5.41e-07  Convergence criterion met
 Total energy in the final basis set =    -1570.6295485210
        RIMP2         total energy =     -1575.2688661621 a.u.

                    Orbital Energies (a.u.)
 --------------------------------------------------------------

 Alpha MOs
 -- Occupied --
-91.9978 -20.5581 -20.5566 -20.5522 -20.5513 -15.6308 -15.6272 -11.3992
-11.3915 -11.3904 -11.3890 -11.3164 -11.3103 -11.3006 -11.2970 -11.2919
-11.2916 -11.2892 -11.2846 -11.2805 -11.2780 -11.2775 -11.2707 -11.2691
-11.2646 -11.2624 -11.2572  -8.9973  -6.6779  -6.6772  -6.6768  -1.4246
 -1.4205  -1.4041  -1.3997  -1.2665  -1.2621  -1.2175  -1.1911  -1.1403
 -1.1133  -1.0625  -1.0467  -0.9983  -0.9938  -0.9903  -0.9571  -0.9449
 -0.8944  -0.8765  -0.8731  -0.8567  -0.7939  -0.7771  -0.7753  -0.7680
 -0.7335  -0.7159  -0.7069  -0.6928  -0.6827  -0.6745  -0.6651  -0.6601
 -0.6549  -0.6417  -0.6351  -0.6309  -0.6257  -0.6120  -0.5915  -0.5863
 -0.5792  -0.5752  -0.5665  -0.5636  -0.5625  -0.5547  -0.5525  -0.5469
 -0.5316  -0.5277  -0.5161  -0.5051  -0.4824  -0.4759  -0.4640  -0.4591
 -0.4537  -0.4505  -0.4262  -0.4168  -0.4067  -0.3713  -0.3503  -0.3362
 -0.3070

          Ground-State Mulliken Net Atomic Charges

     Atom                 Charge (a.u.)
  ----------------------------------------
      1 C                    -0.149114
      2 C                    -0.107445
      3 C                    -0.028300
      4 C                    -0.004025
      5 H                     0.187570
      6 C                    -0.012753
      7 C                     0.073578
      8 C                     0.029781
      9 C                    -0.082547
     10 C                    -0.205158
     11 C                     0.133214
     12 H                     0.179429
     13 C                     0.358063
     14 C                     0.362323
     15 N                    -0.100711
     16 C                     0.355769
     17 C                     0.363721
     18 N                    -0.094009
     19 O                    -0.464606
     20 O                    -0.479229
     21 O                    -0.485344
     22 O                    -0.471751
     23 C                    -0.201543
     24 H                     0.141267
     25 H                     0.111899
     26 H                     0.111929
     27 C                    -0.198203
     28 H                     0.132901
     29 H                     0.112553
     30 H                     0.112238
     31 H                     0.211789
     32 C                    -0.159948
     33 S                     0.075498
     34 C                    -0.136910
     35 C                    -0.056525
     36 C                    -0.231231
     37 H                     0.200650
     38 H                     0.195888
     39 H                     0.219293
  ----------------------------------------
  Sum of atomic charges =     0.000000

                    Cartesian Multipole Moments
 -----------------------------------------------------------------
    Charge (ESU x 10^10)
                 0.0000
    Dipole Moment (Debye)
         X       3.4496      Y       2.0267      Z      -1.0583
       Tot       4.1385
    Quadrupole Moments (Debye-Ang)
        XX    -166.9385     XY       5.7333     YY    -179.1730
        XZ      12.2466     YZ       1.0516     ZZ    -165.4090

 Total job time:  276.98s(wall), 8632.77s(cpu)
        *  Thank you very much for using Q-Chem.  Have a nice day.  *
