 Q-Chem 5.4, Q-Chem, Inc., Pleasanton, CA (2021)
 Q-Chem 5.4.0 for Intel X86 EM64T Linux

User input:
--------------------------------------------------------------
$molecule
0 1
C	-0.043160	-6.741404	0.253280
C	-0.269777	-6.155638	1.539213
C	0.145543	-5.791452	-0.814295
C	-0.318377	-4.803786	1.813519
H	-0.422058	-6.821518	2.403941
C	0.094194	-4.378638	-0.527140
C	-0.137191	-3.838032	0.783072
C	0.275104	-3.413062	-1.556403
C	-0.188116	-2.426473	1.067932
C	0.226701	-2.059348	-1.285420
C	-0.000000	-1.478216	-0.000000
H	0.378931	-1.394783	-2.151147
C	0.397845	-6.187987	-2.234582
C	0.523637	-3.798164	-2.965273
N	0.567586	-5.170003	-3.204744
C	-0.567421	-4.424987	3.226257
C	-0.439541	-2.036627	2.489446
N	-0.609650	-3.049156	3.459801
O	0.468608	-7.353131	-2.619468
O	0.683034	-2.986854	-3.874668
O	-0.725131	-5.248946	4.124806
O	-0.512648	-0.878829	2.895819
C	0.813908	-5.563799	-4.595691
H	0.822891	-6.664085	-4.640022
H	1.781600	-5.147101	-4.934830
H	0.020360	-5.148785	-5.246157
C	-0.851649	-2.587487	4.829716
H	-0.962191	-3.483329	5.462742
H	-1.765865	-1.964972	4.863242
H	-0.005383	-1.962932	5.173521
H	-0.010555	-7.822318	0.070208
C	0.000000	0.000000	0.000000
S	0.137535	0.781156	1.580530
C	0.421895	2.393994	0.904911
C	0.173134	0.982857	-0.985400
C	0.402294	2.283058	-0.493528
H	0.132237	0.750786	-2.059934
H	0.555196	3.150621	-1.152593
H	0.574741	3.261310	1.556025
$end

$rem
JOBTYPE		SP
EXCHANGE	HF
CORRELATION	pRIMP2
BASIS		cc-pvtz
METHOD		rimp2
AUX_BASIS	rimp2-cc-pvtz
SOLVENT_METHOD	PCM
PURECART	11111
SYMMETRY	false
MEM_TOTAL	110000
SCF_CONVERGENCE = 6
THRESH=10
GUI = 2
$end

$solvent
dielectric 4.90
$end
--------------------------------------------------------------

             Standard Nuclear Orientation (Angstroms)
    I     Atom           X                Y                Z
 ----------------------------------------------------------------
    1      C      -0.0431600000    -6.7414040000     0.2532800000
    2      C      -0.2697770000    -6.1556380000     1.5392130000
    3      C       0.1455430000    -5.7914520000    -0.8142950000
    4      C      -0.3183770000    -4.8037860000     1.8135190000
    5      H      -0.4220580000    -6.8215180000     2.4039410000
    6      C       0.0941940000    -4.3786380000    -0.5271400000
    7      C      -0.1371910000    -3.8380320000     0.7830720000
    8      C       0.2751040000    -3.4130620000    -1.5564030000
    9      C      -0.1881160000    -2.4264730000     1.0679320000
   10      C       0.2267010000    -2.0593480000    -1.2854200000
   11      C       0.0000000000    -1.4782160000     0.0000000000
   12      H       0.3789310000    -1.3947830000    -2.1511470000
   13      C       0.3978450000    -6.1879870000    -2.2345820000
   14      C       0.5236370000    -3.7981640000    -2.9652730000
   15      N       0.5675860000    -5.1700030000    -3.2047440000
   16      C      -0.5674210000    -4.4249870000     3.2262570000
   17      C      -0.4395410000    -2.0366270000     2.4894460000
   18      N      -0.6096500000    -3.0491560000     3.4598010000
   19      O       0.4686080000    -7.3531310000    -2.6194680000
   20      O       0.6830340000    -2.9868540000    -3.8746680000
   21      O      -0.7251310000    -5.2489460000     4.1248060000
   22      O      -0.5126480000    -0.8788290000     2.8958190000
   23      C       0.8139080000    -5.5637990000    -4.5956910000
   24      H       0.8228910000    -6.6640850000    -4.6400220000
   25      H       1.7816000000    -5.1471010000    -4.9348300000
   26      H       0.0203600000    -5.1487850000    -5.2461570000
   27      C      -0.8516490000    -2.5874870000     4.8297160000
   28      H      -0.9621910000    -3.4833290000     5.4627420000
   29      H      -1.7658650000    -1.9649720000     4.8632420000
   30      H      -0.0053830000    -1.9629320000     5.1735210000
   31      H      -0.0105550000    -7.8223180000     0.0702080000
   32      C       0.0000000000     0.0000000000     0.0000000000
   33      S       0.1375350000     0.7811560000     1.5805300000
   34      C       0.4218950000     2.3939940000     0.9049110000
   35      C       0.1731340000     0.9828570000    -0.9854000000
   36      C       0.4022940000     2.2830580000    -0.4935280000
   37      H       0.1322370000     0.7507860000    -2.0599340000
   38      H       0.5551960000     3.1506210000    -1.1525930000
   39      H       0.5747410000     3.2613100000     1.5560250000
 ----------------------------------------------------------------

   10   -1570.6557119803      8.36e-07  Convergence criterion met
 Total energy in the final basis set =    -1570.6557119803
        RIMP2         total energy =     -1575.2926342974 a.u.

                    Orbital Energies (a.u.)
 --------------------------------------------------------------

 Alpha MOs
 -- Occupied --
-91.9773 -20.5592 -20.5591 -20.5571 -20.5543 -15.6323 -15.6317 -11.4003
-11.4002 -11.3921 -11.3914 -11.3216 -11.3026 -11.3016 -11.3000 -11.2958
-11.2943 -11.2901 -11.2879 -11.2838 -11.2795 -11.2790 -11.2710 -11.2655
-11.2649 -11.2612 -11.2435  -8.9769  -6.6573  -6.6560  -6.6552  -1.4328
 -1.4254  -1.4076  -1.4048  -1.2698  -1.2668  -1.2174  -1.1726  -1.1428
 -1.1171  -1.0621  -1.0500  -0.9934  -0.9896  -0.9809  -0.9596  -0.9470
 -0.8977  -0.8806  -0.8785  -0.8635  -0.7938  -0.7786  -0.7770  -0.7602
 -0.7323  -0.7263  -0.7029  -0.6934  -0.6894  -0.6748  -0.6682  -0.6635
 -0.6576  -0.6410  -0.6388  -0.6367  -0.6276  -0.6148  -0.5843  -0.5831
 -0.5816  -0.5752  -0.5710  -0.5652  -0.5628  -0.5564  -0.5562  -0.5494
 -0.5330  -0.5250  -0.5214  -0.5193  -0.4898  -0.4732  -0.4680  -0.4637
 -0.4572  -0.4327  -0.4212  -0.4105  -0.3948  -0.3754  -0.3428  -0.3378
 -0.2961

          Ground-State Mulliken Net Atomic Charges

     Atom                 Charge (a.u.)
  ----------------------------------------
      1 C                    -0.146028
      2 C                    -0.111409
      3 C                    -0.028938
      4 C                    -0.003009
      5 H                     0.188162
      6 C                     0.004477
      7 C                     0.082354
      8 C                     0.001529
      9 C                    -0.077559
     10 C                    -0.131197
     11 C                     0.067499
     12 H                     0.181578
     13 C                     0.358858
     14 C                     0.364105
     15 N                    -0.101857
     16 C                     0.359321
     17 C                     0.372871
     18 N                    -0.092678
     19 O                    -0.463687
     20 O                    -0.476937
     21 O                    -0.482150
     22 O                    -0.450891
     23 C                    -0.201208
     24 H                     0.141330
     25 H                     0.112453
     26 H                     0.112478
     27 C                    -0.198397
     28 H                     0.135073
     29 H                     0.113678
     30 H                     0.113571
     31 H                     0.212684
     32 C                     0.001914
     33 S                     0.100286
     34 C                    -0.230930
     35 C                    -0.175407
     36 C                    -0.230693
     37 H                     0.187265
     38 H                     0.184298
     39 H                     0.207186
  ----------------------------------------
  Sum of atomic charges =     0.000000

                    Cartesian Multipole Moments
 -----------------------------------------------------------------
    Charge (ESU x 10^10)
                 0.0000
    Dipole Moment (Debye)
         X       0.1720      Y       1.1085      Z      -0.2533
       Tot       1.1500
    Quadrupole Moments (Debye-Ang)
        XX    -164.4055     XY       1.7464     YY    -169.9446
        XZ       3.2350     YZ       0.3477     ZZ    -175.3030

 Total job time:  288.44s(wall), 7865.30s(cpu)
        *  Thank you very much for using Q-Chem.  Have a nice day.  *
