 Q-Chem 5.4, Q-Chem, Inc., Pleasanton, CA (2021)
 Q-Chem 5.4.0 for Intel X86 EM64T Linux

User input:
--------------------------------------------------------------
$molecule
0 1
C	-0.164018	-6.741404	0.197767
C	-1.003240	-6.155638	1.198109
C	0.533192	-5.791452	-0.632428
C	-1.182482	-4.803786	1.411364
H	-1.567483	-6.821518	1.870845
C	0.345145	-4.378638	-0.409419
C	-0.510347	-3.838032	0.609565
C	1.016449	-3.413062	-1.210332
C	-0.696879	-2.426473	0.830799
C	0.839039	-2.059348	-0.999856
C	-0.000000	-1.478216	-0.000000
H	1.403737	-1.394783	-1.673483
C	1.461835	-6.187987	-1.736282
C	1.936119	-3.798164	-2.306183
N	2.093916	-5.170003	-2.491597
C	-2.104529	-4.424987	2.510310
C	-1.625377	-2.036627	1.936153
N	-2.257873	-3.049156	2.691451
O	1.715561	-7.353131	-2.034222
O	2.528858	-2.986854	-3.014044
O	-2.690385	-5.248946	3.209622
O	-1.891876	-0.878829	2.251529
C	3.002711	-5.563799	-3.573032
H	3.032655	-6.664085	-3.606932
H	4.010326	-5.147101	-3.382888
H	2.640711	-5.148785	-4.533125
C	-3.152408	-2.587487	3.756832
H	-3.564653	-3.483329	4.249778
H	-3.960905	-1.964972	3.328759
H	-2.591422	-1.962932	4.477709
H	-0.044245	-7.822318	0.055524
C	0.000000	0.000000	0.000000
S	0.686805	0.396760	1.580530
C	2.105095	1.215640	0.904911
C	0.864201	0.499140	-0.985400
C	2.007514	1.159347	-0.493528
H	0.660136	0.381296	-2.059934
H	2.770388	1.599875	-1.152593
H	2.867745	1.656053	1.556025
$end

$rem
JOBTYPE		SP
EXCHANGE	HF
CORRELATION	pRIMP2
BASIS		cc-pvtz
METHOD		rimp2
AUX_BASIS	rimp2-cc-pvtz
SOLVENT_METHOD	PCM
PURECART	11111
SYMMETRY	false
MEM_TOTAL	110000
SCF_CONVERGENCE = 6
THRESH=10
GUI = 2
$end

$solvent
dielectric 4.90
$end
--------------------------------------------------------------

             Standard Nuclear Orientation (Angstroms)
    I     Atom           X                Y                Z
 ----------------------------------------------------------------
    1      C      -0.1640180000    -6.7414040000     0.1977670000
    2      C      -1.0032400000    -6.1556380000     1.1981090000
    3      C       0.5331920000    -5.7914520000    -0.6324280000
    4      C      -1.1824820000    -4.8037860000     1.4113640000
    5      H      -1.5674830000    -6.8215180000     1.8708450000
    6      C       0.3451450000    -4.3786380000    -0.4094190000
    7      C      -0.5103470000    -3.8380320000     0.6095650000
    8      C       1.0164490000    -3.4130620000    -1.2103320000
    9      C      -0.6968790000    -2.4264730000     0.8307990000
   10      C       0.8390390000    -2.0593480000    -0.9998560000
   11      C       0.0000000000    -1.4782160000     0.0000000000
   12      H       1.4037370000    -1.3947830000    -1.6734830000
   13      C       1.4618350000    -6.1879870000    -1.7362820000
   14      C       1.9361190000    -3.7981640000    -2.3061830000
   15      N       2.0939160000    -5.1700030000    -2.4915970000
   16      C      -2.1045290000    -4.4249870000     2.5103100000
   17      C      -1.6253770000    -2.0366270000     1.9361530000
   18      N      -2.2578730000    -3.0491560000     2.6914510000
   19      O       1.7155610000    -7.3531310000    -2.0342220000
   20      O       2.5288580000    -2.9868540000    -3.0140440000
   21      O      -2.6903850000    -5.2489460000     3.2096220000
   22      O      -1.8918760000    -0.8788290000     2.2515290000
   23      C       3.0027110000    -5.5637990000    -3.5730320000
   24      H       3.0326550000    -6.6640850000    -3.6069320000
   25      H       4.0103260000    -5.1471010000    -3.3828880000
   26      H       2.6407110000    -5.1487850000    -4.5331250000
   27      C      -3.1524080000    -2.5874870000     3.7568320000
   28      H      -3.5646530000    -3.4833290000     4.2497780000
   29      H      -3.9609050000    -1.9649720000     3.3287590000
   30      H      -2.5914220000    -1.9629320000     4.4777090000
   31      H      -0.0442450000    -7.8223180000     0.0555240000
   32      C       0.0000000000     0.0000000000     0.0000000000
   33      S       0.6868050000     0.3967600000     1.5805300000
   34      C       2.1050950000     1.2156400000     0.9049110000
   35      C       0.8642010000     0.4991400000    -0.9854000000
   36      C       2.0075140000     1.1593470000    -0.4935280000
   37      H       0.6601360000     0.3812960000    -2.0599340000
   38      H       2.7703880000     1.5998750000    -1.1525930000
   39      H       2.8677450000     1.6560530000     1.5560250000
 ----------------------------------------------------------------

   11   -1570.6284292772      5.54e-07  Convergence criterion met
 Total energy in the final basis set =    -1570.6284292772
        RIMP2         total energy =     -1575.2681496197 a.u.

                    Orbital Energies (a.u.)
 --------------------------------------------------------------

 Alpha MOs
 -- Occupied --
-91.9967 -20.5580 -20.5566 -20.5522 -20.5506 -15.6307 -15.6269 -11.3990
-11.3912 -11.3903 -11.3884 -11.3176 -11.3107 -11.3002 -11.2967 -11.2904
-11.2902 -11.2871 -11.2846 -11.2805 -11.2794 -11.2768 -11.2704 -11.2695
-11.2645 -11.2623 -11.2573  -8.9962  -6.6767  -6.6760  -6.6756  -1.4245
 -1.4207  -1.4040  -1.3998  -1.2664  -1.2619  -1.2172  -1.1909  -1.1401
 -1.1128  -1.0625  -1.0464  -0.9988  -0.9936  -0.9899  -0.9568  -0.9447
 -0.8940  -0.8763  -0.8728  -0.8570  -0.7936  -0.7778  -0.7758  -0.7682
 -0.7329  -0.7150  -0.7070  -0.6925  -0.6832  -0.6744  -0.6650  -0.6600
 -0.6545  -0.6409  -0.6346  -0.6306  -0.6250  -0.6122  -0.5928  -0.5870
 -0.5795  -0.5736  -0.5663  -0.5643  -0.5627  -0.5546  -0.5529  -0.5469
 -0.5311  -0.5282  -0.5147  -0.5075  -0.4831  -0.4741  -0.4629  -0.4586
 -0.4528  -0.4490  -0.4259  -0.4167  -0.4067  -0.3723  -0.3544  -0.3347
 -0.3033

          Ground-State Mulliken Net Atomic Charges

     Atom                 Charge (a.u.)
  ----------------------------------------
      1 C                    -0.153568
      2 C                    -0.107413
      3 C                    -0.025502
      4 C                    -0.005212
      5 H                     0.187296
      6 C                    -0.017070
      7 C                     0.073126
      8 C                     0.035182
      9 C                    -0.093376
     10 C                    -0.201633
     11 C                     0.134539
     12 H                     0.176166
     13 C                     0.357914
     14 C                     0.362806
     15 N                    -0.100819
     16 C                     0.355079
     17 C                     0.367575
     18 N                    -0.094059
     19 O                    -0.464464
     20 O                    -0.479521
     21 O                    -0.486337
     22 O                    -0.477517
     23 C                    -0.201524
     24 H                     0.141274
     25 H                     0.111836
     26 H                     0.111904
     27 C                    -0.198207
     28 H                     0.133015
     29 H                     0.112445
     30 H                     0.111955
     31 H                     0.211243
     32 C                    -0.155939
     33 S                     0.085602
     34 C                    -0.136022
     35 C                    -0.053029
     36 C                    -0.230340
     37 H                     0.197505
     38 H                     0.195252
     39 H                     0.219840
  ----------------------------------------
  Sum of atomic charges =     0.000000

                    Cartesian Multipole Moments
 -----------------------------------------------------------------
    Charge (ESU x 10^10)
                 0.0000
    Dipole Moment (Debye)
         X       3.4813      Y       2.3588      Z      -1.1301
       Tot       4.3544
    Quadrupole Moments (Debye-Ang)
        XX    -163.1149     XY       5.5684     YY    -180.6857
        XZ      12.3645     YZ       1.3544     ZZ    -169.2579

 Total job time:  266.61s(wall), 8208.71s(cpu)
        *  Thank you very much for using Q-Chem.  Have a nice day.  *
