 Q-Chem 5.4, Q-Chem, Inc., Pleasanton, CA (2021)
 Q-Chem 5.4.0 for Intel X86 EM64T Linux

User input:
--------------------------------------------------------------
$molecule
0 1
C	-0.195868	-6.741404	0.166281
C	-1.196048	-6.155638	1.005696
C	0.634911	-5.791452	-0.530233
C	-1.409599	-4.803786	1.184587
H	-1.868538	-6.821518	1.570232
C	0.410996	-4.378638	-0.343266
C	-0.608444	-3.838032	0.511683
C	1.211179	-3.413062	-1.015440
C	-0.830559	-2.426473	0.697165
C	0.999915	-2.059348	-0.838968
C	-0.000000	-1.478216	-0.000000
H	1.673009	-1.394783	-1.404302
C	1.741129	-6.187987	-1.456059
C	2.307170	-3.798164	-1.934944
N	2.494766	-5.170003	-2.090139
C	-2.508468	-4.424987	2.106725
C	-1.936893	-2.036627	1.624494
N	-2.690936	-3.049156	2.258486
O	2.042736	-7.353131	-1.705414
O	3.013823	-2.986854	-2.529122
O	-3.206857	-5.248946	2.693680
O	-2.254108	-0.878829	1.888802
C	3.577543	-5.563799	-2.997334
H	3.612920	-6.664085	-3.025519
H	4.536833	-5.147101	-2.635109
H	3.387762	-5.148785	-4.005702
C	-3.756883	-2.587487	3.152347
H	-4.248464	-3.483329	3.566218
H	-4.478763	-1.964972	2.590383
H	-3.329599	-1.962932	3.959687
H	-0.053215	-7.822318	0.046998
C	0.000000	0.000000	0.000000
S	0.271091	0.745405	1.580530
C	0.831198	2.284363	0.904911
C	0.341175	0.937861	-0.985400
C	0.792631	2.178516	-0.493528
H	0.260601	0.716417	-2.059934
H	1.093860	3.006347	-1.152593
H	1.132330	3.111961	1.556025
$end

$rem
JOBTYPE		SP
EXCHANGE	HF
CORRELATION	pRIMP2
BASIS		cc-pvtz
METHOD		rimp2
AUX_BASIS	rimp2-cc-pvtz
SOLVENT_METHOD	PCM
PURECART	11111
SYMMETRY	false
MEM_TOTAL	110000
SCF_CONVERGENCE = 6
THRESH=10
GUI = 2
$end

$solvent
dielectric 4.90
$end
--------------------------------------------------------------

             Standard Nuclear Orientation (Angstroms)
    I     Atom           X                Y                Z
 ----------------------------------------------------------------
    1      C      -0.1958680000    -6.7414040000     0.1662810000
    2      C      -1.1960480000    -6.1556380000     1.0056960000
    3      C       0.6349110000    -5.7914520000    -0.5302330000
    4      C      -1.4095990000    -4.8037860000     1.1845870000
    5      H      -1.8685380000    -6.8215180000     1.5702320000
    6      C       0.4109960000    -4.3786380000    -0.3432660000
    7      C      -0.6084440000    -3.8380320000     0.5116830000
    8      C       1.2111790000    -3.4130620000    -1.0154400000
    9      C      -0.8305590000    -2.4264730000     0.6971650000
   10      C       0.9999150000    -2.0593480000    -0.8389680000
   11      C       0.0000000000    -1.4782160000     0.0000000000
   12      H       1.6730090000    -1.3947830000    -1.4043020000
   13      C       1.7411290000    -6.1879870000    -1.4560590000
   14      C       2.3071700000    -3.7981640000    -1.9349440000
   15      N       2.4947660000    -5.1700030000    -2.0901390000
   16      C      -2.5084680000    -4.4249870000     2.1067250000
   17      C      -1.9368930000    -2.0366270000     1.6244940000
   18      N      -2.6909360000    -3.0491560000     2.2584860000
   19      O       2.0427360000    -7.3531310000    -1.7054140000
   20      O       3.0138230000    -2.9868540000    -2.5291220000
   21      O      -3.2068570000    -5.2489460000     2.6936800000
   22      O      -2.2541080000    -0.8788290000     1.8888020000
   23      C       3.5775430000    -5.5637990000    -2.9973340000
   24      H       3.6129200000    -6.6640850000    -3.0255190000
   25      H       4.5368330000    -5.1471010000    -2.6351090000
   26      H       3.3877620000    -5.1487850000    -4.0057020000
   27      C      -3.7568830000    -2.5874870000     3.1523470000
   28      H      -4.2484640000    -3.4833290000     3.5662180000
   29      H      -4.4787630000    -1.9649720000     2.5903830000
   30      H      -3.3295990000    -1.9629320000     3.9596870000
   31      H      -0.0532150000    -7.8223180000     0.0469980000
   32      C       0.0000000000     0.0000000000     0.0000000000
   33      S       0.2710910000     0.7454050000     1.5805300000
   34      C       0.8311980000     2.2843630000     0.9049110000
   35      C       0.3411750000     0.9378610000    -0.9854000000
   36      C       0.7926310000     2.1785160000    -0.4935280000
   37      H       0.2606010000     0.7164170000    -2.0599340000
   38      H       1.0938600000     3.0063470000    -1.1525930000
   39      H       1.1323300000     3.1119610000     1.5560250000
 ----------------------------------------------------------------

   10   -1570.6854057529      7.46e-07  Convergence criterion met
 Total energy in the final basis set =    -1570.6854057529
        RIMP2         total energy =     -1575.3125495821 a.u.

                    Orbital Energies (a.u.)
 --------------------------------------------------------------

 Alpha MOs
 -- Occupied --
-91.9895 -20.5588 -20.5566 -20.5555 -20.5545 -15.6315 -15.6304 -11.4003
-11.3962 -11.3921 -11.3910 -11.3174 -11.3034 -11.3027 -11.3007 -11.2977
-11.2971 -11.2912 -11.2865 -11.2854 -11.2851 -11.2802 -11.2780 -11.2648
-11.2642 -11.2600 -11.2500  -8.9888  -6.6696  -6.6690  -6.6685  -1.4252
 -1.4240  -1.4045  -1.4030  -1.2676  -1.2651  -1.2175  -1.1762  -1.1439
 -1.1174  -1.0630  -1.0498  -0.9929  -0.9897  -0.9846  -0.9590  -0.9479
 -0.8970  -0.8793  -0.8776  -0.8609  -0.7950  -0.7770  -0.7737  -0.7627
 -0.7337  -0.7182  -0.7055  -0.6946  -0.6822  -0.6743  -0.6664  -0.6622
 -0.6568  -0.6414  -0.6374  -0.6333  -0.6291  -0.6132  -0.5845  -0.5843
 -0.5787  -0.5728  -0.5669  -0.5654  -0.5642  -0.5554  -0.5536  -0.5484
 -0.5319  -0.5240  -0.5219  -0.5182  -0.4838  -0.4723  -0.4654  -0.4595
 -0.4593  -0.4521  -0.4282  -0.4182  -0.4089  -0.3654  -0.3509  -0.3366
 -0.3090

          Ground-State Mulliken Net Atomic Charges

     Atom                 Charge (a.u.)
  ----------------------------------------
      1 C                    -0.136152
      2 C                    -0.108294
      3 C                    -0.038967
      4 C                    -0.003196
      5 H                     0.188825
      6 C                     0.002492
      7 C                     0.076762
      8 C                     0.003062
      9 C                    -0.047263
     10 C                    -0.127217
     11 C                     0.075393
     12 H                     0.187696
     13 C                     0.359921
     14 C                     0.364057
     15 N                    -0.101553
     16 C                     0.359299
     17 C                     0.350041
     18 N                    -0.096091
     19 O                    -0.464498
     20 O                    -0.476470
     21 O                    -0.481136
     22 O                    -0.462048
     23 C                    -0.201141
     24 H                     0.141179
     25 H                     0.112453
     26 H                     0.112252
     27 C                    -0.196365
     28 H                     0.133617
     29 H                     0.113323
     30 H                     0.113030
     31 H                     0.213826
     32 C                    -0.012370
     33 S                     0.061333
     34 C                    -0.207003
     35 C                    -0.212773
     36 C                    -0.194856
     37 H                     0.195151
     38 H                     0.191961
     39 H                     0.211717
  ----------------------------------------
  Sum of atomic charges =     0.000000

                    Cartesian Multipole Moments
 -----------------------------------------------------------------
    Charge (ESU x 10^10)
                 0.0000
    Dipole Moment (Debye)
         X       0.7442      Y       1.2203      Z      -0.8408
       Tot       1.6583
    Quadrupole Moments (Debye-Ang)
        XX    -174.8944     XY       4.1213     YY    -166.9449
        XZ      10.2752     YZ       0.4737     ZZ    -165.6855

 Total job time:  274.39s(wall), 8371.62s(cpu)
        *  Thank you very much for using Q-Chem.  Have a nice day.  *
