 Q-Chem 5.4, Q-Chem, Inc., Pleasanton, CA (2021)
 Q-Chem 5.4.0 for Intel X86 EM64T Linux

User input:
--------------------------------------------------------------
$molecule
0 1
C	0.001478	-6.741404	0.256927
C	0.001603	-6.155638	1.562675
C	0.001931	-5.791452	-0.827197
C	0.001374	-4.803786	1.841253
H	0.001794	-6.821518	2.440709
C	0.001227	-4.378638	-0.535488
C	0.000872	-3.838032	0.794999
C	0.000658	-3.413062	-1.580529
C	0.000186	-2.426473	1.084374
C	0.000046	-2.059348	-1.305258
C	-0.000000	-1.478216	-0.000000
H	-0.000369	-1.394783	-2.184267
C	0.003770	-6.187987	-2.269719
C	0.000767	-3.798164	-3.011152
N	0.002465	-5.170003	-3.254617
C	0.001433	-4.424987	3.275775
C	-0.000576	-2.036627	2.527951
N	0.000400	-3.049156	3.513104
O	0.006623	-7.353131	-2.661046
O	-0.000172	-2.986854	-3.934410
O	0.002151	-5.248946	4.188059
O	-0.002006	-0.878829	2.940845
C	0.003509	-5.563799	-4.667206
H	0.004658	-6.664085	-4.712423
H	0.897610	-5.147101	-5.169231
H	-0.890935	-5.148785	-5.169992
C	-0.000039	-2.587487	4.904229
H	0.001022	-3.483329	5.546833
H	-0.894545	-1.964972	5.095998
H	0.893071	-1.962932	5.095858
H	0.001797	-7.822318	0.070974
C	0.000000	0.000000	0.000000
S	0.335026	0.718942	1.580530
C	1.027130	2.203226	0.904911
C	0.421617	0.904557	-0.985400
C	0.979485	2.101144	-0.493528
H	0.322049	0.690978	-2.059934
H	1.351718	2.899571	-1.152593
H	1.399246	3.001430	1.556025
$end

$rem
JOBTYPE		SP
EXCHANGE	HF
CORRELATION	pRIMP2
BASIS		cc-pvtz
METHOD		rimp2
AUX_BASIS	rimp2-cc-pvtz
SOLVENT_METHOD	PCM
PURECART	11111
SYMMETRY	false
MEM_TOTAL	110000
SCF_CONVERGENCE = 6
THRESH=10
GUI = 2
$end

$solvent
dielectric 4.90
$end
--------------------------------------------------------------

             Standard Nuclear Orientation (Angstroms)
    I     Atom           X                Y                Z
 ----------------------------------------------------------------
    1      C       0.0014780000    -6.7414040000     0.2569270000
    2      C       0.0016030000    -6.1556380000     1.5626750000
    3      C       0.0019310000    -5.7914520000    -0.8271970000
    4      C       0.0013740000    -4.8037860000     1.8412530000
    5      H       0.0017940000    -6.8215180000     2.4407090000
    6      C       0.0012270000    -4.3786380000    -0.5354880000
    7      C       0.0008720000    -3.8380320000     0.7949990000
    8      C       0.0006580000    -3.4130620000    -1.5805290000
    9      C       0.0001860000    -2.4264730000     1.0843740000
   10      C       0.0000460000    -2.0593480000    -1.3052580000
   11      C       0.0000000000    -1.4782160000     0.0000000000
   12      H      -0.0003690000    -1.3947830000    -2.1842670000
   13      C       0.0037700000    -6.1879870000    -2.2697190000
   14      C       0.0007670000    -3.7981640000    -3.0111520000
   15      N       0.0024650000    -5.1700030000    -3.2546170000
   16      C       0.0014330000    -4.4249870000     3.2757750000
   17      C      -0.0005760000    -2.0366270000     2.5279510000
   18      N       0.0004000000    -3.0491560000     3.5131040000
   19      O       0.0066230000    -7.3531310000    -2.6610460000
   20      O      -0.0001720000    -2.9868540000    -3.9344100000
   21      O       0.0021510000    -5.2489460000     4.1880590000
   22      O      -0.0020060000    -0.8788290000     2.9408450000
   23      C       0.0035090000    -5.5637990000    -4.6672060000
   24      H       0.0046580000    -6.6640850000    -4.7124230000
   25      H       0.8976100000    -5.1471010000    -5.1692310000
   26      H      -0.8909350000    -5.1487850000    -5.1699920000
   27      C      -0.0000390000    -2.5874870000     4.9042290000
   28      H       0.0010220000    -3.4833290000     5.5468330000
   29      H      -0.8945450000    -1.9649720000     5.0959980000
   30      H       0.8930710000    -1.9629320000     5.0958580000
   31      H       0.0017970000    -7.8223180000     0.0709740000
   32      C       0.0000000000     0.0000000000     0.0000000000
   33      S       0.3350260000     0.7189420000     1.5805300000
   34      C       1.0271300000     2.2032260000     0.9049110000
   35      C       0.4216170000     0.9045570000    -0.9854000000
   36      C       0.9794850000     2.1011440000    -0.4935280000
   37      H       0.3220490000     0.6909780000    -2.0599340000
   38      H       1.3517180000     2.8995710000    -1.1525930000
   39      H       1.3992460000     3.0014300000     1.5560250000
 ----------------------------------------------------------------

   11   -1570.6324920648      4.57e-07  Convergence criterion met
 Total energy in the final basis set =    -1570.6324920648
        RIMP2         total energy =     -1575.2743554451 a.u.

                    Orbital Energies (a.u.)
 --------------------------------------------------------------

 Alpha MOs
 -- Occupied --
-91.9757 -20.5607 -20.5589 -20.5570 -20.5537 -15.6324 -15.6315 -11.4006
-11.4000 -11.3916 -11.3912 -11.3221 -11.3020 -11.3009 -11.2973 -11.2943
-11.2925 -11.2875 -11.2866 -11.2825 -11.2786 -11.2778 -11.2704 -11.2657
-11.2648 -11.2635 -11.2428  -8.9755  -6.6559  -6.6543  -6.6534  -1.4363
 -1.4252  -1.4081  -1.4046  -1.2704  -1.2667  -1.2168  -1.1735  -1.1419
 -1.1163  -1.0613  -1.0493  -0.9932  -0.9905  -0.9816  -0.9594  -0.9465
 -0.8977  -0.8803  -0.8776  -0.8634  -0.7929  -0.7793  -0.7774  -0.7602
 -0.7324  -0.7289  -0.7027  -0.6931  -0.6896  -0.6745  -0.6686  -0.6635
 -0.6575  -0.6413  -0.6385  -0.6365  -0.6267  -0.6148  -0.5849  -0.5835
 -0.5813  -0.5766  -0.5715  -0.5651  -0.5628  -0.5568  -0.5562  -0.5493
 -0.5329  -0.5268  -0.5213  -0.5171  -0.4900  -0.4732  -0.4665  -0.4631
 -0.4569  -0.4329  -0.4208  -0.4099  -0.3832  -0.3753  -0.3402  -0.3369
 -0.2948

          Ground-State Mulliken Net Atomic Charges

     Atom                 Charge (a.u.)
  ----------------------------------------
      1 C                    -0.150173
      2 C                    -0.111474
      3 C                    -0.026679
      4 C                    -0.004060
      5 H                     0.187745
      6 C                     0.002319
      7 C                     0.079880
      8 C                     0.005104
      9 C                    -0.098677
     10 C                    -0.130302
     11 C                     0.065158
     12 H                     0.182436
     13 C                     0.359148
     14 C                     0.362342
     15 N                    -0.101811
     16 C                     0.358408
     17 C                     0.381424
     18 N                    -0.091340
     19 O                    -0.463664
     20 O                    -0.477088
     21 O                    -0.482836
     22 O                    -0.438508
     23 C                    -0.201208
     24 H                     0.141266
     25 H                     0.112331
     26 H                     0.112403
     27 C                    -0.199008
     28 H                     0.135443
     29 H                     0.113519
     30 H                     0.113439
     31 H                     0.212034
     32 C                     0.003647
     33 S                     0.102076
     34 C                    -0.228435
     35 C                    -0.169799
     36 C                    -0.232114
     37 H                     0.187749
     38 H                     0.183989
     39 H                     0.205317
  ----------------------------------------
  Sum of atomic charges =     0.000000

                    Cartesian Multipole Moments
 -----------------------------------------------------------------
    Charge (ESU x 10^10)
                 0.0000
    Dipole Moment (Debye)
         X       0.7867      Y       1.2349      Z      -0.1460
       Tot       1.4715
    Quadrupole Moments (Debye-Ang)
        XX    -162.3294     XY       3.7544     YY    -173.1691
        XZ       0.5290     YZ       0.3558     ZZ    -175.5863

 Total job time:  274.18s(wall), 8587.23s(cpu)
        *  Thank you very much for using Q-Chem.  Have a nice day.  *
