 Q-Chem 5.4, Q-Chem, Inc., Pleasanton, CA (2021)
 Q-Chem 5.4.0 for Intel X86 EM64T Linux

User input:
--------------------------------------------------------------
$molecule
0 1
C	-0.043160	-6.741404	0.253280
C	-0.269777	-6.155638	1.539213
C	0.145543	-5.791452	-0.814295
C	-0.318377	-4.803786	1.813519
H	-0.422058	-6.821518	2.403941
C	0.094194	-4.378638	-0.527140
C	-0.137191	-3.838032	0.783072
C	0.275104	-3.413062	-1.556403
C	-0.188116	-2.426473	1.067932
C	0.226701	-2.059348	-1.285420
C	0.000000	-1.478216	0.000000
H	0.378931	-1.394783	-2.151147
C	0.397845	-6.187987	-2.234582
C	0.523637	-3.798164	-2.965273
N	0.567586	-5.170003	-3.204744
C	-0.567421	-4.424987	3.226257
C	-0.439541	-2.036627	2.489446
N	-0.609650	-3.049156	3.459801
O	0.468608	-7.353131	-2.619468
O	0.683034	-2.986854	-3.874668
O	-0.725131	-5.248946	4.124806
O	-0.512648	-0.878829	2.895819
C	0.813908	-5.563799	-4.595691
H	0.822891	-6.664085	-4.640022
H	1.781600	-5.147101	-4.934830
H	0.020360	-5.148785	-5.246157
C	-0.851649	-2.587487	4.829716
H	-0.962191	-3.483329	5.462742
H	-1.765865	-1.964972	4.863242
H	-0.005383	-1.962932	5.173521
H	-0.010555	-7.822318	0.070208
C	0.000000	0.000000	0.000000
S	0.509686	0.607733	1.580530
C	1.562368	1.862312	0.904911
C	0.641367	0.764613	-0.985400
C	1.489926	1.776040	-0.493528
H	0.489914	0.584081	-2.059934
H	2.056124	2.450920	-1.152593
H	2.128395	2.537007	1.556025
$end

$rem
JOBTYPE		SP
EXCHANGE	HF
CORRELATION	pRIMP2
BASIS		cc-pvtz
METHOD		rimp2
AUX_BASIS	rimp2-cc-pvtz
SOLVENT_METHOD	PCM
PURECART	11111
SYMMETRY	false
MEM_TOTAL	110000
SCF_CONVERGENCE = 6
THRESH=10
GUI = 2
$end

$solvent
dielectric 4.90
$end
--------------------------------------------------------------

             Standard Nuclear Orientation (Angstroms)
    I     Atom           X                Y                Z
 ----------------------------------------------------------------
    1      C      -0.0431600000    -6.7414040000     0.2532800000
    2      C      -0.2697770000    -6.1556380000     1.5392130000
    3      C       0.1455430000    -5.7914520000    -0.8142950000
    4      C      -0.3183770000    -4.8037860000     1.8135190000
    5      H      -0.4220580000    -6.8215180000     2.4039410000
    6      C       0.0941940000    -4.3786380000    -0.5271400000
    7      C      -0.1371910000    -3.8380320000     0.7830720000
    8      C       0.2751040000    -3.4130620000    -1.5564030000
    9      C      -0.1881160000    -2.4264730000     1.0679320000
   10      C       0.2267010000    -2.0593480000    -1.2854200000
   11      C       0.0000000000    -1.4782160000     0.0000000000
   12      H       0.3789310000    -1.3947830000    -2.1511470000
   13      C       0.3978450000    -6.1879870000    -2.2345820000
   14      C       0.5236370000    -3.7981640000    -2.9652730000
   15      N       0.5675860000    -5.1700030000    -3.2047440000
   16      C      -0.5674210000    -4.4249870000     3.2262570000
   17      C      -0.4395410000    -2.0366270000     2.4894460000
   18      N      -0.6096500000    -3.0491560000     3.4598010000
   19      O       0.4686080000    -7.3531310000    -2.6194680000
   20      O       0.6830340000    -2.9868540000    -3.8746680000
   21      O      -0.7251310000    -5.2489460000     4.1248060000
   22      O      -0.5126480000    -0.8788290000     2.8958190000
   23      C       0.8139080000    -5.5637990000    -4.5956910000
   24      H       0.8228910000    -6.6640850000    -4.6400220000
   25      H       1.7816000000    -5.1471010000    -4.9348300000
   26      H       0.0203600000    -5.1487850000    -5.2461570000
   27      C      -0.8516490000    -2.5874870000     4.8297160000
   28      H      -0.9621910000    -3.4833290000     5.4627420000
   29      H      -1.7658650000    -1.9649720000     4.8632420000
   30      H      -0.0053830000    -1.9629320000     5.1735210000
   31      H      -0.0105550000    -7.8223180000     0.0702080000
   32      C       0.0000000000     0.0000000000     0.0000000000
   33      S       0.5096860000     0.6077330000     1.5805300000
   34      C       1.5623680000     1.8623120000     0.9049110000
   35      C       0.6413670000     0.7646130000    -0.9854000000
   36      C       1.4899260000     1.7760400000    -0.4935280000
   37      H       0.4899140000     0.5840810000    -2.0599340000
   38      H       2.0561240000     2.4509200000    -1.1525930000
   39      H       2.1283950000     2.5370070000     1.5560250000
 ----------------------------------------------------------------

   11   -1570.6342011412      5.03e-07  Convergence criterion met
 Total energy in the final basis set =    -1570.6342011412
        RIMP2         total energy =     -1575.2756090962 a.u.

                    Orbital Energies (a.u.)
 --------------------------------------------------------------

 Alpha MOs
 -- Occupied --
-91.9799 -20.5583 -20.5579 -20.5565 -20.5521 -15.6310 -15.6302 -11.3994
-11.3968 -11.3906 -11.3900 -11.3215 -11.3009 -11.2990 -11.2922 -11.2918
-11.2905 -11.2861 -11.2833 -11.2821 -11.2805 -11.2773 -11.2753 -11.2711
-11.2645 -11.2645 -11.2476  -8.9797  -6.6602  -6.6588  -6.6581  -1.4308
 -1.4247  -1.4056  -1.4041  -1.2679  -1.2657  -1.2157  -1.1788  -1.1413
 -1.1145  -1.0609  -1.0476  -0.9922  -0.9906  -0.9868  -0.9583  -0.9460
 -0.8959  -0.8785  -0.8755  -0.8615  -0.7919  -0.7779  -0.7758  -0.7636
 -0.7317  -0.7228  -0.7037  -0.6926  -0.6886  -0.6744  -0.6668  -0.6626
 -0.6562  -0.6397  -0.6365  -0.6353  -0.6254  -0.6141  -0.5856  -0.5839
 -0.5812  -0.5752  -0.5713  -0.5654  -0.5642  -0.5559  -0.5552  -0.5485
 -0.5329  -0.5280  -0.5186  -0.5139  -0.4898  -0.4734  -0.4623  -0.4601
 -0.4563  -0.4319  -0.4209  -0.4093  -0.3956  -0.3752  -0.3482  -0.3360
 -0.2962

          Ground-State Mulliken Net Atomic Charges

     Atom                 Charge (a.u.)
  ----------------------------------------
      1 C                    -0.154738
      2 C                    -0.110813
      3 C                    -0.023871
      4 C                    -0.006099
      5 H                     0.187246
      6 C                    -0.006812
      7 C                     0.076753
      8 C                     0.012847
      9 C                    -0.102762
     10 C                    -0.131723
     11 C                     0.070184
     12 H                     0.177843
     13 C                     0.358756
     14 C                     0.362993
     15 N                    -0.101600
     16 C                     0.357111
     17 C                     0.379731
     18 N                    -0.091706
     19 O                    -0.463985
     20 O                    -0.478575
     21 O                    -0.484852
     22 O                    -0.463156
     23 C                    -0.201430
     24 H                     0.141247
     25 H                     0.112076
     26 H                     0.112224
     27 C                    -0.198174
     28 H                     0.134626
     29 H                     0.112813
     30 H                     0.112842
     31 H                     0.211258
     32 C                    -0.020026
     33 S                     0.108875
     34 C                    -0.198837
     35 C                    -0.154490
     36 C                    -0.225239
     37 H                     0.192804
     38 H                     0.187558
     39 H                     0.209102
  ----------------------------------------
  Sum of atomic charges =     0.000000

                    Cartesian Multipole Moments
 -----------------------------------------------------------------
    Charge (ESU x 10^10)
                 0.0000
    Dipole Moment (Debye)
         X       1.5339      Y       2.0982      Z      -0.5328
       Tot       2.6532
    Quadrupole Moments (Debye-Ang)
        XX    -160.1331     XY       5.3334     YY    -177.3000
        XZ       4.1938     YZ       1.0496     ZZ    -176.0919

 Total job time:  273.62s(wall), 8397.46s(cpu)
        *  Thank you very much for using Q-Chem.  Have a nice day.  *
