 Q-Chem 5.4, Q-Chem, Inc., Pleasanton, CA (2021)
 Q-Chem 5.4.0 for Intel X86 EM64T Linux

User input:
--------------------------------------------------------------
$molecule
0 1
C	0.127184	-6.741404	-0.223244
C	0.779949	-6.155638	-1.354118
C	-0.415271	-5.791452	0.715408
C	0.919437	-4.803786	-1.595259
H	1.218801	-6.821518	-2.114613
C	-0.268806	-4.378638	0.463133
C	0.396744	-3.838032	-0.688925
C	-0.790835	-3.413062	1.368449
C	0.542026	-2.426473	-0.939189
C	-0.652669	-2.059348	1.130363
C	-0.000000	-1.478216	-0.000000
H	-1.091814	-1.394783	1.891815
C	-1.138124	-6.187987	1.963749
C	-1.506241	-3.798164	2.607351
N	-1.629443	-5.170003	2.817348
C	1.636646	-4.424987	-2.837621
C	1.264474	-2.036627	-2.188982
N	1.756205	-3.049156	-3.042637
O	-1.336258	-7.353131	2.301222
O	-1.967056	-2.986854	3.407386
O	2.092167	-5.248946	-3.628041
O	1.472160	-0.878829	-2.545844
C	-2.336642	-5.563799	4.040164
H	-2.360245	-6.664085	4.078749
H	-3.361968	-5.147101	4.027880
H	-1.813424	-5.148785	4.922811
C	2.452149	-2.587487	-4.247167
H	2.772531	-3.483329	-4.804209
H	3.322697	-1.964972	-3.965991
H	1.774507	-1.962932	-4.859678
H	0.033931	-7.822318	-0.062364
C	0.000000	0.000000	0.000000
S	0.335026	0.718942	1.580530
C	1.027130	2.203226	0.904911
C	0.421617	0.904557	-0.985400
C	0.979485	2.101144	-0.493528
H	0.322049	0.690978	-2.059934
H	1.351718	2.899571	-1.152593
H	1.399246	3.001430	1.556025
$end

$rem
JOBTYPE		SP
EXCHANGE	HF
CORRELATION	pRIMP2
BASIS		cc-pvtz
METHOD		rimp2
AUX_BASIS	rimp2-cc-pvtz
SOLVENT_METHOD	PCM
PURECART	11111
SYMMETRY	false
MEM_TOTAL	110000
SCF_CONVERGENCE = 6
THRESH=10
GUI = 2
$end

$solvent
dielectric 4.90
$end
--------------------------------------------------------------

             Standard Nuclear Orientation (Angstroms)
    I     Atom           X                Y                Z
 ----------------------------------------------------------------
    1      C       0.1271840000    -6.7414040000    -0.2232440000
    2      C       0.7799490000    -6.1556380000    -1.3541180000
    3      C      -0.4152710000    -5.7914520000     0.7154080000
    4      C       0.9194370000    -4.8037860000    -1.5952590000
    5      H       1.2188010000    -6.8215180000    -2.1146130000
    6      C      -0.2688060000    -4.3786380000     0.4631330000
    7      C       0.3967440000    -3.8380320000    -0.6889250000
    8      C      -0.7908350000    -3.4130620000     1.3684490000
    9      C       0.5420260000    -2.4264730000    -0.9391890000
   10      C      -0.6526690000    -2.0593480000     1.1303630000
   11      C       0.0000000000    -1.4782160000     0.0000000000
   12      H      -1.0918140000    -1.3947830000     1.8918150000
   13      C      -1.1381240000    -6.1879870000     1.9637490000
   14      C      -1.5062410000    -3.7981640000     2.6073510000
   15      N      -1.6294430000    -5.1700030000     2.8173480000
   16      C       1.6366460000    -4.4249870000    -2.8376210000
   17      C       1.2644740000    -2.0366270000    -2.1889820000
   18      N       1.7562050000    -3.0491560000    -3.0426370000
   19      O      -1.3362580000    -7.3531310000     2.3012220000
   20      O      -1.9670560000    -2.9868540000     3.4073860000
   21      O       2.0921670000    -5.2489460000    -3.6280410000
   22      O       1.4721600000    -0.8788290000    -2.5458440000
   23      C      -2.3366420000    -5.5637990000     4.0401640000
   24      H      -2.3602450000    -6.6640850000     4.0787490000
   25      H      -3.3619680000    -5.1471010000     4.0278800000
   26      H      -1.8134240000    -5.1487850000     4.9228110000
   27      C       2.4521490000    -2.5874870000    -4.2471670000
   28      H       2.7725310000    -3.4833290000    -4.8042090000
   29      H       3.3226970000    -1.9649720000    -3.9659910000
   30      H       1.7745070000    -1.9629320000    -4.8596780000
   31      H       0.0339310000    -7.8223180000    -0.0623640000
   32      C       0.0000000000     0.0000000000     0.0000000000
   33      S       0.3350260000     0.7189420000     1.5805300000
   34      C       1.0271300000     2.2032260000     0.9049110000
   35      C       0.4216170000     0.9045570000    -0.9854000000
   36      C       0.9794850000     2.1011440000    -0.4935280000
   37      H       0.3220490000     0.6909780000    -2.0599340000
   38      H       1.3517180000     2.8995710000    -1.1525930000
   39      H       1.3992460000     3.0014300000     1.5560250000
 ----------------------------------------------------------------

   10   -1570.6749670199      8.84e-07  Convergence criterion met
 Total energy in the final basis set =    -1570.6749670199
        RIMP2         total energy =     -1575.3039524066 a.u.

                    Orbital Energies (a.u.)
 --------------------------------------------------------------

 Alpha MOs
 -- Occupied --
-91.9935 -20.5582 -20.5559 -20.5532 -20.5524 -15.6307 -15.6298 -11.3994
-11.3955 -11.3909 -11.3901 -11.3181 -11.3015 -11.2993 -11.2971 -11.2944
-11.2936 -11.2935 -11.2862 -11.2833 -11.2827 -11.2784 -11.2770 -11.2646
-11.2641 -11.2581 -11.2504  -8.9931  -6.6739  -6.6734  -6.6727  -1.4244
 -1.4239  -1.4038  -1.4029  -1.2669  -1.2646  -1.2160  -1.1775  -1.1434
 -1.1154  -1.0624  -1.0483  -0.9920  -0.9897  -0.9871  -0.9584  -0.9473
 -0.8960  -0.8785  -0.8764  -0.8608  -0.7952  -0.7774  -0.7723  -0.7623
 -0.7356  -0.7216  -0.7037  -0.6931  -0.6810  -0.6727  -0.6659  -0.6617
 -0.6554  -0.6409  -0.6363  -0.6334  -0.6274  -0.6122  -0.5886  -0.5835
 -0.5770  -0.5747  -0.5651  -0.5621  -0.5603  -0.5553  -0.5523  -0.5470
 -0.5342  -0.5242  -0.5220  -0.5182  -0.4817  -0.4688  -0.4644  -0.4636
 -0.4580  -0.4508  -0.4280  -0.4182  -0.4086  -0.3740  -0.3513  -0.3361
 -0.3007

          Ground-State Mulliken Net Atomic Charges

     Atom                 Charge (a.u.)
  ----------------------------------------
      1 C                    -0.146105
      2 C                    -0.109593
      3 C                    -0.034321
      4 C                    -0.005781
      5 H                     0.187737
      6 C                    -0.009463
      7 C                     0.080635
      8 C                     0.026570
      9 C                    -0.059010
     10 C                    -0.174275
     11 C                     0.099666
     12 H                     0.169698
     13 C                     0.360276
     14 C                     0.365678
     15 N                    -0.101328
     16 C                     0.359017
     17 C                     0.385205
     18 N                    -0.092557
     19 O                    -0.464545
     20 O                    -0.476360
     21 O                    -0.483360
     22 O                    -0.478104
     23 C                    -0.201194
     24 H                     0.140991
     25 H                     0.112361
     26 H                     0.112397
     27 C                    -0.197949
     28 H                     0.134382
     29 H                     0.112572
     30 H                     0.112022
     31 H                     0.212403
     32 C                    -0.052027
     33 S                     0.035791
     34 C                    -0.191883
     35 C                    -0.139258
     36 C                    -0.200746
     37 H                     0.201302
     38 H                     0.192780
     39 H                     0.216375
  ----------------------------------------
  Sum of atomic charges =     0.000000

                    Cartesian Multipole Moments
 -----------------------------------------------------------------
    Charge (ESU x 10^10)
                 0.0000
    Dipole Moment (Debye)
         X       1.1036      Y       2.3049      Z      -0.9623
       Tot       2.7307
    Quadrupole Moments (Debye-Ang)
        XX    -167.0779     XY       4.8868     YY    -170.7723
        XZ       9.4605     YZ       0.5094     ZZ    -173.1395

 Total job time:  251.43s(wall), 7998.29s(cpu)
        *  Thank you very much for using Q-Chem.  Have a nice day.  *
