 Q-Chem 5.4, Q-Chem, Inc., Pleasanton, CA (2021)
 Q-Chem 5.4.0 for Intel X86 EM64T Linux

User input:
--------------------------------------------------------------
$molecule
0 1
C	-0.129743	-6.741404	-0.221766
C	-0.782726	-6.155638	-1.352515
C	0.411926	-5.791452	0.717339
C	-0.921816	-4.803786	-1.593885
H	-1.221908	-6.821518	-2.112819
C	0.266682	-4.378638	0.464360
C	-0.398255	-3.838032	-0.688053
C	0.789694	-3.413062	1.369108
C	-0.542349	-2.426473	-0.939002
C	0.652589	-2.059348	1.130409
C	-0.000000	-1.478216	-0.000000
H	1.092453	-1.394783	1.891446
C	1.131595	-6.187987	1.967519
C	1.504912	-3.798164	2.608118
N	1.625174	-5.170003	2.819813
C	-1.639129	-4.424987	-2.836188
C	-1.263477	-2.036627	-2.189558
N	-1.756898	-3.049156	-3.042237
O	1.324787	-7.353131	2.307845
O	1.967354	-2.986854	3.407213
O	-2.095892	-5.248946	-3.625890
O	-1.468685	-0.878829	-2.547850
C	2.330564	-5.563799	4.043674
H	2.352178	-6.664085	4.083407
H	1.807263	-5.147101	4.925490
H	3.356568	-5.148785	4.031877
C	-2.452080	-2.587487	-4.247206
H	-2.774302	-3.483329	-4.803187
H	-1.773301	-1.964972	-4.860536
H	-3.321351	-1.962932	-3.966607
H	-0.037043	-7.822318	-0.060567
C	0.000000	0.000000	0.000000
S	0.137535	0.781156	1.580530
C	0.421895	2.393994	0.904911
C	0.173134	0.982857	-0.985400
C	0.402294	2.283058	-0.493528
H	0.132237	0.750786	-2.059934
H	0.555196	3.150621	-1.152593
H	0.574741	3.261310	1.556025
$end

$rem
JOBTYPE		SP
EXCHANGE	HF
CORRELATION	pRIMP2
BASIS		cc-pvtz
METHOD		rimp2
AUX_BASIS	rimp2-cc-pvtz
SOLVENT_METHOD	PCM
PURECART	11111
SYMMETRY	false
MEM_TOTAL	110000
SCF_CONVERGENCE = 6
THRESH=10
GUI = 2
$end

$solvent
dielectric 4.90
$end
--------------------------------------------------------------

             Standard Nuclear Orientation (Angstroms)
    I     Atom           X                Y                Z
 ----------------------------------------------------------------
    1      C      -0.1297430000    -6.7414040000    -0.2217660000
    2      C      -0.7827260000    -6.1556380000    -1.3525150000
    3      C       0.4119260000    -5.7914520000     0.7173390000
    4      C      -0.9218160000    -4.8037860000    -1.5938850000
    5      H      -1.2219080000    -6.8215180000    -2.1128190000
    6      C       0.2666820000    -4.3786380000     0.4643600000
    7      C      -0.3982550000    -3.8380320000    -0.6880530000
    8      C       0.7896940000    -3.4130620000     1.3691080000
    9      C      -0.5423490000    -2.4264730000    -0.9390020000
   10      C       0.6525890000    -2.0593480000     1.1304090000
   11      C       0.0000000000    -1.4782160000     0.0000000000
   12      H       1.0924530000    -1.3947830000     1.8914460000
   13      C       1.1315950000    -6.1879870000     1.9675190000
   14      C       1.5049120000    -3.7981640000     2.6081180000
   15      N       1.6251740000    -5.1700030000     2.8198130000
   16      C      -1.6391290000    -4.4249870000    -2.8361880000
   17      C      -1.2634770000    -2.0366270000    -2.1895580000
   18      N      -1.7568980000    -3.0491560000    -3.0422370000
   19      O       1.3247870000    -7.3531310000     2.3078450000
   20      O       1.9673540000    -2.9868540000     3.4072130000
   21      O      -2.0958920000    -5.2489460000    -3.6258900000
   22      O      -1.4686850000    -0.8788290000    -2.5478500000
   23      C       2.3305640000    -5.5637990000     4.0436740000
   24      H       2.3521780000    -6.6640850000     4.0834070000
   25      H       1.8072630000    -5.1471010000     4.9254900000
   26      H       3.3565680000    -5.1487850000     4.0318770000
   27      C      -2.4520800000    -2.5874870000    -4.2472060000
   28      H      -2.7743020000    -3.4833290000    -4.8031870000
   29      H      -1.7733010000    -1.9649720000    -4.8605360000
   30      H      -3.3213510000    -1.9629320000    -3.9666070000
   31      H      -0.0370430000    -7.8223180000    -0.0605670000
   32      C       0.0000000000     0.0000000000     0.0000000000
   33      S       0.1375350000     0.7811560000     1.5805300000
   34      C       0.4218950000     2.3939940000     0.9049110000
   35      C       0.1731340000     0.9828570000    -0.9854000000
   36      C       0.4022940000     2.2830580000    -0.4935280000
   37      H       0.1322370000     0.7507860000    -2.0599340000
   38      H       0.5551960000     3.1506210000    -1.1525930000
   39      H       0.5747410000     3.2613100000     1.5560250000
 ----------------------------------------------------------------

   10   -1570.6892378376      7.30e-07  Convergence criterion met
 Total energy in the final basis set =    -1570.6892378376
        RIMP2         total energy =     -1575.3159054275 a.u.

                    Orbital Energies (a.u.)
 --------------------------------------------------------------

 Alpha MOs
 -- Occupied --
-91.9935 -20.5585 -20.5564 -20.5551 -20.5540 -15.6312 -15.6302 -11.3999
-11.3958 -11.3916 -11.3907 -11.3185 -11.3023 -11.3010 -11.3000 -11.2964
-11.2957 -11.2922 -11.2886 -11.2869 -11.2843 -11.2796 -11.2773 -11.2646
-11.2645 -11.2584 -11.2512  -8.9932  -6.6740  -6.6735  -6.6729  -1.4249
 -1.4237  -1.4042  -1.4028  -1.2673  -1.2648  -1.2172  -1.1776  -1.1442
 -1.1166  -1.0638  -1.0495  -0.9926  -0.9904  -0.9865  -0.9588  -0.9476
 -0.8970  -0.8790  -0.8784  -0.8609  -0.7966  -0.7790  -0.7727  -0.7618
 -0.7365  -0.7179  -0.7047  -0.6947  -0.6811  -0.6735  -0.6662  -0.6620
 -0.6562  -0.6417  -0.6368  -0.6329  -0.6286  -0.6128  -0.5886  -0.5840
 -0.5794  -0.5730  -0.5659  -0.5630  -0.5617  -0.5557  -0.5526  -0.5477
 -0.5387  -0.5261  -0.5228  -0.5153  -0.4831  -0.4688  -0.4673  -0.4634
 -0.4598  -0.4528  -0.4284  -0.4184  -0.4093  -0.3730  -0.3545  -0.3366
 -0.3030

          Ground-State Mulliken Net Atomic Charges

     Atom                 Charge (a.u.)
  ----------------------------------------
      1 C                    -0.140415
      2 C                    -0.108841
      3 C                    -0.035357
      4 C                    -0.005229
      5 H                     0.188526
      6 C                     0.000993
      7 C                     0.072348
      8 C                     0.029914
      9 C                    -0.053374
     10 C                    -0.167912
     11 C                     0.082640
     12 H                     0.176074
     13 C                     0.359284
     14 C                     0.364375
     15 N                    -0.101634
     16 C                     0.359497
     17 C                     0.358278
     18 N                    -0.094101
     19 O                    -0.464465
     20 O                    -0.476132
     21 O                    -0.482320
     22 O                    -0.470431
     23 C                    -0.201113
     24 H                     0.141058
     25 H                     0.112517
     26 H                     0.112459
     27 C                    -0.196953
     28 H                     0.134026
     29 H                     0.112049
     30 H                     0.113126
     31 H                     0.213210
     32 C                    -0.034206
     33 S                     0.016687
     34 C                    -0.180916
     35 C                    -0.111178
     36 C                    -0.230194
     37 H                     0.200283
     38 H                     0.191491
     39 H                     0.215937
  ----------------------------------------
  Sum of atomic charges =     0.000000

                    Cartesian Multipole Moments
 -----------------------------------------------------------------
    Charge (ESU x 10^10)
                -0.0000
    Dipole Moment (Debye)
         X       0.5429      Y       1.8163      Z      -0.7972
       Tot       2.0564
    Quadrupole Moments (Debye-Ang)
        XX    -168.8998     XY       1.9674     YY    -166.8816
        XZ      -8.9042     YZ       0.9033     ZZ    -172.9993

 Total job time:  267.02s(wall), 8170.39s(cpu)
        *  Thank you very much for using Q-Chem.  Have a nice day.  *
