 Q-Chem 5.4, Q-Chem, Inc., Pleasanton, CA (2021)
 Q-Chem 5.4.0 for Intel X86 EM64T Linux

User input:
--------------------------------------------------------------
$molecule
0 1
C	0.166281	-6.741404	0.195868
C	1.005696	-6.155638	1.196048
C	-0.530233	-5.791452	-0.634911
C	1.184587	-4.803786	1.409599
H	1.570232	-6.821518	1.868538
C	-0.343266	-4.378638	-0.410996
C	0.511683	-3.838032	0.608444
C	-1.015440	-3.413062	-1.211179
C	0.697165	-2.426473	0.830559
C	-0.838968	-2.059348	-0.999915
C	-0.000000	-1.478216	-0.000000
H	-1.404302	-1.394783	-1.673009
C	-1.456059	-6.187987	-1.741129
C	-1.934944	-3.798164	-2.307170
N	-2.090139	-5.170003	-2.494766
C	2.106725	-4.424987	2.508468
C	1.624494	-2.036627	1.936893
N	2.258486	-3.049156	2.690936
O	-1.705414	-7.353131	-2.042736
O	-2.529122	-2.986854	-3.013823
O	2.693680	-5.248946	3.206857
O	1.888802	-0.878829	2.254108
C	-2.997334	-5.563799	-3.577543
H	-3.025519	-6.664085	-3.612920
H	-2.635109	-5.147101	-4.536833
H	-4.005702	-5.148785	-3.387762
C	3.152347	-2.587487	3.756883
H	3.566218	-3.483329	4.248464
H	2.590383	-1.964972	4.478763
H	3.959687	-1.962932	3.329599
H	0.046998	-7.822318	0.053215
C	0.000000	0.000000	0.000000
S	0.396411	0.687007	1.580530
C	1.215245	2.105322	0.904911
C	0.498850	0.864369	-0.985400
C	1.158885	2.007781	-0.493528
H	0.381046	0.660280	-2.059934
H	1.599289	2.770727	-1.152593
H	1.655514	2.868056	1.556025
$end

$rem
JOBTYPE		SP
EXCHANGE	HF
CORRELATION	pRIMP2
BASIS		cc-pvtz
METHOD		rimp2
AUX_BASIS	rimp2-cc-pvtz
SOLVENT_METHOD	PCM
PURECART	11111
SYMMETRY	false
MEM_TOTAL	110000
SCF_CONVERGENCE = 6
THRESH=10
GUI = 2
$end

$solvent
dielectric 4.90
$end
--------------------------------------------------------------

             Standard Nuclear Orientation (Angstroms)
    I     Atom           X                Y                Z
 ----------------------------------------------------------------
    1      C       0.1662810000    -6.7414040000     0.1958680000
    2      C       1.0056960000    -6.1556380000     1.1960480000
    3      C      -0.5302330000    -5.7914520000    -0.6349110000
    4      C       1.1845870000    -4.8037860000     1.4095990000
    5      H       1.5702320000    -6.8215180000     1.8685380000
    6      C      -0.3432660000    -4.3786380000    -0.4109960000
    7      C       0.5116830000    -3.8380320000     0.6084440000
    8      C      -1.0154400000    -3.4130620000    -1.2111790000
    9      C       0.6971650000    -2.4264730000     0.8305590000
   10      C      -0.8389680000    -2.0593480000    -0.9999150000
   11      C       0.0000000000    -1.4782160000     0.0000000000
   12      H      -1.4043020000    -1.3947830000    -1.6730090000
   13      C      -1.4560590000    -6.1879870000    -1.7411290000
   14      C      -1.9349440000    -3.7981640000    -2.3071700000
   15      N      -2.0901390000    -5.1700030000    -2.4947660000
   16      C       2.1067250000    -4.4249870000     2.5084680000
   17      C       1.6244940000    -2.0366270000     1.9368930000
   18      N       2.2584860000    -3.0491560000     2.6909360000
   19      O      -1.7054140000    -7.3531310000    -2.0427360000
   20      O      -2.5291220000    -2.9868540000    -3.0138230000
   21      O       2.6936800000    -5.2489460000     3.2068570000
   22      O       1.8888020000    -0.8788290000     2.2541080000
   23      C      -2.9973340000    -5.5637990000    -3.5775430000
   24      H      -3.0255190000    -6.6640850000    -3.6129200000
   25      H      -2.6351090000    -5.1471010000    -4.5368330000
   26      H      -4.0057020000    -5.1487850000    -3.3877620000
   27      C       3.1523470000    -2.5874870000     3.7568830000
   28      H       3.5662180000    -3.4833290000     4.2484640000
   29      H       2.5903830000    -1.9649720000     4.4787630000
   30      H       3.9596870000    -1.9629320000     3.3295990000
   31      H       0.0469980000    -7.8223180000     0.0532150000
   32      C       0.0000000000     0.0000000000     0.0000000000
   33      S       0.3964110000     0.6870070000     1.5805300000
   34      C       1.2152450000     2.1053220000     0.9049110000
   35      C       0.4988500000     0.8643690000    -0.9854000000
   36      C       1.1588850000     2.0077810000    -0.4935280000
   37      H       0.3810460000     0.6602800000    -2.0599340000
   38      H       1.5992890000     2.7707270000    -1.1525930000
   39      H       1.6555140000     2.8680560000     1.5560250000
 ----------------------------------------------------------------

   10   -1570.6281463046      9.96e-07  Convergence criterion met
 Total energy in the final basis set =    -1570.6281463046
        RIMP2         total energy =     -1575.2724286379 a.u.

                    Orbital Energies (a.u.)
 --------------------------------------------------------------

 Alpha MOs
 -- Occupied --
-91.9824 -20.5586 -20.5563 -20.5543 -20.5512 -15.6312 -15.6311 -11.3999
-11.3980 -11.3918 -11.3904 -11.3180 -11.3022 -11.3006 -11.2989 -11.2951
-11.2944 -11.2861 -11.2838 -11.2836 -11.2793 -11.2780 -11.2752 -11.2652
-11.2645 -11.2587 -11.2411  -8.9826  -6.6627  -6.6624  -6.6617  -1.4285
 -1.4248  -1.4060  -1.4041  -1.2684  -1.2660  -1.2163  -1.1725  -1.1418
 -1.1161  -1.0607  -1.0488  -0.9928  -0.9880  -0.9814  -0.9590  -0.9469
 -0.8964  -0.8796  -0.8755  -0.8622  -0.7917  -0.7772  -0.7750  -0.7581
 -0.7324  -0.7219  -0.7030  -0.6924  -0.6862  -0.6729  -0.6666  -0.6626
 -0.6568  -0.6418  -0.6390  -0.6362  -0.6281  -0.6131  -0.5847  -0.5823
 -0.5776  -0.5712  -0.5681  -0.5648  -0.5640  -0.5559  -0.5550  -0.5487
 -0.5353  -0.5243  -0.5212  -0.5138  -0.4823  -0.4703  -0.4635  -0.4617
 -0.4565  -0.4415  -0.4255  -0.4175  -0.4088  -0.3679  -0.3363  -0.3116
 -0.3022

          Ground-State Mulliken Net Atomic Charges

     Atom                 Charge (a.u.)
  ----------------------------------------
      1 C                    -0.144696
      2 C                    -0.107598
      3 C                    -0.034358
      4 C                    -0.006391
      5 H                     0.188082
      6 C                    -0.011213
      7 C                     0.080034
      8 C                     0.008337
      9 C                    -0.088800
     10 C                    -0.159620
     11 C                     0.103918
     12 H                     0.181402
     13 C                     0.360899
     14 C                     0.365049
     15 N                    -0.101370
     16 C                     0.358987
     17 C                     0.422223
     18 N                    -0.094549
     19 O                    -0.464256
     20 O                    -0.476090
     21 O                    -0.481855
     22 O                    -0.455050
     23 C                    -0.201069
     24 H                     0.141060
     25 H                     0.112123
     26 H                     0.112436
     27 C                    -0.197052
     28 H                     0.134518
     29 H                     0.112910
     30 H                     0.112783
     31 H                     0.212735
     32 C                    -0.086950
     33 S                     0.085317
     34 C                    -0.181212
     35 C                    -0.144916
     36 C                    -0.245351
     37 H                     0.192546
     38 H                     0.187899
     39 H                     0.209138
  ----------------------------------------
  Sum of atomic charges =     0.000000

                    Cartesian Multipole Moments
 -----------------------------------------------------------------
    Charge (ESU x 10^10)
                 0.0000
    Dipole Moment (Debye)
         X       1.6991      Y       1.0648      Z       0.0295
       Tot       2.0054
    Quadrupole Moments (Debye-Ang)
        XX    -169.2864     XY       4.8148     YY    -172.3594
        XZ      -8.0098     YZ       0.5086     ZZ    -167.9876

 Total job time:  249.76s(wall), 7928.72s(cpu)
        *  Thank you very much for using Q-Chem.  Have a nice day.  *
