 Q-Chem 5.4, Q-Chem, Inc., Pleasanton, CA (2021)
 Q-Chem 5.4.0 for Intel X86 EM64T Linux

User input:
--------------------------------------------------------------
$molecule
0 1
C	-0.086486	-6.741404	0.241938
C	-0.532960	-6.155638	1.468983
C	0.284733	-5.791452	-0.776651
C	-0.628455	-4.803786	1.730681
H	-0.833086	-6.821518	2.294130
C	0.184300	-4.378638	-0.502775
C	-0.271086	-3.838032	0.747353
C	0.541191	-3.413062	-1.484986
C	-0.370703	-2.426473	1.019042
C	0.446468	-2.059348	-1.226525
C	-0.000000	-1.478216	-0.000000
H	0.746717	-1.394783	-2.052666
C	0.779832	-6.187987	-2.131549
C	1.030596	-3.798164	-2.829295
N	1.115461	-5.170003	-3.057496
C	-1.119034	-4.424987	3.078712
C	-0.865151	-2.036627	2.375300
N	-1.201176	-3.049156	3.301374
O	0.916355	-7.353131	-2.498300
O	1.345486	-2.986854	-3.697195
O	-1.430379	-5.248946	3.936224
O	-1.007714	-0.878829	2.762805
C	1.599576	-5.563799	-4.384539
H	1.616121	-6.664085	-4.426636
H	2.611458	-5.147101	-4.550487
H	0.931037	-5.148785	-5.162921
C	-1.677382	-2.587487	4.608454
H	-1.896168	-3.483329	5.212668
H	-2.583531	-1.964972	4.482719
H	-0.903674	-1.962932	5.093988
H	-0.022586	-7.822318	0.067309
C	0.000000	0.000000	0.000000
S	0.335026	0.718942	1.580530
C	1.027130	2.203226	0.904911
C	0.421617	0.904557	-0.985400
C	0.979485	2.101144	-0.493528
H	0.322049	0.690978	-2.059934
H	1.351718	2.899571	-1.152593
H	1.399246	3.001430	1.556025
$end

$rem
JOBTYPE		SP
EXCHANGE	HF
CORRELATION	pRIMP2
BASIS		cc-pvtz
METHOD		rimp2
AUX_BASIS	rimp2-cc-pvtz
SOLVENT_METHOD	PCM
PURECART	11111
SYMMETRY	false
MEM_TOTAL	110000
SCF_CONVERGENCE = 6
THRESH=10
GUI = 2
$end

$solvent
dielectric 4.90
$end
--------------------------------------------------------------

             Standard Nuclear Orientation (Angstroms)
    I     Atom           X                Y                Z
 ----------------------------------------------------------------
    1      C      -0.0864860000    -6.7414040000     0.2419380000
    2      C      -0.5329600000    -6.1556380000     1.4689830000
    3      C       0.2847330000    -5.7914520000    -0.7766510000
    4      C      -0.6284550000    -4.8037860000     1.7306810000
    5      H      -0.8330860000    -6.8215180000     2.2941300000
    6      C       0.1843000000    -4.3786380000    -0.5027750000
    7      C      -0.2710860000    -3.8380320000     0.7473530000
    8      C       0.5411910000    -3.4130620000    -1.4849860000
    9      C      -0.3707030000    -2.4264730000     1.0190420000
   10      C       0.4464680000    -2.0593480000    -1.2265250000
   11      C       0.0000000000    -1.4782160000     0.0000000000
   12      H       0.7467170000    -1.3947830000    -2.0526660000
   13      C       0.7798320000    -6.1879870000    -2.1315490000
   14      C       1.0305960000    -3.7981640000    -2.8292950000
   15      N       1.1154610000    -5.1700030000    -3.0574960000
   16      C      -1.1190340000    -4.4249870000     3.0787120000
   17      C      -0.8651510000    -2.0366270000     2.3753000000
   18      N      -1.2011760000    -3.0491560000     3.3013740000
   19      O       0.9163550000    -7.3531310000    -2.4983000000
   20      O       1.3454860000    -2.9868540000    -3.6971950000
   21      O      -1.4303790000    -5.2489460000     3.9362240000
   22      O      -1.0077140000    -0.8788290000     2.7628050000
   23      C       1.5995760000    -5.5637990000    -4.3845390000
   24      H       1.6161210000    -6.6640850000    -4.4266360000
   25      H       2.6114580000    -5.1471010000    -4.5504870000
   26      H       0.9310370000    -5.1487850000    -5.1629210000
   27      C      -1.6773820000    -2.5874870000     4.6084540000
   28      H      -1.8961680000    -3.4833290000     5.2126680000
   29      H      -2.5835310000    -1.9649720000     4.4827190000
   30      H      -0.9036740000    -1.9629320000     5.0939880000
   31      H      -0.0225860000    -7.8223180000     0.0673090000
   32      C       0.0000000000     0.0000000000     0.0000000000
   33      S       0.3350260000     0.7189420000     1.5805300000
   34      C       1.0271300000     2.2032260000     0.9049110000
   35      C       0.4216170000     0.9045570000    -0.9854000000
   36      C       0.9794850000     2.1011440000    -0.4935280000
   37      H       0.3220490000     0.6909780000    -2.0599340000
   38      H       1.3517180000     2.8995710000    -1.1525930000
   39      H       1.3992460000     3.0014300000     1.5560250000
 ----------------------------------------------------------------

   10   -1570.6662051295      8.50e-07  Convergence criterion met
 Total energy in the final basis set =    -1570.6662051295
        RIMP2         total energy =     -1575.3007595888 a.u.

                    Orbital Energies (a.u.)
 --------------------------------------------------------------

 Alpha MOs
 -- Occupied --
-91.9827 -20.5586 -20.5567 -20.5566 -20.5533 -15.6313 -15.6305 -11.3999
-11.3970 -11.3911 -11.3909 -11.3202 -11.3019 -11.3002 -11.2975 -11.2946
-11.2935 -11.2881 -11.2868 -11.2828 -11.2817 -11.2787 -11.2773 -11.2650
-11.2647 -11.2645 -11.2475  -8.9822  -6.6627  -6.6618  -6.6612  -1.4275
 -1.4250  -1.4050  -1.4044  -1.2678  -1.2657  -1.2165  -1.1759  -1.1427
 -1.1160  -1.0619  -1.0488  -0.9926  -0.9896  -0.9846  -0.9587  -0.9469
 -0.8964  -0.8792  -0.8770  -0.8616  -0.7934  -0.7772  -0.7752  -0.7628
 -0.7320  -0.7204  -0.7040  -0.6934  -0.6869  -0.6746  -0.6667  -0.6626
 -0.6565  -0.6401  -0.6369  -0.6351  -0.6269  -0.6140  -0.5836  -0.5834
 -0.5815  -0.5724  -0.5703  -0.5660  -0.5643  -0.5556  -0.5551  -0.5487
 -0.5325  -0.5256  -0.5201  -0.5173  -0.4881  -0.4734  -0.4633  -0.4628
 -0.4569  -0.4336  -0.4236  -0.4137  -0.4079  -0.3743  -0.3478  -0.3364
 -0.2984

          Ground-State Mulliken Net Atomic Charges

     Atom                 Charge (a.u.)
  ----------------------------------------
      1 C                    -0.147009
      2 C                    -0.110423
      3 C                    -0.028992
      4 C                    -0.005387
      5 H                     0.188082
      6 C                     0.000418
      7 C                     0.083678
      8 C                     0.008891
      9 C                    -0.081709
     10 C                    -0.138621
     11 C                     0.073728
     12 H                     0.179627
     13 C                     0.358520
     14 C                     0.363832
     15 N                    -0.101823
     16 C                     0.358125
     17 C                     0.372090
     18 N                    -0.094153
     19 O                    -0.464139
     20 O                    -0.477690
     21 O                    -0.483049
     22 O                    -0.470705
     23 C                    -0.201323
     24 H                     0.141227
     25 H                     0.112328
     26 H                     0.112351
     27 C                    -0.197541
     28 H                     0.134391
     29 H                     0.113009
     30 H                     0.113095
     31 H                     0.212420
     32 C                     0.012587
     33 S                     0.098582
     34 C                    -0.212987
     35 C                    -0.203445
     36 C                    -0.206127
     37 H                     0.188292
     38 H                     0.189141
     39 H                     0.210709
  ----------------------------------------
  Sum of atomic charges =     0.000000

                    Cartesian Multipole Moments
 -----------------------------------------------------------------
    Charge (ESU x 10^10)
                 0.0000
    Dipole Moment (Debye)
         X       0.8419      Y       1.7264      Z      -0.5944
       Tot       2.0106
    Quadrupole Moments (Debye-Ang)
        XX    -164.5442     XY       4.1726     YY    -171.6622
        XZ       6.7738     YZ       0.8127     ZZ    -174.6082

 Total job time:  253.77s(wall), 7980.70s(cpu)
        *  Thank you very much for using Q-Chem.  Have a nice day.  *
