 Q-Chem 5.4, Q-Chem, Inc., Pleasanton, CA (2021)
 Q-Chem 5.4.0 for Intel X86 EM64T Linux

User input:
--------------------------------------------------------------
$molecule
0 1
C	-0.253280	-6.741404	-0.043160
C	-1.539213	-6.155638	-0.269777
C	0.814295	-5.791452	0.145543
C	-1.813519	-4.803786	-0.318377
H	-2.403941	-6.821518	-0.422058
C	0.527140	-4.378638	0.094194
C	-0.783072	-3.838032	-0.137191
C	1.556403	-3.413062	0.275104
C	-1.067932	-2.426473	-0.188116
C	1.285420	-2.059348	0.226701
C	-0.000000	-1.478216	-0.000000
H	2.151147	-1.394783	0.378931
C	2.234582	-6.187987	0.397845
C	2.965273	-3.798164	0.523637
N	3.204744	-5.170003	0.567586
C	-3.226257	-4.424987	-0.567421
C	-2.489446	-2.036627	-0.439541
N	-3.459801	-3.049156	-0.609650
O	2.619468	-7.353131	0.468608
O	3.874668	-2.986854	0.683034
O	-4.124806	-5.248946	-0.725131
O	-2.895819	-0.878829	-0.512648
C	4.595691	-5.563799	0.813908
H	4.640022	-6.664085	0.822891
H	4.934830	-5.147101	1.781600
H	5.246157	-5.148785	0.020360
C	-4.829716	-2.587487	-0.851649
H	-5.462742	-3.483329	-0.962191
H	-4.863242	-1.964972	-1.765865
H	-5.173521	-1.962932	-0.005383
H	-0.070208	-7.822318	-0.010555
C	0.000000	0.000000	0.000000
S	0.396411	0.687007	1.580530
C	1.215245	2.105322	0.904911
C	0.498850	0.864369	-0.985400
C	1.158885	2.007781	-0.493528
H	0.381046	0.660280	-2.059934
H	1.599289	2.770727	-1.152593
H	1.655514	2.868056	1.556025
$end

$rem
JOBTYPE		SP
EXCHANGE	HF
CORRELATION	pRIMP2
BASIS		cc-pvtz
METHOD		rimp2
AUX_BASIS	rimp2-cc-pvtz
SOLVENT_METHOD	PCM
PURECART	11111
SYMMETRY	false
MEM_TOTAL	110000
SCF_CONVERGENCE = 6
THRESH=10
GUI = 2
$end

$solvent
dielectric 4.90
$end
--------------------------------------------------------------

             Standard Nuclear Orientation (Angstroms)
    I     Atom           X                Y                Z
 ----------------------------------------------------------------
    1      C      -0.2532800000    -6.7414040000    -0.0431600000
    2      C      -1.5392130000    -6.1556380000    -0.2697770000
    3      C       0.8142950000    -5.7914520000     0.1455430000
    4      C      -1.8135190000    -4.8037860000    -0.3183770000
    5      H      -2.4039410000    -6.8215180000    -0.4220580000
    6      C       0.5271400000    -4.3786380000     0.0941940000
    7      C      -0.7830720000    -3.8380320000    -0.1371910000
    8      C       1.5564030000    -3.4130620000     0.2751040000
    9      C      -1.0679320000    -2.4264730000    -0.1881160000
   10      C       1.2854200000    -2.0593480000     0.2267010000
   11      C       0.0000000000    -1.4782160000     0.0000000000
   12      H       2.1511470000    -1.3947830000     0.3789310000
   13      C       2.2345820000    -6.1879870000     0.3978450000
   14      C       2.9652730000    -3.7981640000     0.5236370000
   15      N       3.2047440000    -5.1700030000     0.5675860000
   16      C      -3.2262570000    -4.4249870000    -0.5674210000
   17      C      -2.4894460000    -2.0366270000    -0.4395410000
   18      N      -3.4598010000    -3.0491560000    -0.6096500000
   19      O       2.6194680000    -7.3531310000     0.4686080000
   20      O       3.8746680000    -2.9868540000     0.6830340000
   21      O      -4.1248060000    -5.2489460000    -0.7251310000
   22      O      -2.8958190000    -0.8788290000    -0.5126480000
   23      C       4.5956910000    -5.5637990000     0.8139080000
   24      H       4.6400220000    -6.6640850000     0.8228910000
   25      H       4.9348300000    -5.1471010000     1.7816000000
   26      H       5.2461570000    -5.1487850000     0.0203600000
   27      C      -4.8297160000    -2.5874870000    -0.8516490000
   28      H      -5.4627420000    -3.4833290000    -0.9621910000
   29      H      -4.8632420000    -1.9649720000    -1.7658650000
   30      H      -5.1735210000    -1.9629320000    -0.0053830000
   31      H      -0.0702080000    -7.8223180000    -0.0105550000
   32      C       0.0000000000     0.0000000000     0.0000000000
   33      S       0.3964110000     0.6870070000     1.5805300000
   34      C       1.2152450000     2.1053220000     0.9049110000
   35      C       0.4988500000     0.8643690000    -0.9854000000
   36      C       1.1588850000     2.0077810000    -0.4935280000
   37      H       0.3810460000     0.6602800000    -2.0599340000
   38      H       1.5992890000     2.7707270000    -1.1525930000
   39      H       1.6555140000     2.8680560000     1.5560250000
 ----------------------------------------------------------------

   10   -1570.6776957402      7.55e-07  Convergence criterion met
 Total energy in the final basis set =    -1570.6776957402
        RIMP2         total energy =     -1575.3044835908 a.u.

                    Orbital Energies (a.u.)
 --------------------------------------------------------------

 Alpha MOs
 -- Occupied --
-91.9927 -20.5584 -20.5572 -20.5559 -20.5554 -15.6312 -15.6311 -11.4001
-11.3971 -11.3929 -11.3904 -11.3161 -11.3052 -11.3025 -11.3001 -11.2986
-11.2982 -11.2903 -11.2865 -11.2857 -11.2854 -11.2801 -11.2787 -11.2646
-11.2646 -11.2593 -11.2519  -8.9922  -6.6730  -6.6724  -6.6719  -1.4248
 -1.4243  -1.4040  -1.4034  -1.2676  -1.2653  -1.2179  -1.1788  -1.1437
 -1.1175  -1.0633  -1.0499  -0.9930  -0.9909  -0.9857  -0.9592  -0.9477
 -0.8975  -0.8793  -0.8775  -0.8601  -0.7956  -0.7775  -0.7733  -0.7610
 -0.7374  -0.7187  -0.7059  -0.6949  -0.6815  -0.6737  -0.6664  -0.6623
 -0.6570  -0.6423  -0.6378  -0.6341  -0.6300  -0.6128  -0.5854  -0.5845
 -0.5781  -0.5744  -0.5673  -0.5641  -0.5619  -0.5552  -0.5530  -0.5484
 -0.5377  -0.5271  -0.5209  -0.5091  -0.4835  -0.4718  -0.4672  -0.4615
 -0.4605  -0.4536  -0.4281  -0.4182  -0.4086  -0.3647  -0.3426  -0.3339
 -0.3243

          Ground-State Mulliken Net Atomic Charges

     Atom                 Charge (a.u.)
  ----------------------------------------
      1 C                    -0.131421
      2 C                    -0.110671
      3 C                    -0.042435
      4 C                     0.001483
      5 H                     0.188634
      6 C                     0.002961
      7 C                     0.075655
      8 C                    -0.011741
      9 C                    -0.014342
     10 C                    -0.085295
     11 C                    -0.007520
     12 H                     0.190337
     13 C                     0.360739
     14 C                     0.363119
     15 N                    -0.101478
     16 C                     0.359710
     17 C                     0.357728
     18 N                    -0.098325
     19 O                    -0.465196
     20 O                    -0.476940
     21 O                    -0.479599
     22 O                    -0.458664
     23 C                    -0.201263
     24 H                     0.141088
     25 H                     0.112439
     26 H                     0.112305
     27 C                    -0.196046
     28 H                     0.133628
     29 H                     0.112962
     30 H                     0.113542
     31 H                     0.214285
     32 C                     0.009583
     33 S                     0.028476
     34 C                    -0.204137
     35 C                    -0.194293
     36 C                    -0.191953
     37 H                     0.187595
     38 H                     0.193261
     39 H                     0.211790
  ----------------------------------------
  Sum of atomic charges =     0.000000

                    Cartesian Multipole Moments
 -----------------------------------------------------------------
    Charge (ESU x 10^10)
                 0.0000
    Dipole Moment (Debye)
         X       1.1396      Y       0.9180      Z      -0.9366
       Tot       1.7374
    Quadrupole Moments (Debye-Ang)
        XX    -181.0975     XY       6.1887     YY    -167.6913
        XZ      -3.1305     YZ       0.9246     ZZ    -157.9106

 Total job time:  266.56s(wall), 8549.72s(cpu)
        *  Thank you very much for using Q-Chem.  Have a nice day.  *
