 Q-Chem 5.4, Q-Chem, Inc., Pleasanton, CA (2021)
 Q-Chem 5.4.0 for Intel X86 EM64T Linux

User input:
--------------------------------------------------------------
$molecule
0 1
C	0.129743	-6.741404	0.221766
C	0.782726	-6.155638	1.352515
C	-0.411926	-5.791452	-0.717339
C	0.921816	-4.803786	1.593885
H	1.221908	-6.821518	2.112819
C	-0.266682	-4.378638	-0.464360
C	0.398255	-3.838032	0.688053
C	-0.789694	-3.413062	-1.369108
C	0.542349	-2.426473	0.939002
C	-0.652589	-2.059348	-1.130409
C	-0.000000	-1.478216	-0.000000
H	-1.092453	-1.394783	-1.891446
C	-1.131595	-6.187987	-1.967519
C	-1.504912	-3.798164	-2.608118
N	-1.625174	-5.170003	-2.819813
C	1.639129	-4.424987	2.836188
C	1.263477	-2.036627	2.189558
N	1.756898	-3.049156	3.042237
O	-1.324787	-7.353131	-2.307845
O	-1.967354	-2.986854	-3.407213
O	2.095892	-5.248946	3.625890
O	1.468685	-0.878829	2.547850
C	-2.330564	-5.563799	-4.043674
H	-2.352178	-6.664085	-4.083407
H	-1.807263	-5.147101	-4.925490
H	-3.356568	-5.148785	-4.031877
C	2.452080	-2.587487	4.247206
H	2.774302	-3.483329	4.803187
H	1.773301	-1.964972	4.860536
H	3.321351	-1.962932	3.966607
H	0.037043	-7.822318	0.060567
C	0.000000	0.000000	0.000000
S	0.335026	0.718942	1.580530
C	1.027130	2.203226	0.904911
C	0.421617	0.904557	-0.985400
C	0.979485	2.101144	-0.493528
H	0.322049	0.690978	-2.059934
H	1.351718	2.899571	-1.152593
H	1.399246	3.001430	1.556025
$end

$rem
JOBTYPE		SP
EXCHANGE	HF
CORRELATION	pRIMP2
BASIS		cc-pvtz
METHOD		rimp2
AUX_BASIS	rimp2-cc-pvtz
SOLVENT_METHOD	PCM
PURECART	11111
SYMMETRY	false
MEM_TOTAL	110000
SCF_CONVERGENCE = 6
THRESH=10
GUI = 2
$end

$solvent
dielectric 4.90
$end
--------------------------------------------------------------

             Standard Nuclear Orientation (Angstroms)
    I     Atom           X                Y                Z
 ----------------------------------------------------------------
    1      C       0.1297430000    -6.7414040000     0.2217660000
    2      C       0.7827260000    -6.1556380000     1.3525150000
    3      C      -0.4119260000    -5.7914520000    -0.7173390000
    4      C       0.9218160000    -4.8037860000     1.5938850000
    5      H       1.2219080000    -6.8215180000     2.1128190000
    6      C      -0.2666820000    -4.3786380000    -0.4643600000
    7      C       0.3982550000    -3.8380320000     0.6880530000
    8      C      -0.7896940000    -3.4130620000    -1.3691080000
    9      C       0.5423490000    -2.4264730000     0.9390020000
   10      C      -0.6525890000    -2.0593480000    -1.1304090000
   11      C       0.0000000000    -1.4782160000     0.0000000000
   12      H      -1.0924530000    -1.3947830000    -1.8914460000
   13      C      -1.1315950000    -6.1879870000    -1.9675190000
   14      C      -1.5049120000    -3.7981640000    -2.6081180000
   15      N      -1.6251740000    -5.1700030000    -2.8198130000
   16      C       1.6391290000    -4.4249870000     2.8361880000
   17      C       1.2634770000    -2.0366270000     2.1895580000
   18      N       1.7568980000    -3.0491560000     3.0422370000
   19      O      -1.3247870000    -7.3531310000    -2.3078450000
   20      O      -1.9673540000    -2.9868540000    -3.4072130000
   21      O       2.0958920000    -5.2489460000     3.6258900000
   22      O       1.4686850000    -0.8788290000     2.5478500000
   23      C      -2.3305640000    -5.5637990000    -4.0436740000
   24      H      -2.3521780000    -6.6640850000    -4.0834070000
   25      H      -1.8072630000    -5.1471010000    -4.9254900000
   26      H      -3.3565680000    -5.1487850000    -4.0318770000
   27      C       2.4520800000    -2.5874870000     4.2472060000
   28      H       2.7743020000    -3.4833290000     4.8031870000
   29      H       1.7733010000    -1.9649720000     4.8605360000
   30      H       3.3213510000    -1.9629320000     3.9666070000
   31      H       0.0370430000    -7.8223180000     0.0605670000
   32      C       0.0000000000     0.0000000000     0.0000000000
   33      S       0.3350260000     0.7189420000     1.5805300000
   34      C       1.0271300000     2.2032260000     0.9049110000
   35      C       0.4216170000     0.9045570000    -0.9854000000
   36      C       0.9794850000     2.1011440000    -0.4935280000
   37      H       0.3220490000     0.6909780000    -2.0599340000
   38      H       1.3517180000     2.8995710000    -1.1525930000
   39      H       1.3992460000     3.0014300000     1.5560250000
 ----------------------------------------------------------------

   10   -1570.6243725021      9.97e-07  Convergence criterion met
 Total energy in the final basis set =    -1570.6243725021
        RIMP2         total energy =     -1575.2697067360 a.u.

                    Orbital Energies (a.u.)
 --------------------------------------------------------------

 Alpha MOs
 -- Occupied --
-91.9828 -20.5588 -20.5566 -20.5545 -20.5536 -15.6323 -15.6313 -11.4005
-11.4000 -11.3920 -11.3907 -11.3197 -11.3023 -11.3009 -11.2982 -11.2947
-11.2936 -11.2869 -11.2832 -11.2802 -11.2793 -11.2792 -11.2762 -11.2657
-11.2646 -11.2570 -11.2385  -8.9828  -6.6631  -6.6622  -6.6614  -1.4320
 -1.4250  -1.4075  -1.4044  -1.2697  -1.2664  -1.2165  -1.1716  -1.1416
 -1.1162  -1.0607  -1.0491  -0.9931  -0.9885  -0.9807  -0.9594  -0.9466
 -0.8972  -0.8801  -0.8764  -0.8629  -0.7921  -0.7779  -0.7761  -0.7578
 -0.7321  -0.7250  -0.7028  -0.6920  -0.6883  -0.6735  -0.6675  -0.6631
 -0.6572  -0.6407  -0.6400  -0.6365  -0.6278  -0.6139  -0.5845  -0.5819
 -0.5791  -0.5737  -0.5684  -0.5647  -0.5630  -0.5562  -0.5558  -0.5491
 -0.5342  -0.5239  -0.5219  -0.5170  -0.4842  -0.4705  -0.4664  -0.4634
 -0.4567  -0.4361  -0.4230  -0.4149  -0.4090  -0.3711  -0.3369  -0.3107
 -0.2974

          Ground-State Mulliken Net Atomic Charges

     Atom                 Charge (a.u.)
  ----------------------------------------
      1 C                    -0.147559
      2 C                    -0.108305
      3 C                    -0.032131
      4 C                    -0.007065
      5 H                     0.188004
      6 C                    -0.008612
      7 C                     0.085169
      8 C                     0.005419
      9 C                    -0.103216
     10 C                    -0.154597
     11 C                     0.099136
     12 H                     0.182230
     13 C                     0.360599
     14 C                     0.364911
     15 N                    -0.101457
     16 C                     0.359305
     17 C                     0.418936
     18 N                    -0.094086
     19 O                    -0.463957
     20 O                    -0.476009
     21 O                    -0.481646
     22 O                    -0.446001
     23 C                    -0.201074
     24 H                     0.141126
     25 H                     0.112228
     26 H                     0.112484
     27 C                    -0.198266
     28 H                     0.134964
     29 H                     0.113362
     30 H                     0.113272
     31 H                     0.212383
     32 C                    -0.077059
     33 S                     0.104262
     34 C                    -0.195001
     35 C                    -0.141805
     36 C                    -0.254437
     37 H                     0.190194
     38 H                     0.185847
     39 H                     0.208454
  ----------------------------------------
  Sum of atomic charges =     0.000000

                    Cartesian Multipole Moments
 -----------------------------------------------------------------
    Charge (ESU x 10^10)
                 0.0000
    Dipole Moment (Debye)
         X       1.3648      Y       1.0010      Z       0.2619
       Tot       1.7127
    Quadrupole Moments (Debye-Ang)
        XX    -166.8500     XY       3.9897     YY    -172.3654
        XZ      -6.8062     YZ       0.6038     ZZ    -170.6804

 Total job time:  252.71s(wall), 7999.10s(cpu)
        *  Thank you very much for using Q-Chem.  Have a nice day.  *
