 Q-Chem 5.4, Q-Chem, Inc., Pleasanton, CA (2021)
 Q-Chem 5.4.0 for Intel X86 EM64T Linux

User input:
--------------------------------------------------------------
$molecule
0 1
C	-0.223244	-6.741404	-0.127184
C	-1.354118	-6.155638	-0.779949
C	0.715408	-5.791452	0.415271
C	-1.595259	-4.803786	-0.919437
H	-2.114613	-6.821518	-1.218801
C	0.463133	-4.378638	0.268806
C	-0.688925	-3.838032	-0.396744
C	1.368449	-3.413062	0.790835
C	-0.939189	-2.426473	-0.542026
C	1.130363	-2.059348	0.652669
C	-0.000000	-1.478216	-0.000000
H	1.891815	-1.394783	1.091814
C	1.963749	-6.187987	1.138124
C	2.607351	-3.798164	1.506241
N	2.817348	-5.170003	1.629443
C	-2.837621	-4.424987	-1.636646
C	-2.188982	-2.036627	-1.264474
N	-3.042637	-3.049156	-1.756205
O	2.301222	-7.353131	1.336258
O	3.407386	-2.986854	1.967056
O	-3.628041	-5.248946	-2.092167
O	-2.545844	-0.878829	-1.472160
C	4.040164	-5.563799	2.336642
H	4.078749	-6.664085	2.360245
H	4.027880	-5.147101	3.361968
H	4.922811	-5.148785	1.813424
C	-4.247167	-2.587487	-2.452149
H	-4.804209	-3.483329	-2.772531
H	-3.965991	-1.964972	-3.322697
H	-4.859678	-1.962932	-1.774507
H	-0.062364	-7.822318	-0.033931
C	0.000000	0.000000	0.000000
S	0.335026	0.718942	1.580530
C	1.027130	2.203226	0.904911
C	0.421617	0.904557	-0.985400
C	0.979485	2.101144	-0.493528
H	0.322049	0.690978	-2.059934
H	1.351718	2.899571	-1.152593
H	1.399246	3.001430	1.556025
$end

$rem
JOBTYPE		SP
EXCHANGE	HF
CORRELATION	pRIMP2
BASIS		cc-pvtz
METHOD		rimp2
AUX_BASIS	rimp2-cc-pvtz
SOLVENT_METHOD	PCM
PURECART	11111
SYMMETRY	false
MEM_TOTAL	110000
SCF_CONVERGENCE = 6
THRESH=10
GUI = 2
$end

$solvent
dielectric 4.90
$end
--------------------------------------------------------------

             Standard Nuclear Orientation (Angstroms)
    I     Atom           X                Y                Z
 ----------------------------------------------------------------
    1      C      -0.2232440000    -6.7414040000    -0.1271840000
    2      C      -1.3541180000    -6.1556380000    -0.7799490000
    3      C       0.7154080000    -5.7914520000     0.4152710000
    4      C      -1.5952590000    -4.8037860000    -0.9194370000
    5      H      -2.1146130000    -6.8215180000    -1.2188010000
    6      C       0.4631330000    -4.3786380000     0.2688060000
    7      C      -0.6889250000    -3.8380320000    -0.3967440000
    8      C       1.3684490000    -3.4130620000     0.7908350000
    9      C      -0.9391890000    -2.4264730000    -0.5420260000
   10      C       1.1303630000    -2.0593480000     0.6526690000
   11      C       0.0000000000    -1.4782160000     0.0000000000
   12      H       1.8918150000    -1.3947830000     1.0918140000
   13      C       1.9637490000    -6.1879870000     1.1381240000
   14      C       2.6073510000    -3.7981640000     1.5062410000
   15      N       2.8173480000    -5.1700030000     1.6294430000
   16      C      -2.8376210000    -4.4249870000    -1.6366460000
   17      C      -2.1889820000    -2.0366270000    -1.2644740000
   18      N      -3.0426370000    -3.0491560000    -1.7562050000
   19      O       2.3012220000    -7.3531310000     1.3362580000
   20      O       3.4073860000    -2.9868540000     1.9670560000
   21      O      -3.6280410000    -5.2489460000    -2.0921670000
   22      O      -2.5458440000    -0.8788290000    -1.4721600000
   23      C       4.0401640000    -5.5637990000     2.3366420000
   24      H       4.0787490000    -6.6640850000     2.3602450000
   25      H       4.0278800000    -5.1471010000     3.3619680000
   26      H       4.9228110000    -5.1487850000     1.8134240000
   27      C      -4.2471670000    -2.5874870000    -2.4521490000
   28      H      -4.8042090000    -3.4833290000    -2.7725310000
   29      H      -3.9659910000    -1.9649720000    -3.3226970000
   30      H      -4.8596780000    -1.9629320000    -1.7745070000
   31      H      -0.0623640000    -7.8223180000    -0.0339310000
   32      C       0.0000000000     0.0000000000     0.0000000000
   33      S       0.3350260000     0.7189420000     1.5805300000
   34      C       1.0271300000     2.2032260000     0.9049110000
   35      C       0.4216170000     0.9045570000    -0.9854000000
   36      C       0.9794850000     2.1011440000    -0.4935280000
   37      H       0.3220490000     0.6909780000    -2.0599340000
   38      H       1.3517180000     2.8995710000    -1.1525930000
   39      H       1.3992460000     3.0014300000     1.5560250000
 ----------------------------------------------------------------

   10   -1570.6815942075      7.17e-07  Convergence criterion met
 Total energy in the final basis set =    -1570.6815942075
        RIMP2         total energy =     -1575.3082417909 a.u.

                    Orbital Energies (a.u.)
 --------------------------------------------------------------

 Alpha MOs
 -- Occupied --
-91.9924 -20.5585 -20.5564 -20.5560 -20.5550 -15.6311 -15.6307 -11.4000
-11.3965 -11.3925 -11.3904 -11.3168 -11.3038 -11.3025 -11.3001 -11.2979
-11.2975 -11.2916 -11.2863 -11.2858 -11.2858 -11.2800 -11.2775 -11.2646
-11.2645 -11.2601 -11.2517  -8.9920  -6.6728  -6.6723  -6.6717  -1.4248
 -1.4239  -1.4040  -1.4030  -1.2674  -1.2651  -1.2177  -1.1784  -1.1438
 -1.1172  -1.0635  -1.0497  -0.9928  -0.9907  -0.9860  -0.9590  -0.9476
 -0.8973  -0.8791  -0.8777  -0.8602  -0.7960  -0.7780  -0.7730  -0.7609
 -0.7376  -0.7177  -0.7059  -0.6951  -0.6809  -0.6734  -0.6663  -0.6622
 -0.6567  -0.6421  -0.6375  -0.6335  -0.6297  -0.6127  -0.5859  -0.5842
 -0.5787  -0.5740  -0.5670  -0.5640  -0.5611  -0.5552  -0.5527  -0.5482
 -0.5396  -0.5270  -0.5208  -0.5102  -0.4835  -0.4707  -0.4674  -0.4631
 -0.4601  -0.4534  -0.4281  -0.4182  -0.4087  -0.3652  -0.3504  -0.3353
 -0.3145

          Ground-State Mulliken Net Atomic Charges

     Atom                 Charge (a.u.)
  ----------------------------------------
      1 C                    -0.133547
      2 C                    -0.109106
      3 C                    -0.041188
      4 C                    -0.000497
      5 H                     0.188686
      6 C                     0.003164
      7 C                     0.071685
      8 C                     0.000432
      9 C                    -0.024313
     10 C                    -0.112556
     11 C                     0.033656
     12 H                     0.190705
     13 C                     0.360261
     14 C                     0.363253
     15 N                    -0.101508
     16 C                     0.359303
     17 C                     0.351411
     18 N                    -0.097279
     19 O                    -0.465042
     20 O                    -0.476307
     21 O                    -0.480382
     22 O                    -0.462191
     23 C                    -0.201172
     24 H                     0.141035
     25 H                     0.112490
     26 H                     0.112330
     27 C                    -0.196231
     28 H                     0.133723
     29 H                     0.112512
     30 H                     0.113533
     31 H                     0.213944
     32 C                    -0.010462
     33 S                     0.019412
     34 C                    -0.196258
     35 C                    -0.161555
     36 C                    -0.206821
     37 H                     0.189841
     38 H                     0.192607
     39 H                     0.212432
  ----------------------------------------
  Sum of atomic charges =     0.000000

                    Cartesian Multipole Moments
 -----------------------------------------------------------------
    Charge (ESU x 10^10)
                 0.0000
    Dipole Moment (Debye)
         X       1.0689      Y       1.1439      Z      -0.9039
       Tot       1.8078
    Quadrupole Moments (Debye-Ang)
        XX    -177.4955     XY       5.1803     YY    -167.3324
        XZ      -8.6089     YZ       1.1586     ZZ    -162.4710

 Total job time:  247.93s(wall), 7831.51s(cpu)
        *  Thank you very much for using Q-Chem.  Have a nice day.  *
