 Q-Chem 5.4, Q-Chem, Inc., Pleasanton, CA (2021)
 Q-Chem 5.4.0 for Intel X86 EM64T Linux

User input:
--------------------------------------------------------------
$molecule
0 1
C	0.253280	-6.741404	0.043160
C	1.539213	-6.155638	0.269777
C	-0.814295	-5.791452	-0.145543
C	1.813519	-4.803786	0.318377
H	2.403941	-6.821518	0.422058
C	-0.527140	-4.378638	-0.094194
C	0.783072	-3.838032	0.137191
C	-1.556403	-3.413062	-0.275104
C	1.067932	-2.426473	0.188116
C	-1.285420	-2.059348	-0.226701
C	-0.000000	-1.478216	-0.000000
H	-2.151147	-1.394783	-0.378931
C	-2.234582	-6.187987	-0.397845
C	-2.965273	-3.798164	-0.523637
N	-3.204744	-5.170003	-0.567586
C	3.226257	-4.424987	0.567421
C	2.489446	-2.036627	0.439541
N	3.459801	-3.049156	0.609650
O	-2.619468	-7.353131	-0.468608
O	-3.874668	-2.986854	-0.683034
O	4.124806	-5.248946	0.725131
O	2.895819	-0.878829	0.512648
C	-4.595691	-5.563799	-0.813908
H	-4.640022	-6.664085	-0.822891
H	-4.934830	-5.147101	-1.781600
H	-5.246157	-5.148785	-0.020360
C	4.829716	-2.587487	0.851649
H	5.462742	-3.483329	0.962191
H	4.863242	-1.964972	1.765865
H	5.173521	-1.962932	0.005383
H	0.070208	-7.822318	0.010555
C	0.000000	0.000000	0.000000
S	0.271091	0.745405	1.580530
C	0.831198	2.284363	0.904911
C	0.341175	0.937861	-0.985400
C	0.792631	2.178516	-0.493528
H	0.260601	0.716417	-2.059934
H	1.093860	3.006347	-1.152593
H	1.132330	3.111961	1.556025
$end

$rem
JOBTYPE		SP
EXCHANGE	HF
CORRELATION	pRIMP2
BASIS		cc-pvtz
METHOD		rimp2
AUX_BASIS	rimp2-cc-pvtz
SOLVENT_METHOD	PCM
PURECART	11111
SYMMETRY	false
MEM_TOTAL	110000
SCF_CONVERGENCE = 6
THRESH=10
GUI = 2
$end

$solvent
dielectric 4.90
$end
--------------------------------------------------------------

             Standard Nuclear Orientation (Angstroms)
    I     Atom           X                Y                Z
 ----------------------------------------------------------------
    1      C       0.2532800000    -6.7414040000     0.0431600000
    2      C       1.5392130000    -6.1556380000     0.2697770000
    3      C      -0.8142950000    -5.7914520000    -0.1455430000
    4      C       1.8135190000    -4.8037860000     0.3183770000
    5      H       2.4039410000    -6.8215180000     0.4220580000
    6      C      -0.5271400000    -4.3786380000    -0.0941940000
    7      C       0.7830720000    -3.8380320000     0.1371910000
    8      C      -1.5564030000    -3.4130620000    -0.2751040000
    9      C       1.0679320000    -2.4264730000     0.1881160000
   10      C      -1.2854200000    -2.0593480000    -0.2267010000
   11      C       0.0000000000    -1.4782160000     0.0000000000
   12      H      -2.1511470000    -1.3947830000    -0.3789310000
   13      C      -2.2345820000    -6.1879870000    -0.3978450000
   14      C      -2.9652730000    -3.7981640000    -0.5236370000
   15      N      -3.2047440000    -5.1700030000    -0.5675860000
   16      C       3.2262570000    -4.4249870000     0.5674210000
   17      C       2.4894460000    -2.0366270000     0.4395410000
   18      N       3.4598010000    -3.0491560000     0.6096500000
   19      O      -2.6194680000    -7.3531310000    -0.4686080000
   20      O      -3.8746680000    -2.9868540000    -0.6830340000
   21      O       4.1248060000    -5.2489460000     0.7251310000
   22      O       2.8958190000    -0.8788290000     0.5126480000
   23      C      -4.5956910000    -5.5637990000    -0.8139080000
   24      H      -4.6400220000    -6.6640850000    -0.8228910000
   25      H      -4.9348300000    -5.1471010000    -1.7816000000
   26      H      -5.2461570000    -5.1487850000    -0.0203600000
   27      C       4.8297160000    -2.5874870000     0.8516490000
   28      H       5.4627420000    -3.4833290000     0.9621910000
   29      H       4.8632420000    -1.9649720000     1.7658650000
   30      H       5.1735210000    -1.9629320000     0.0053830000
   31      H       0.0702080000    -7.8223180000     0.0105550000
   32      C       0.0000000000     0.0000000000     0.0000000000
   33      S       0.2710910000     0.7454050000     1.5805300000
   34      C       0.8311980000     2.2843630000     0.9049110000
   35      C       0.3411750000     0.9378610000    -0.9854000000
   36      C       0.7926310000     2.1785160000    -0.4935280000
   37      H       0.2606010000     0.7164170000    -2.0599340000
   38      H       1.0938600000     3.0063470000    -1.1525930000
   39      H       1.1323300000     3.1119610000     1.5560250000
 ----------------------------------------------------------------

   10   -1570.6815879245      7.44e-07  Convergence criterion met
 Total energy in the final basis set =    -1570.6815879245
        RIMP2         total energy =     -1575.3082124912 a.u.

                    Orbital Energies (a.u.)
 --------------------------------------------------------------

 Alpha MOs
 -- Occupied --
-91.9888 -20.5586 -20.5561 -20.5560 -20.5552 -15.6312 -15.6306 -11.4003
-11.3959 -11.3928 -11.3903 -11.3146 -11.3072 -11.3030 -11.3012 -11.2993
-11.2990 -11.2875 -11.2870 -11.2855 -11.2831 -11.2809 -11.2769 -11.2646
-11.2645 -11.2577 -11.2491  -8.9881  -6.6690  -6.6684  -6.6679  -1.4249
 -1.4238  -1.4042  -1.4029  -1.2675  -1.2651  -1.2178  -1.1739  -1.1440
 -1.1178  -1.0627  -1.0501  -0.9931  -0.9887  -0.9822  -0.9592  -0.9488
 -0.8970  -0.8798  -0.8768  -0.8614  -0.7945  -0.7771  -0.7732  -0.7593
 -0.7362  -0.7190  -0.7053  -0.6951  -0.6803  -0.6725  -0.6663  -0.6622
 -0.6571  -0.6425  -0.6375  -0.6342  -0.6301  -0.6125  -0.5853  -0.5843
 -0.5776  -0.5727  -0.5662  -0.5641  -0.5621  -0.5552  -0.5529  -0.5485
 -0.5358  -0.5266  -0.5205  -0.5106  -0.4827  -0.4705  -0.4654  -0.4602
 -0.4575  -0.4524  -0.4281  -0.4182  -0.4089  -0.3540  -0.3489  -0.3332
 -0.3239

          Ground-State Mulliken Net Atomic Charges

     Atom                 Charge (a.u.)
  ----------------------------------------
      1 C                    -0.129789
      2 C                    -0.107888
      3 C                    -0.044175
      4 C                    -0.000617
      5 H                     0.188765
      6 C                    -0.005293
      7 C                     0.068407
      8 C                     0.013344
      9 C                     0.008433
     10 C                    -0.144220
     11 C                     0.070656
     12 H                     0.179200
     13 C                     0.361129
     14 C                     0.368277
     15 N                    -0.101742
     16 C                     0.358421
     17 C                     0.365062
     18 N                    -0.095485
     19 O                    -0.464865
     20 O                    -0.476146
     21 O                    -0.480245
     22 O                    -0.456264
     23 C                    -0.201018
     24 H                     0.141050
     25 H                     0.112268
     26 H                     0.112564
     27 C                    -0.196443
     28 H                     0.133621
     29 H                     0.113246
     30 H                     0.112927
     31 H                     0.214615
     32 C                    -0.057514
     33 S                     0.034248
     34 C                    -0.202420
     35 C                    -0.184868
     36 C                    -0.197686
     37 H                     0.188574
     38 H                     0.190987
     39 H                     0.210883
  ----------------------------------------
  Sum of atomic charges =     0.000000

                    Cartesian Multipole Moments
 -----------------------------------------------------------------
    Charge (ESU x 10^10)
                 0.0000
    Dipole Moment (Debye)
         X       0.9309      Y       0.8453      Z      -0.8994
       Tot       1.5459
    Quadrupole Moments (Debye-Ang)
        XX    -182.5829     XY       2.7265     YY    -165.5597
        XZ      -3.0392     YZ       0.4370     ZZ    -158.0992

 Total job time:  265.60s(wall), 8359.56s(cpu)
        *  Thank you very much for using Q-Chem.  Have a nice day.  *
