 Q-Chem 5.4, Q-Chem, Inc., Pleasanton, CA (2021)
 Q-Chem 5.4.0 for Intel X86 EM64T Linux

User input:
--------------------------------------------------------------
$molecule
0 1
C	0.253280	-6.741404	0.043160
C	1.539213	-6.155638	0.269777
C	-0.814295	-5.791452	-0.145543
C	1.813519	-4.803786	0.318377
H	2.403941	-6.821518	0.422058
C	-0.527140	-4.378638	-0.094194
C	0.783072	-3.838032	0.137191
C	-1.556403	-3.413062	-0.275104
C	1.067932	-2.426473	0.188116
C	-1.285420	-2.059348	-0.226701
C	-0.000000	-1.478216	-0.000000
H	-2.151147	-1.394783	-0.378931
C	-2.234582	-6.187987	-0.397845
C	-2.965273	-3.798164	-0.523637
N	-3.204744	-5.170003	-0.567586
C	3.226257	-4.424987	0.567421
C	2.489446	-2.036627	0.439541
N	3.459801	-3.049156	0.609650
O	-2.619468	-7.353131	-0.468608
O	-3.874668	-2.986854	-0.683034
O	4.124806	-5.248946	0.725131
O	2.895819	-0.878829	0.512648
C	-4.595691	-5.563799	-0.813908
H	-4.640022	-6.664085	-0.822891
H	-4.934830	-5.147101	-1.781600
H	-5.246157	-5.148785	-0.020360
C	4.829716	-2.587487	0.851649
H	5.462742	-3.483329	0.962191
H	4.863242	-1.964972	1.765865
H	5.173521	-1.962932	0.005383
H	0.070208	-7.822318	0.010555
C	0.000000	0.000000	0.000000
S	0.137535	0.781156	1.580530
C	0.421895	2.393994	0.904911
C	0.173134	0.982857	-0.985400
C	0.402294	2.283058	-0.493528
H	0.132237	0.750786	-2.059934
H	0.555196	3.150621	-1.152593
H	0.574741	3.261310	1.556025
$end

$rem
JOBTYPE		SP
EXCHANGE	HF
CORRELATION	pRIMP2
BASIS		cc-pvtz
METHOD		rimp2
AUX_BASIS	rimp2-cc-pvtz
SOLVENT_METHOD	PCM
PURECART	11111
SYMMETRY	false
MEM_TOTAL	110000
SCF_CONVERGENCE = 6
THRESH=10
GUI = 2
$end

$solvent
dielectric 4.90
$end
--------------------------------------------------------------

             Standard Nuclear Orientation (Angstroms)
    I     Atom           X                Y                Z
 ----------------------------------------------------------------
    1      C       0.2532800000    -6.7414040000     0.0431600000
    2      C       1.5392130000    -6.1556380000     0.2697770000
    3      C      -0.8142950000    -5.7914520000    -0.1455430000
    4      C       1.8135190000    -4.8037860000     0.3183770000
    5      H       2.4039410000    -6.8215180000     0.4220580000
    6      C      -0.5271400000    -4.3786380000    -0.0941940000
    7      C       0.7830720000    -3.8380320000     0.1371910000
    8      C      -1.5564030000    -3.4130620000    -0.2751040000
    9      C       1.0679320000    -2.4264730000     0.1881160000
   10      C      -1.2854200000    -2.0593480000    -0.2267010000
   11      C       0.0000000000    -1.4782160000     0.0000000000
   12      H      -2.1511470000    -1.3947830000    -0.3789310000
   13      C      -2.2345820000    -6.1879870000    -0.3978450000
   14      C      -2.9652730000    -3.7981640000    -0.5236370000
   15      N      -3.2047440000    -5.1700030000    -0.5675860000
   16      C       3.2262570000    -4.4249870000     0.5674210000
   17      C       2.4894460000    -2.0366270000     0.4395410000
   18      N       3.4598010000    -3.0491560000     0.6096500000
   19      O      -2.6194680000    -7.3531310000    -0.4686080000
   20      O      -3.8746680000    -2.9868540000    -0.6830340000
   21      O       4.1248060000    -5.2489460000     0.7251310000
   22      O       2.8958190000    -0.8788290000     0.5126480000
   23      C      -4.5956910000    -5.5637990000    -0.8139080000
   24      H      -4.6400220000    -6.6640850000    -0.8228910000
   25      H      -4.9348300000    -5.1471010000    -1.7816000000
   26      H      -5.2461570000    -5.1487850000    -0.0203600000
   27      C       4.8297160000    -2.5874870000     0.8516490000
   28      H       5.4627420000    -3.4833290000     0.9621910000
   29      H       4.8632420000    -1.9649720000     1.7658650000
   30      H       5.1735210000    -1.9629320000     0.0053830000
   31      H       0.0702080000    -7.8223180000     0.0105550000
   32      C       0.0000000000     0.0000000000     0.0000000000
   33      S       0.1375350000     0.7811560000     1.5805300000
   34      C       0.4218950000     2.3939940000     0.9049110000
   35      C       0.1731340000     0.9828570000    -0.9854000000
   36      C       0.4022940000     2.2830580000    -0.4935280000
   37      H       0.1322370000     0.7507860000    -2.0599340000
   38      H       0.5551960000     3.1506210000    -1.1525930000
   39      H       0.5747410000     3.2613100000     1.5560250000
 ----------------------------------------------------------------

   10   -1570.6876545550      7.08e-07  Convergence criterion met
 Total energy in the final basis set =    -1570.6876545550
        RIMP2         total energy =     -1575.3121377766 a.u.

                    Orbital Energies (a.u.)
 --------------------------------------------------------------

 Alpha MOs
 -- Occupied --
-91.9898 -20.5588 -20.5569 -20.5564 -20.5556 -15.6315 -15.6312 -11.4005
-11.3970 -11.3932 -11.3907 -11.3155 -11.3085 -11.3034 -11.3018 -11.3000
-11.2996 -11.2915 -11.2875 -11.2862 -11.2812 -11.2810 -11.2784 -11.2647
-11.2647 -11.2559 -11.2493  -8.9891  -6.6699  -6.6694  -6.6688  -1.4251
 -1.4244  -1.4044  -1.4035  -1.2679  -1.2656  -1.2184  -1.1739  -1.1445
 -1.1184  -1.0634  -1.0507  -0.9935  -0.9891  -0.9821  -0.9596  -0.9490
 -0.8976  -0.8802  -0.8779  -0.8618  -0.7954  -0.7777  -0.7735  -0.7594
 -0.7366  -0.7194  -0.7054  -0.6955  -0.6810  -0.6732  -0.6667  -0.6625
 -0.6575  -0.6428  -0.6380  -0.6344  -0.6306  -0.6129  -0.5855  -0.5847
 -0.5782  -0.5726  -0.5663  -0.5644  -0.5626  -0.5554  -0.5532  -0.5487
 -0.5351  -0.5268  -0.5202  -0.5144  -0.4834  -0.4709  -0.4663  -0.4607
 -0.4587  -0.4535  -0.4286  -0.4184  -0.4092  -0.3528  -0.3518  -0.3341
 -0.3235

          Ground-State Mulliken Net Atomic Charges

     Atom                 Charge (a.u.)
  ----------------------------------------
      1 C                    -0.128993
      2 C                    -0.107712
      3 C                    -0.044199
      4 C                    -0.000623
      5 H                     0.188971
      6 C                    -0.003619
      7 C                     0.071063
      8 C                     0.006744
      9 C                    -0.003097
     10 C                    -0.129894
     11 C                     0.065783
     12 H                     0.179926
     13 C                     0.361195
     14 C                     0.369870
     15 N                    -0.101898
     16 C                     0.359264
     17 C                     0.364472
     18 N                    -0.096565
     19 O                    -0.464708
     20 O                    -0.476277
     21 O                    -0.479662
     22 O                    -0.456932
     23 C                    -0.200962
     24 H                     0.141101
     25 H                     0.112342
     26 H                     0.112639
     27 C                    -0.196071
     28 H                     0.133671
     29 H                     0.113516
     30 H                     0.113178
     31 H                     0.214832
     32 C                    -0.052792
     33 S                     0.035139
     34 C                    -0.208987
     35 C                    -0.181288
     36 C                    -0.200251
     37 H                     0.189108
     38 H                     0.191050
     39 H                     0.210665
  ----------------------------------------
  Sum of atomic charges =     0.000000

                    Cartesian Multipole Moments
 -----------------------------------------------------------------
    Charge (ESU x 10^10)
                 0.0000
    Dipole Moment (Debye)
         X       0.5032      Y       0.6783      Z      -0.8956
       Tot       1.2310
    Quadrupole Moments (Debye-Ang)
        XX    -183.3865     XY       0.8275     YY    -163.8821
        XZ      -3.1941     YZ       0.4238     ZZ    -158.1395

 Total job time:  296.05s(wall), 8600.89s(cpu)
        *  Thank you very much for using Q-Chem.  Have a nice day.  *
