 Q-Chem 5.4, Q-Chem, Inc., Pleasanton, CA (2021)
 Q-Chem 5.4.0 for Intel X86 EM64T Linux

User input:
--------------------------------------------------------------
$molecule
0 1
C	0.089263	-6.741404	0.240927
C	0.535973	-6.155638	1.467886
C	-0.281103	-5.791452	-0.777972
C	0.631036	-4.803786	1.729742
H	0.836458	-6.821518	2.292903
C	-0.181995	-4.378638	-0.503614
C	0.272725	-3.838032	0.746756
C	-0.539954	-3.413062	-1.485437
C	0.371053	-2.426473	1.018915
C	-0.446381	-2.059348	-1.226557
C	0.000000	-1.478216	0.000000
H	-0.747410	-1.394783	-2.052413
C	-0.772747	-6.187987	-2.134128
C	-1.029154	-3.798164	-2.829820
N	-1.110828	-5.170003	-3.059182
C	1.121728	-4.424987	3.077731
C	0.864069	-2.036627	2.375694
N	1.201928	-3.049156	3.301101
O	-0.903908	-7.353131	-2.502830
O	-1.345809	-2.986854	-3.697078
O	1.434422	-5.248946	3.934752
O	1.003943	-0.878829	2.764177
C	-1.592981	-5.563799	-4.386939
H	-1.607367	-6.664085	-4.429822
H	-0.924504	-5.147101	-5.164489
H	-2.605446	-5.148785	-4.553486
C	1.677308	-2.587487	4.608481
H	1.898089	-3.483329	5.211969
H	0.902337	-1.964972	5.094624
H	2.582098	-1.962932	4.483092
H	0.025963	-7.822318	0.066080
C	0.000000	0.000000	0.000000
S	0.205093	0.766196	1.580530
C	0.628939	2.348114	0.904911
C	0.258137	0.964028	-0.985400
C	0.599745	2.239309	-0.493528
H	0.197169	0.736404	-2.059934
H	0.827678	3.090243	-1.152593
H	0.856796	3.198808	1.556025
$end

$rem
JOBTYPE		SP
EXCHANGE	HF
CORRELATION	pRIMP2
BASIS		cc-pvtz
METHOD		rimp2
AUX_BASIS	rimp2-cc-pvtz
SOLVENT_METHOD	PCM
PURECART	11111
SYMMETRY	false
MEM_TOTAL	110000
SCF_CONVERGENCE = 6
THRESH=10
GUI = 2
$end

$solvent
dielectric 4.90
$end
--------------------------------------------------------------

             Standard Nuclear Orientation (Angstroms)
    I     Atom           X                Y                Z
 ----------------------------------------------------------------
    1      C       0.0892630000    -6.7414040000     0.2409270000
    2      C       0.5359730000    -6.1556380000     1.4678860000
    3      C      -0.2811030000    -5.7914520000    -0.7779720000
    4      C       0.6310360000    -4.8037860000     1.7297420000
    5      H       0.8364580000    -6.8215180000     2.2929030000
    6      C      -0.1819950000    -4.3786380000    -0.5036140000
    7      C       0.2727250000    -3.8380320000     0.7467560000
    8      C      -0.5399540000    -3.4130620000    -1.4854370000
    9      C       0.3710530000    -2.4264730000     1.0189150000
   10      C      -0.4463810000    -2.0593480000    -1.2265570000
   11      C       0.0000000000    -1.4782160000     0.0000000000
   12      H      -0.7474100000    -1.3947830000    -2.0524130000
   13      C      -0.7727470000    -6.1879870000    -2.1341280000
   14      C      -1.0291540000    -3.7981640000    -2.8298200000
   15      N      -1.1108280000    -5.1700030000    -3.0591820000
   16      C       1.1217280000    -4.4249870000     3.0777310000
   17      C       0.8640690000    -2.0366270000     2.3756940000
   18      N       1.2019280000    -3.0491560000     3.3011010000
   19      O      -0.9039080000    -7.3531310000    -2.5028300000
   20      O      -1.3458090000    -2.9868540000    -3.6970780000
   21      O       1.4344220000    -5.2489460000     3.9347520000
   22      O       1.0039430000    -0.8788290000     2.7641770000
   23      C      -1.5929810000    -5.5637990000    -4.3869390000
   24      H      -1.6073670000    -6.6640850000    -4.4298220000
   25      H      -0.9245040000    -5.1471010000    -5.1644890000
   26      H      -2.6054460000    -5.1487850000    -4.5534860000
   27      C       1.6773080000    -2.5874870000     4.6084810000
   28      H       1.8980890000    -3.4833290000     5.2119690000
   29      H       0.9023370000    -1.9649720000     5.0946240000
   30      H       2.5820980000    -1.9629320000     4.4830920000
   31      H       0.0259630000    -7.8223180000     0.0660800000
   32      C       0.0000000000     0.0000000000     0.0000000000
   33      S       0.2050930000     0.7661960000     1.5805300000
   34      C       0.6289390000     2.3481140000     0.9049110000
   35      C       0.2581370000     0.9640280000    -0.9854000000
   36      C       0.5997450000     2.2393090000    -0.4935280000
   37      H       0.1971690000     0.7364040000    -2.0599340000
   38      H       0.8276780000     3.0902430000    -1.1525930000
   39      H       0.8567960000     3.1988080000     1.5560250000
 ----------------------------------------------------------------

   10   -1570.6384227188      9.14e-07  Convergence criterion met
 Total energy in the final basis set =    -1570.6384227188
        RIMP2         total energy =     -1575.2797645213 a.u.

                    Orbital Energies (a.u.)
 --------------------------------------------------------------

 Alpha MOs
 -- Occupied --
-91.9792 -20.5590 -20.5569 -20.5564 -20.5545 -15.6325 -15.6316 -11.4008
-11.4002 -11.3921 -11.3912 -11.3210 -11.3026 -11.3014 -11.2994 -11.2954
-11.2939 -11.2876 -11.2860 -11.2835 -11.2794 -11.2780 -11.2734 -11.2658
-11.2648 -11.2585 -11.2399  -8.9790  -6.6594  -6.6582  -6.6574  -1.4332
 -1.4253  -1.4078  -1.4047  -1.2700  -1.2667  -1.2171  -1.1714  -1.1421
 -1.1168  -1.0614  -1.0497  -0.9934  -0.9891  -0.9801  -0.9596  -0.9468
 -0.8977  -0.8806  -0.8778  -0.8635  -0.7931  -0.7784  -0.7769  -0.7586
 -0.7322  -0.7267  -0.7027  -0.6927  -0.6890  -0.6741  -0.6681  -0.6634
 -0.6575  -0.6407  -0.6396  -0.6367  -0.6277  -0.6145  -0.5845  -0.5820
 -0.5808  -0.5747  -0.5699  -0.5651  -0.5622  -0.5564  -0.5562  -0.5494
 -0.5334  -0.5234  -0.5229  -0.5188  -0.4870  -0.4713  -0.4688  -0.4637
 -0.4570  -0.4334  -0.4214  -0.4105  -0.4047  -0.3736  -0.3376  -0.3230
 -0.2961

          Ground-State Mulliken Net Atomic Charges

     Atom                 Charge (a.u.)
  ----------------------------------------
      1 C                    -0.146803
      2 C                    -0.109986
      3 C                    -0.031449
      4 C                    -0.005234
      5 H                     0.188112
      6 C                    -0.002682
      7 C                     0.085561
      8 C                     0.001469
      9 C                    -0.097540
     10 C                    -0.146813
     11 C                     0.093916
     12 H                     0.183348
     13 C                     0.360139
     14 C                     0.365633
     15 N                    -0.101783
     16 C                     0.359705
     17 C                     0.400067
     18 N                    -0.093899
     19 O                    -0.463737
     20 O                    -0.476294
     21 O                    -0.481896
     22 O                    -0.443208
     23 C                    -0.201033
     24 H                     0.141186
     25 H                     0.112395
     26 H                     0.112473
     27 C                    -0.198811
     28 H                     0.135062
     29 H                     0.113641
     30 H                     0.113551
     31 H                     0.212588
     32 C                    -0.053756
     33 S                     0.095173
     34 C                    -0.206759
     35 C                    -0.138866
     36 C                    -0.251709
     37 H                     0.187042
     38 H                     0.183972
     39 H                     0.207223
  ----------------------------------------
  Sum of atomic charges =     0.000000

                    Cartesian Multipole Moments
 -----------------------------------------------------------------
    Charge (ESU x 10^10)
                 0.0000
    Dipole Moment (Debye)
         X       0.7979      Y       0.9949      Z       0.0725
       Tot       1.2774
    Quadrupole Moments (Debye-Ang)
        XX    -165.5703     XY       2.5051     YY    -170.8821
        XZ      -5.2064     YZ       0.4911     ZZ    -173.3004

 Total job time:  272.97s(wall), 7860.41s(cpu)
        *  Thank you very much for using Q-Chem.  Have a nice day.  *
