 Q-Chem 5.4, Q-Chem, Inc., Pleasanton, CA (2021)
 Q-Chem 5.4.0 for Intel X86 EM64T Linux

User input:
--------------------------------------------------------------
$molecule
0 1
C	0.252767	-6.741404	-0.046070
C	1.538656	-6.155638	-0.272935
C	-0.814966	-5.791452	0.141739
C	1.813042	-4.803786	-0.321083
H	2.403318	-6.821518	-0.425592
C	-0.527566	-4.378638	0.091779
C	0.782769	-3.838032	-0.138909
C	-1.556632	-3.413062	0.273808
C	1.067868	-2.426473	-0.188483
C	-1.285436	-2.059348	0.226610
C	0.000000	-1.478216	0.000000
H	-2.151019	-1.394783	0.379657
C	-2.235891	-6.187987	0.390420
C	-2.965540	-3.798164	0.522125
N	-3.205600	-5.170003	0.562731
C	3.225760	-4.424987	-0.570244
C	2.489646	-2.036627	-0.438407
N	3.459662	-3.049156	-0.610438
O	-2.621768	-7.353131	0.455563
O	-3.874608	-2.986854	0.683373
O	4.124059	-5.248946	-0.729367
O	2.896516	-0.878829	-0.508697
C	-4.596910	-5.563799	0.806996
H	-4.641640	-6.664085	0.813717
H	-5.246567	-5.147101	0.013655
H	-4.936739	-5.148785	1.775159
C	4.829729	-2.587487	-0.851572
H	5.462387	-3.483329	-0.964204
H	5.173914	-1.964972	-0.003956
H	4.863360	-1.962932	-1.764390
H	0.069584	-7.822318	-0.014094
C	0.000000	0.000000	0.000000
S	0.068929	0.790170	1.580530
C	0.211639	2.421655	0.904911
C	0.086813	0.994207	-0.985400
C	0.201782	2.309433	-0.493528
H	0.066299	0.759454	-2.059934
H	0.278488	3.187020	-1.152593
H	0.288312	3.298992	1.556025
$end

$rem
JOBTYPE		SP
EXCHANGE	HF
CORRELATION	pRIMP2
BASIS		cc-pvtz
METHOD		rimp2
AUX_BASIS	rimp2-cc-pvtz
SOLVENT_METHOD	PCM
PURECART	11111
SYMMETRY	false
MEM_TOTAL	110000
SCF_CONVERGENCE = 6
THRESH=10
GUI = 2
$end

$solvent
dielectric 4.90
$end
--------------------------------------------------------------

             Standard Nuclear Orientation (Angstroms)
    I     Atom           X                Y                Z
 ----------------------------------------------------------------
    1      C       0.2527670000    -6.7414040000    -0.0460700000
    2      C       1.5386560000    -6.1556380000    -0.2729350000
    3      C      -0.8149660000    -5.7914520000     0.1417390000
    4      C       1.8130420000    -4.8037860000    -0.3210830000
    5      H       2.4033180000    -6.8215180000    -0.4255920000
    6      C      -0.5275660000    -4.3786380000     0.0917790000
    7      C       0.7827690000    -3.8380320000    -0.1389090000
    8      C      -1.5566320000    -3.4130620000     0.2738080000
    9      C       1.0678680000    -2.4264730000    -0.1884830000
   10      C      -1.2854360000    -2.0593480000     0.2266100000
   11      C       0.0000000000    -1.4782160000     0.0000000000
   12      H      -2.1510190000    -1.3947830000     0.3796570000
   13      C      -2.2358910000    -6.1879870000     0.3904200000
   14      C      -2.9655400000    -3.7981640000     0.5221250000
   15      N      -3.2056000000    -5.1700030000     0.5627310000
   16      C       3.2257600000    -4.4249870000    -0.5702440000
   17      C       2.4896460000    -2.0366270000    -0.4384070000
   18      N       3.4596620000    -3.0491560000    -0.6104380000
   19      O      -2.6217680000    -7.3531310000     0.4555630000
   20      O      -3.8746080000    -2.9868540000     0.6833730000
   21      O       4.1240590000    -5.2489460000    -0.7293670000
   22      O       2.8965160000    -0.8788290000    -0.5086970000
   23      C      -4.5969100000    -5.5637990000     0.8069960000
   24      H      -4.6416400000    -6.6640850000     0.8137170000
   25      H      -5.2465670000    -5.1471010000     0.0136550000
   26      H      -4.9367390000    -5.1487850000     1.7751590000
   27      C       4.8297290000    -2.5874870000    -0.8515720000
   28      H       5.4623870000    -3.4833290000    -0.9642040000
   29      H       5.1739140000    -1.9649720000    -0.0039560000
   30      H       4.8633600000    -1.9629320000    -1.7643900000
   31      H       0.0695840000    -7.8223180000    -0.0140940000
   32      C       0.0000000000     0.0000000000     0.0000000000
   33      S       0.0689290000     0.7901700000     1.5805300000
   34      C       0.2116390000     2.4216550000     0.9049110000
   35      C       0.0868130000     0.9942070000    -0.9854000000
   36      C       0.2017820000     2.3094330000    -0.4935280000
   37      H       0.0662990000     0.7594540000    -2.0599340000
   38      H       0.2784880000     3.1870200000    -1.1525930000
   39      H       0.2883120000     3.2989920000     1.5560250000
 ----------------------------------------------------------------

   10   -1570.6898735042      7.04e-07  Convergence criterion met
 Total energy in the final basis set =    -1570.6898735042
        RIMP2         total energy =     -1575.3134065452 a.u.

                    Orbital Energies (a.u.)
 --------------------------------------------------------------

 Alpha MOs
 -- Occupied --
-91.9925 -20.5589 -20.5573 -20.5564 -20.5559 -15.6315 -15.6315 -11.4006
-11.3975 -11.3934 -11.3908 -11.3158 -11.3086 -11.3035 -11.3018 -11.3002
-11.2997 -11.2925 -11.2876 -11.2865 -11.2813 -11.2807 -11.2790 -11.2649
-11.2647 -11.2543 -11.2499  -8.9917  -6.6725  -6.6720  -6.6714  -1.4252
 -1.4246  -1.4044  -1.4037  -1.2680  -1.2657  -1.2185  -1.1743  -1.1448
 -1.1186  -1.0638  -1.0509  -0.9936  -0.9895  -0.9825  -0.9597  -0.9490
 -0.8978  -0.8802  -0.8783  -0.8618  -0.7960  -0.7779  -0.7735  -0.7591
 -0.7379  -0.7191  -0.7055  -0.6956  -0.6810  -0.6731  -0.6668  -0.6626
 -0.6575  -0.6429  -0.6381  -0.6345  -0.6308  -0.6129  -0.5858  -0.5848
 -0.5783  -0.5730  -0.5663  -0.5645  -0.5615  -0.5555  -0.5529  -0.5489
 -0.5353  -0.5271  -0.5190  -0.5181  -0.4838  -0.4710  -0.4668  -0.4610
 -0.4605  -0.4539  -0.4287  -0.4185  -0.4093  -0.3547  -0.3523  -0.3343
 -0.3226

          Ground-State Mulliken Net Atomic Charges

     Atom                 Charge (a.u.)
  ----------------------------------------
      1 C                    -0.129109
      2 C                    -0.107288
      3 C                    -0.044021
      4 C                    -0.000757
      5 H                     0.188999
      6 C                    -0.004951
      7 C                     0.072457
      8 C                     0.004722
      9 C                    -0.004813
     10 C                    -0.129315
     11 C                     0.066043
     12 H                     0.182308
     13 C                     0.361255
     14 C                     0.370294
     15 N                    -0.101963
     16 C                     0.359811
     17 C                     0.356911
     18 N                    -0.096728
     19 O                    -0.464692
     20 O                    -0.476259
     21 O                    -0.479416
     22 O                    -0.456331
     23 C                    -0.200941
     24 H                     0.141088
     25 H                     0.112457
     26 H                     0.112603
     27 C                    -0.195887
     28 H                     0.133754
     29 H                     0.113782
     30 H                     0.112961
     31 H                     0.214863
     32 C                    -0.053184
     33 S                     0.031809
     34 C                    -0.211684
     35 C                    -0.165701
     36 C                    -0.202980
     37 H                     0.187766
     38 H                     0.190946
     39 H                     0.211190
  ----------------------------------------
  Sum of atomic charges =     0.000000

                    Cartesian Multipole Moments
 -----------------------------------------------------------------
    Charge (ESU x 10^10)
                 0.0000
    Dipole Moment (Debye)
         X       0.2801      Y       0.6737      Z      -0.9724
       Tot       1.2157
    Quadrupole Moments (Debye-Ang)
        XX    -183.5906     XY      -0.2043     YY    -163.3928
        XZ       3.5093     YZ       0.8483     ZZ    -158.1431

 Total job time:  256.37s(wall), 7892.55s(cpu)
        *  Thank you very much for using Q-Chem.  Have a nice day.  *
