 Q-Chem 5.4, Q-Chem, Inc., Pleasanton, CA (2021)
 Q-Chem 5.4.0 for Intel X86 EM64T Linux

User input:
--------------------------------------------------------------
$molecule
0 1
C	-0.223244	-6.741404	-0.127184
C	-1.354118	-6.155638	-0.779949
C	0.715408	-5.791452	0.415271
C	-1.595259	-4.803786	-0.919437
H	-2.114613	-6.821518	-1.218801
C	0.463133	-4.378638	0.268806
C	-0.688925	-3.838032	-0.396744
C	1.368449	-3.413062	0.790835
C	-0.939189	-2.426473	-0.542026
C	1.130363	-2.059348	0.652669
C	-0.000000	-1.478216	-0.000000
H	1.891815	-1.394783	1.091814
C	1.963749	-6.187987	1.138124
C	2.607351	-3.798164	1.506241
N	2.817348	-5.170003	1.629443
C	-2.837621	-4.424987	-1.636646
C	-2.188982	-2.036627	-1.264474
N	-3.042637	-3.049156	-1.756205
O	2.301222	-7.353131	1.336258
O	3.407386	-2.986854	1.967056
O	-3.628041	-5.248946	-2.092167
O	-2.545844	-0.878829	-1.472160
C	4.040164	-5.563799	2.336642
H	4.078749	-6.664085	2.360245
H	4.027880	-5.147101	3.361968
H	4.922811	-5.148785	1.813424
C	-4.247167	-2.587487	-2.452149
H	-4.804209	-3.483329	-2.772531
H	-3.965991	-1.964972	-3.322697
H	-4.859678	-1.962932	-1.774507
H	-0.062364	-7.822318	-0.033931
C	0.000000	0.000000	0.000000
S	0.607475	0.509994	1.580530
C	1.862020	1.562717	0.904911
C	0.764397	0.641624	-0.985400
C	1.775697	1.490335	-0.493528
H	0.583895	0.490135	-2.059934
H	2.450484	2.056643	-1.152593
H	2.536607	2.128872	1.556025
$end

$rem
JOBTYPE		SP
EXCHANGE	HF
CORRELATION	pRIMP2
BASIS		cc-pvtz
METHOD		rimp2
AUX_BASIS	rimp2-cc-pvtz
SOLVENT_METHOD	PCM
PURECART	11111
SYMMETRY	false
MEM_TOTAL	110000
SCF_CONVERGENCE = 6
THRESH=10
GUI = 2
$end

$solvent
dielectric 4.90
$end
--------------------------------------------------------------

             Standard Nuclear Orientation (Angstroms)
    I     Atom           X                Y                Z
 ----------------------------------------------------------------
    1      C      -0.2232440000    -6.7414040000    -0.1271840000
    2      C      -1.3541180000    -6.1556380000    -0.7799490000
    3      C       0.7154080000    -5.7914520000     0.4152710000
    4      C      -1.5952590000    -4.8037860000    -0.9194370000
    5      H      -2.1146130000    -6.8215180000    -1.2188010000
    6      C       0.4631330000    -4.3786380000     0.2688060000
    7      C      -0.6889250000    -3.8380320000    -0.3967440000
    8      C       1.3684490000    -3.4130620000     0.7908350000
    9      C      -0.9391890000    -2.4264730000    -0.5420260000
   10      C       1.1303630000    -2.0593480000     0.6526690000
   11      C       0.0000000000    -1.4782160000     0.0000000000
   12      H       1.8918150000    -1.3947830000     1.0918140000
   13      C       1.9637490000    -6.1879870000     1.1381240000
   14      C       2.6073510000    -3.7981640000     1.5062410000
   15      N       2.8173480000    -5.1700030000     1.6294430000
   16      C      -2.8376210000    -4.4249870000    -1.6366460000
   17      C      -2.1889820000    -2.0366270000    -1.2644740000
   18      N      -3.0426370000    -3.0491560000    -1.7562050000
   19      O       2.3012220000    -7.3531310000     1.3362580000
   20      O       3.4073860000    -2.9868540000     1.9670560000
   21      O      -3.6280410000    -5.2489460000    -2.0921670000
   22      O      -2.5458440000    -0.8788290000    -1.4721600000
   23      C       4.0401640000    -5.5637990000     2.3366420000
   24      H       4.0787490000    -6.6640850000     2.3602450000
   25      H       4.0278800000    -5.1471010000     3.3619680000
   26      H       4.9228110000    -5.1487850000     1.8134240000
   27      C      -4.2471670000    -2.5874870000    -2.4521490000
   28      H      -4.8042090000    -3.4833290000    -2.7725310000
   29      H      -3.9659910000    -1.9649720000    -3.3226970000
   30      H      -4.8596780000    -1.9629320000    -1.7745070000
   31      H      -0.0623640000    -7.8223180000    -0.0339310000
   32      C       0.0000000000     0.0000000000     0.0000000000
   33      S       0.6074750000     0.5099940000     1.5805300000
   34      C       1.8620200000     1.5627170000     0.9049110000
   35      C       0.7643970000     0.6416240000    -0.9854000000
   36      C       1.7756970000     1.4903350000    -0.4935280000
   37      H       0.5838950000     0.4901350000    -2.0599340000
   38      H       2.4504840000     2.0566430000    -1.1525930000
   39      H       2.5366070000     2.1288720000     1.5560250000
 ----------------------------------------------------------------

   10   -1570.6445523655      9.15e-07  Convergence criterion met
 Total energy in the final basis set =    -1570.6445523655
        RIMP2         total energy =     -1575.2803531794 a.u.

                    Orbital Energies (a.u.)
 --------------------------------------------------------------

 Alpha MOs
 -- Occupied --
-91.9914 -20.5575 -20.5550 -20.5538 -20.5532 -15.6302 -15.6289 -11.3989
-11.3937 -11.3906 -11.3892 -11.3165 -11.3004 -11.3000 -11.2972 -11.2960
-11.2942 -11.2940 -11.2828 -11.2825 -11.2808 -11.2775 -11.2737 -11.2731
-11.2641 -11.2636 -11.2558  -8.9919  -6.6726  -6.6719  -6.6716  -1.4238
 -1.4219  -1.4031  -1.4010  -1.2661  -1.2634  -1.2169  -1.1872  -1.1412
 -1.1144  -1.0625  -1.0472  -0.9940  -0.9924  -0.9910  -0.9577  -0.9454
 -0.8955  -0.8772  -0.8747  -0.8571  -0.7955  -0.7780  -0.7720  -0.7635
 -0.7365  -0.7174  -0.7067  -0.6937  -0.6805  -0.6735  -0.6650  -0.6609
 -0.6551  -0.6424  -0.6361  -0.6320  -0.6276  -0.6118  -0.5864  -0.5835
 -0.5794  -0.5779  -0.5675  -0.5628  -0.5606  -0.5547  -0.5523  -0.5472
 -0.5430  -0.5261  -0.5176  -0.4950  -0.4820  -0.4725  -0.4664  -0.4623
 -0.4588  -0.4517  -0.4265  -0.4172  -0.4069  -0.3725  -0.3451  -0.3322
 -0.3144

          Ground-State Mulliken Net Atomic Charges

     Atom                 Charge (a.u.)
  ----------------------------------------
      1 C                    -0.141688
      2 C                    -0.112123
      3 C                    -0.034470
      4 C                     0.001157
      5 H                     0.187616
      6 C                    -0.005294
      7 C                     0.073830
      8 C                     0.002342
      9 C                    -0.044534
     10 C                    -0.130065
     11 C                     0.037170
     12 H                     0.185042
     13 C                     0.358800
     14 C                     0.362640
     15 N                    -0.100933
     16 C                     0.356864
     17 C                     0.364988
     18 N                    -0.096216
     19 O                    -0.465989
     20 O                    -0.479821
     21 O                    -0.482397
     22 O                    -0.465474
     23 C                    -0.201697
     24 H                     0.140981
     25 H                     0.112132
     26 H                     0.111870
     27 C                    -0.197276
     28 H                     0.133307
     29 H                     0.112001
     30 H                     0.113035
     31 H                     0.212589
     32 C                    -0.056747
     33 S                     0.027084
     34 C                    -0.161223
     35 C                    -0.098313
     36 C                    -0.223094
     37 H                     0.194027
     38 H                     0.194399
     39 H                     0.215480
  ----------------------------------------
  Sum of atomic charges =     0.000000

                    Cartesian Multipole Moments
 -----------------------------------------------------------------
    Charge (ESU x 10^10)
                 0.0000
    Dipole Moment (Debye)
         X       2.5556      Y       1.7867      Z      -0.7946
       Tot       3.2179
    Quadrupole Moments (Debye-Ang)
        XX    -172.9597     XY       6.7718     YY    -176.1689
        XZ      -8.5647     YZ       0.7265     ZZ    -162.1013

 Total job time:  259.04s(wall), 7900.16s(cpu)
        *  Thank you very much for using Q-Chem.  Have a nice day.  *
