 Q-Chem 5.4, Q-Chem, Inc., Pleasanton, CA (2021)
 Q-Chem 5.4.0 for Intel X86 EM64T Linux

User input:
--------------------------------------------------------------
$molecule
0 1
C	-0.089263	-6.741404	-0.240927
C	-0.535973	-6.155638	-1.467886
C	0.281103	-5.791452	0.777972
C	-0.631036	-4.803786	-1.729742
H	-0.836458	-6.821518	-2.292903
C	0.181995	-4.378638	0.503614
C	-0.272725	-3.838032	-0.746756
C	0.539954	-3.413062	1.485437
C	-0.371053	-2.426473	-1.018915
C	0.446381	-2.059348	1.226557
C	-0.000000	-1.478216	-0.000000
H	0.747410	-1.394783	2.052413
C	0.772747	-6.187987	2.134128
C	1.029154	-3.798164	2.829820
N	1.110828	-5.170003	3.059182
C	-1.121728	-4.424987	-3.077731
C	-0.864069	-2.036627	-2.375694
N	-1.201928	-3.049156	-3.301101
O	0.903908	-7.353131	2.502830
O	1.345809	-2.986854	3.697078
O	-1.434422	-5.248946	-3.934752
O	-1.003943	-0.878829	-2.764177
C	1.592981	-5.563799	4.386939
H	1.607367	-6.664085	4.429822
H	0.924504	-5.147101	5.164489
H	2.605446	-5.148785	4.553486
C	-1.677308	-2.587487	-4.608481
H	-1.898089	-3.483329	-5.211969
H	-0.902337	-1.964972	-5.094624
H	-2.582098	-1.962932	-4.483092
H	-0.025963	-7.822318	-0.066080
C	0.000000	0.000000	0.000000
S	0.686805	0.396760	1.580530
C	2.105095	1.215640	0.904911
C	0.864201	0.499140	-0.985400
C	2.007514	1.159347	-0.493528
H	0.660136	0.381296	-2.059934
H	2.770388	1.599875	-1.152593
H	2.867745	1.656053	1.556025
$end

$rem
JOBTYPE		SP
EXCHANGE	HF
CORRELATION	pRIMP2
BASIS		cc-pvtz
METHOD		rimp2
AUX_BASIS	rimp2-cc-pvtz
SOLVENT_METHOD	PCM
PURECART	11111
SYMMETRY	false
MEM_TOTAL	110000
SCF_CONVERGENCE = 6
THRESH=10
GUI = 2
$end

$solvent
dielectric 4.90
$end
--------------------------------------------------------------

             Standard Nuclear Orientation (Angstroms)
    I     Atom           X                Y                Z
 ----------------------------------------------------------------
    1      C      -0.0892630000    -6.7414040000    -0.2409270000
    2      C      -0.5359730000    -6.1556380000    -1.4678860000
    3      C       0.2811030000    -5.7914520000     0.7779720000
    4      C      -0.6310360000    -4.8037860000    -1.7297420000
    5      H      -0.8364580000    -6.8215180000    -2.2929030000
    6      C       0.1819950000    -4.3786380000     0.5036140000
    7      C      -0.2727250000    -3.8380320000    -0.7467560000
    8      C       0.5399540000    -3.4130620000     1.4854370000
    9      C      -0.3710530000    -2.4264730000    -1.0189150000
   10      C       0.4463810000    -2.0593480000     1.2265570000
   11      C       0.0000000000    -1.4782160000     0.0000000000
   12      H       0.7474100000    -1.3947830000     2.0524130000
   13      C       0.7727470000    -6.1879870000     2.1341280000
   14      C       1.0291540000    -3.7981640000     2.8298200000
   15      N       1.1108280000    -5.1700030000     3.0591820000
   16      C      -1.1217280000    -4.4249870000    -3.0777310000
   17      C      -0.8640690000    -2.0366270000    -2.3756940000
   18      N      -1.2019280000    -3.0491560000    -3.3011010000
   19      O       0.9039080000    -7.3531310000     2.5028300000
   20      O       1.3458090000    -2.9868540000     3.6970780000
   21      O      -1.4344220000    -5.2489460000    -3.9347520000
   22      O      -1.0039430000    -0.8788290000    -2.7641770000
   23      C       1.5929810000    -5.5637990000     4.3869390000
   24      H       1.6073670000    -6.6640850000     4.4298220000
   25      H       0.9245040000    -5.1471010000     5.1644890000
   26      H       2.6054460000    -5.1487850000     4.5534860000
   27      C      -1.6773080000    -2.5874870000    -4.6084810000
   28      H      -1.8980890000    -3.4833290000    -5.2119690000
   29      H      -0.9023370000    -1.9649720000    -5.0946240000
   30      H      -2.5820980000    -1.9629320000    -4.4830920000
   31      H      -0.0259630000    -7.8223180000    -0.0660800000
   32      C       0.0000000000     0.0000000000     0.0000000000
   33      S       0.6868050000     0.3967600000     1.5805300000
   34      C       2.1050950000     1.2156400000     0.9049110000
   35      C       0.8642010000     0.4991400000    -0.9854000000
   36      C       2.0075140000     1.1593470000    -0.4935280000
   37      H       0.6601360000     0.3812960000    -2.0599340000
   38      H       2.7703880000     1.5998750000    -1.1525930000
   39      H       2.8677450000     1.6560530000     1.5560250000
 ----------------------------------------------------------------

   11   -1570.5954087655      5.02e-07  Convergence criterion met
 Total energy in the final basis set =    -1570.5954087655
        RIMP2         total energy =     -1575.2397888022 a.u.

                    Orbital Energies (a.u.)
 --------------------------------------------------------------

 Alpha MOs
 -- Occupied --
-91.9919 -20.5575 -20.5558 -20.5512 -20.5499 -15.6300 -15.6267 -11.3983
-11.3907 -11.3892 -11.3878 -11.3196 -11.3148 -11.2992 -11.2958 -11.2883
-11.2876 -11.2847 -11.2833 -11.2828 -11.2779 -11.2759 -11.2739 -11.2640
-11.2628 -11.2605 -11.2543  -8.9943  -6.6749  -6.6739  -6.6737  -1.4238
 -1.4205  -1.4032  -1.3995  -1.2656  -1.2617  -1.2183  -1.1925  -1.1392
 -1.1115  -1.0636  -1.0464  -1.0038  -0.9930  -0.9894  -0.9564  -0.9431
 -0.8942  -0.8763  -0.8742  -0.8565  -0.8010  -0.7807  -0.7699  -0.7657
 -0.7329  -0.7223  -0.7022  -0.6940  -0.6789  -0.6738  -0.6644  -0.6599
 -0.6536  -0.6442  -0.6338  -0.6312  -0.6248  -0.6121  -0.5930  -0.5881
 -0.5818  -0.5791  -0.5675  -0.5619  -0.5610  -0.5555  -0.5514  -0.5467
 -0.5409  -0.5240  -0.5229  -0.4946  -0.4806  -0.4653  -0.4598  -0.4582
 -0.4553  -0.4496  -0.4258  -0.4169  -0.4071  -0.3757  -0.3464  -0.3320
 -0.3010

          Ground-State Mulliken Net Atomic Charges

     Atom                 Charge (a.u.)
  ----------------------------------------
      1 C                    -0.159013
      2 C                    -0.108684
      3 C                    -0.021394
      4 C                    -0.005686
      5 H                     0.186795
      6 C                    -0.022738
      7 C                     0.067809
      8 C                     0.087636
      9 C                    -0.095655
     10 C                    -0.208381
     11 C                     0.063039
     12 H                     0.188011
     13 C                     0.357134
     14 C                     0.364150
     15 N                    -0.100423
     16 C                     0.354790
     17 C                     0.374524
     18 N                    -0.093593
     19 O                    -0.464771
     20 O                    -0.480478
     21 O                    -0.487758
     22 O                    -0.488850
     23 C                    -0.201650
     24 H                     0.140998
     25 H                     0.112171
     26 H                     0.111603
     27 C                    -0.198478
     28 H                     0.133330
     29 H                     0.110717
     30 H                     0.112367
     31 H                     0.210414
     32 C                    -0.104028
     33 S                     0.042858
     34 C                    -0.118443
     35 C                    -0.036614
     36 C                    -0.264423
     37 H                     0.225919
     38 H                     0.195056
     39 H                     0.221737
  ----------------------------------------
  Sum of atomic charges =     0.000000

                    Cartesian Multipole Moments
 -----------------------------------------------------------------
    Charge (ESU x 10^10)
                 0.0000
    Dipole Moment (Debye)
         X       3.5729      Y       2.7289      Z      -0.0177
       Tot       4.4958
    Quadrupole Moments (Debye-Ang)
        XX    -156.2431     XY       5.3793     YY    -183.3239
        XZ      -5.9898     YZ      -1.0758     ZZ    -176.2640

 Total job time:  276.14s(wall), 8487.10s(cpu)
        *  Thank you very much for using Q-Chem.  Have a nice day.  *
