 Q-Chem 5.4, Q-Chem, Inc., Pleasanton, CA (2021)
 Q-Chem 5.4.0 for Intel X86 EM64T Linux

User input:
--------------------------------------------------------------
$molecule
0 1
C	0.256927	-6.741404	-0.001478
C	1.562675	-6.155638	-0.001603
C	-0.827197	-5.791452	-0.001931
C	1.841253	-4.803786	-0.001374
H	2.440709	-6.821518	-0.001794
C	-0.535488	-4.378638	-0.001227
C	0.794999	-3.838032	-0.000872
C	-1.580529	-3.413062	-0.000658
C	1.084374	-2.426473	-0.000186
C	-1.305258	-2.059348	-0.000046
C	-0.000000	-1.478216	-0.000000
H	-2.184267	-1.394783	0.000369
C	-2.269719	-6.187987	-0.003770
C	-3.011152	-3.798164	-0.000767
N	-3.254617	-5.170003	-0.002465
C	3.275775	-4.424987	-0.001433
C	2.527951	-2.036627	0.000576
N	3.513104	-3.049156	-0.000400
O	-2.661046	-7.353131	-0.006623
O	-3.934410	-2.986854	0.000172
O	4.188059	-5.248946	-0.002151
O	2.940845	-0.878829	0.002006
C	-4.667206	-5.563799	-0.003509
H	-4.712423	-6.664085	-0.004658
H	-5.169231	-5.147101	-0.897610
H	-5.169992	-5.148785	0.890935
C	4.904229	-2.587487	0.000039
H	5.546833	-3.483329	-0.001022
H	5.095998	-1.964972	0.894545
H	5.095858	-1.962932	-0.893071
H	0.070974	-7.822318	-0.001797
C	0.000000	0.000000	0.000000
S	0.271091	0.745405	1.580530
C	0.831198	2.284363	0.904911
C	0.341175	0.937861	-0.985400
C	0.792631	2.178516	-0.493528
H	0.260601	0.716417	-2.059934
H	1.093860	3.006347	-1.152593
H	1.132330	3.111961	1.556025
$end

$rem
JOBTYPE		SP
EXCHANGE	HF
CORRELATION	pRIMP2
BASIS		cc-pvtz
METHOD		rimp2
AUX_BASIS	rimp2-cc-pvtz
SOLVENT_METHOD	PCM
PURECART	11111
SYMMETRY	false
MEM_TOTAL	110000
SCF_CONVERGENCE = 6
THRESH=10
GUI = 2
$end

$solvent
dielectric 4.90
$end
--------------------------------------------------------------

             Standard Nuclear Orientation (Angstroms)
    I     Atom           X                Y                Z
 ----------------------------------------------------------------
    1      C       0.2569270000    -6.7414040000    -0.0014780000
    2      C       1.5626750000    -6.1556380000    -0.0016030000
    3      C      -0.8271970000    -5.7914520000    -0.0019310000
    4      C       1.8412530000    -4.8037860000    -0.0013740000
    5      H       2.4407090000    -6.8215180000    -0.0017940000
    6      C      -0.5354880000    -4.3786380000    -0.0012270000
    7      C       0.7949990000    -3.8380320000    -0.0008720000
    8      C      -1.5805290000    -3.4130620000    -0.0006580000
    9      C       1.0843740000    -2.4264730000    -0.0001860000
   10      C      -1.3052580000    -2.0593480000    -0.0000460000
   11      C       0.0000000000    -1.4782160000     0.0000000000
   12      H      -2.1842670000    -1.3947830000     0.0003690000
   13      C      -2.2697190000    -6.1879870000    -0.0037700000
   14      C      -3.0111520000    -3.7981640000    -0.0007670000
   15      N      -3.2546170000    -5.1700030000    -0.0024650000
   16      C       3.2757750000    -4.4249870000    -0.0014330000
   17      C       2.5279510000    -2.0366270000     0.0005760000
   18      N       3.5131040000    -3.0491560000    -0.0004000000
   19      O      -2.6610460000    -7.3531310000    -0.0066230000
   20      O      -3.9344100000    -2.9868540000     0.0001720000
   21      O       4.1880590000    -5.2489460000    -0.0021510000
   22      O       2.9408450000    -0.8788290000     0.0020060000
   23      C      -4.6672060000    -5.5637990000    -0.0035090000
   24      H      -4.7124230000    -6.6640850000    -0.0046580000
   25      H      -5.1692310000    -5.1471010000    -0.8976100000
   26      H      -5.1699920000    -5.1487850000     0.8909350000
   27      C       4.9042290000    -2.5874870000     0.0000390000
   28      H       5.5468330000    -3.4833290000    -0.0010220000
   29      H       5.0959980000    -1.9649720000     0.8945450000
   30      H       5.0958580000    -1.9629320000    -0.8930710000
   31      H       0.0709740000    -7.8223180000    -0.0017970000
   32      C       0.0000000000     0.0000000000     0.0000000000
   33      S       0.2710910000     0.7454050000     1.5805300000
   34      C       0.8311980000     2.2843630000     0.9049110000
   35      C       0.3411750000     0.9378610000    -0.9854000000
   36      C       0.7926310000     2.1785160000    -0.4935280000
   37      H       0.2606010000     0.7164170000    -2.0599340000
   38      H       1.0938600000     3.0063470000    -1.1525930000
   39      H       1.1323300000     3.1119610000     1.5560250000
 ----------------------------------------------------------------

   10   -1570.6823414649      7.52e-07  Convergence criterion met
 Total energy in the final basis set =    -1570.6823414649
        RIMP2         total energy =     -1575.3083654088 a.u.

                    Orbital Energies (a.u.)
 --------------------------------------------------------------

 Alpha MOs
 -- Occupied --
-91.9906 -20.5586 -20.5563 -20.5560 -20.5553 -15.6311 -15.6308 -11.4002
-11.3962 -11.3929 -11.3903 -11.3143 -11.3073 -11.3030 -11.3011 -11.2993
-11.2990 -11.2871 -11.2870 -11.2853 -11.2832 -11.2808 -11.2768 -11.2646
-11.2645 -11.2567 -11.2493  -8.9899  -6.6707  -6.6702  -6.6696  -1.4248
 -1.4239  -1.4041  -1.4030  -1.2675  -1.2652  -1.2177  -1.1740  -1.1440
 -1.1177  -1.0627  -1.0501  -0.9931  -0.9888  -0.9824  -0.9593  -0.9487
 -0.8970  -0.8798  -0.8768  -0.8614  -0.7947  -0.7771  -0.7731  -0.7591
 -0.7368  -0.7188  -0.7053  -0.6952  -0.6802  -0.6723  -0.6663  -0.6622
 -0.6571  -0.6426  -0.6375  -0.6341  -0.6301  -0.6124  -0.5853  -0.5843
 -0.5775  -0.5730  -0.5661  -0.5641  -0.5614  -0.5552  -0.5527  -0.5486
 -0.5356  -0.5268  -0.5202  -0.5117  -0.4828  -0.4707  -0.4655  -0.4603
 -0.4581  -0.4527  -0.4281  -0.4181  -0.4088  -0.3540  -0.3492  -0.3322
 -0.3254

          Ground-State Mulliken Net Atomic Charges

     Atom                 Charge (a.u.)
  ----------------------------------------
      1 C                    -0.129599
      2 C                    -0.107602
      3 C                    -0.044671
      4 C                    -0.000049
      5 H                     0.188788
      6 C                    -0.005929
      7 C                     0.068816
      8 C                     0.014990
      9 C                     0.012658
     10 C                    -0.147299
     11 C                     0.074305
     12 H                     0.179149
     13 C                     0.361140
     14 C                     0.368408
     15 N                    -0.101722
     16 C                     0.358353
     17 C                     0.363044
     18 N                    -0.095641
     19 O                    -0.465011
     20 O                    -0.476109
     21 O                    -0.479963
     22 O                    -0.456707
     23 C                    -0.200989
     24 H                     0.141000
     25 H                     0.112308
     26 H                     0.112530
     27 C                    -0.196463
     28 H                     0.133805
     29 H                     0.113416
     30 H                     0.112682
     31 H                     0.214628
     32 C                    -0.061047
     33 S                     0.031254
     34 C                    -0.205800
     35 C                    -0.181964
     36 C                    -0.194181
     37 H                     0.187462
     38 H                     0.190665
     39 H                     0.211344
  ----------------------------------------
  Sum of atomic charges =     0.000000

                    Cartesian Multipole Moments
 -----------------------------------------------------------------
    Charge (ESU x 10^10)
                 0.0000
    Dipole Moment (Debye)
         X       0.9129      Y       0.8351      Z      -0.9560
       Tot       1.5635
    Quadrupole Moments (Debye-Ang)
        XX    -183.2202     XY       2.6050     YY    -165.3651
        XZ       0.3110     YZ       0.6407     ZZ    -157.4970

 Total job time:  274.23s(wall), 8334.22s(cpu)
        *  Thank you very much for using Q-Chem.  Have a nice day.  *
