 Q-Chem 5.4, Q-Chem, Inc., Pleasanton, CA (2021)
 Q-Chem 5.4.0 for Intel X86 EM64T Linux

User input:
--------------------------------------------------------------
$molecule
0 1
C	0.129743	-6.741404	0.221766
C	0.782726	-6.155638	1.352515
C	-0.411926	-5.791452	-0.717339
C	0.921816	-4.803786	1.593885
H	1.221908	-6.821518	2.112819
C	-0.266682	-4.378638	-0.464360
C	0.398255	-3.838032	0.688053
C	-0.789694	-3.413062	-1.369108
C	0.542349	-2.426473	0.939002
C	-0.652589	-2.059348	-1.130409
C	0.000000	-1.478216	0.000000
H	-1.092453	-1.394783	-1.891446
C	-1.131595	-6.187987	-1.967519
C	-1.504912	-3.798164	-2.608118
N	-1.625174	-5.170003	-2.819813
C	1.639129	-4.424987	2.836188
C	1.263477	-2.036627	2.189558
N	1.756898	-3.049156	3.042237
O	-1.324787	-7.353131	-2.307845
O	-1.967354	-2.986854	-3.407213
O	2.095892	-5.248946	3.625890
O	1.468685	-0.878829	2.547850
C	-2.330564	-5.563799	-4.043674
H	-2.352178	-6.664085	-4.083407
H	-1.807263	-5.147101	-4.925490
H	-3.356568	-5.148785	-4.031877
C	2.452080	-2.587487	4.247206
H	2.774302	-3.483329	4.803187
H	1.773301	-1.964972	4.860536
H	3.321351	-1.962932	3.966607
H	0.037043	-7.822318	0.060567
C	0.000000	0.000000	0.000000
S	0.509686	0.607733	1.580530
C	1.562368	1.862312	0.904911
C	0.641367	0.764613	-0.985400
C	1.489926	1.776040	-0.493528
H	0.489914	0.584081	-2.059934
H	2.056124	2.450920	-1.152593
H	2.128395	2.537007	1.556025
$end

$rem
JOBTYPE		SP
EXCHANGE	HF
CORRELATION	pRIMP2
BASIS		cc-pvtz
METHOD		rimp2
AUX_BASIS	rimp2-cc-pvtz
SOLVENT_METHOD	PCM
PURECART	11111
SYMMETRY	false
MEM_TOTAL	110000
SCF_CONVERGENCE = 6
THRESH=10
GUI = 2
$end

$solvent
dielectric 4.90
$end
--------------------------------------------------------------

             Standard Nuclear Orientation (Angstroms)
    I     Atom           X                Y                Z
 ----------------------------------------------------------------
    1      C       0.1297430000    -6.7414040000     0.2217660000
    2      C       0.7827260000    -6.1556380000     1.3525150000
    3      C      -0.4119260000    -5.7914520000    -0.7173390000
    4      C       0.9218160000    -4.8037860000     1.5938850000
    5      H       1.2219080000    -6.8215180000     2.1128190000
    6      C      -0.2666820000    -4.3786380000    -0.4643600000
    7      C       0.3982550000    -3.8380320000     0.6880530000
    8      C      -0.7896940000    -3.4130620000    -1.3691080000
    9      C       0.5423490000    -2.4264730000     0.9390020000
   10      C      -0.6525890000    -2.0593480000    -1.1304090000
   11      C       0.0000000000    -1.4782160000     0.0000000000
   12      H      -1.0924530000    -1.3947830000    -1.8914460000
   13      C      -1.1315950000    -6.1879870000    -1.9675190000
   14      C      -1.5049120000    -3.7981640000    -2.6081180000
   15      N      -1.6251740000    -5.1700030000    -2.8198130000
   16      C       1.6391290000    -4.4249870000     2.8361880000
   17      C       1.2634770000    -2.0366270000     2.1895580000
   18      N       1.7568980000    -3.0491560000     3.0422370000
   19      O      -1.3247870000    -7.3531310000    -2.3078450000
   20      O      -1.9673540000    -2.9868540000    -3.4072130000
   21      O       2.0958920000    -5.2489460000     3.6258900000
   22      O       1.4686850000    -0.8788290000     2.5478500000
   23      C      -2.3305640000    -5.5637990000    -4.0436740000
   24      H      -2.3521780000    -6.6640850000    -4.0834070000
   25      H      -1.8072630000    -5.1471010000    -4.9254900000
   26      H      -3.3565680000    -5.1487850000    -4.0318770000
   27      C       2.4520800000    -2.5874870000     4.2472060000
   28      H       2.7743020000    -3.4833290000     4.8031870000
   29      H       1.7733010000    -1.9649720000     4.8605360000
   30      H       3.3213510000    -1.9629320000     3.9666070000
   31      H       0.0370430000    -7.8223180000     0.0605670000
   32      C       0.0000000000     0.0000000000     0.0000000000
   33      S       0.5096860000     0.6077330000     1.5805300000
   34      C       1.5623680000     1.8623120000     0.9049110000
   35      C       0.6413670000     0.7646130000    -0.9854000000
   36      C       1.4899260000     1.7760400000    -0.4935280000
   37      H       0.4899140000     0.5840810000    -2.0599340000
   38      H       2.0561240000     2.4509200000    -1.1525930000
   39      H       2.1283950000     2.5370070000     1.5560250000
 ----------------------------------------------------------------

   11   -1570.5719845429      6.47e-07  Convergence criterion met
 Total energy in the final basis set =    -1570.5719845429
        RIMP2         total energy =     -1575.2311199915 a.u.

                    Orbital Energies (a.u.)
 --------------------------------------------------------------

 Alpha MOs
 -- Occupied --
-91.9968 -20.5640 -20.5590 -20.5567 -20.5560 -15.6367 -15.6313 -11.4092
-11.4001 -11.3936 -11.3907 -11.3215 -11.3025 -11.3011 -11.2947 -11.2930
-11.2915 -11.2873 -11.2821 -11.2791 -11.2767 -11.2742 -11.2691 -11.2679
-11.2646 -11.2498 -11.2349  -8.9957  -6.6761  -6.6747  -6.6735  -1.4467
 -1.4251  -1.4114  -1.4044  -1.2750  -1.2667  -1.2165  -1.1726  -1.1406
 -1.1160  -1.0597  -1.0492  -0.9943  -0.9917  -0.9817  -0.9604  -0.9464
 -0.8996  -0.8810  -0.8753  -0.8640  -0.7916  -0.7811  -0.7780  -0.7561
 -0.7366  -0.7294  -0.7033  -0.6921  -0.6892  -0.6742  -0.6708  -0.6638
 -0.6582  -0.6443  -0.6400  -0.6375  -0.6279  -0.6147  -0.5872  -0.5833
 -0.5825  -0.5770  -0.5677  -0.5649  -0.5598  -0.5575  -0.5574  -0.5500
 -0.5358  -0.5275  -0.5214  -0.5171  -0.4832  -0.4712  -0.4678  -0.4632
 -0.4565  -0.4391  -0.4221  -0.4155  -0.4095  -0.3702  -0.3377  -0.2988
 -0.2805

          Ground-State Mulliken Net Atomic Charges

     Atom                 Charge (a.u.)
  ----------------------------------------
      1 C                    -0.155485
      2 C                    -0.106115
      3 C                    -0.026344
      4 C                    -0.010581
      5 H                     0.187696
      6 C                    -0.011738
      7 C                     0.088320
      8 C                     0.002727
      9 C                    -0.136906
     10 C                    -0.152048
     11 C                     0.112384
     12 H                     0.181374
     13 C                     0.360739
     14 C                     0.364018
     15 N                    -0.101576
     16 C                     0.360609
     17 C                     0.436846
     18 N                    -0.089961
     19 O                    -0.463196
     20 O                    -0.475013
     21 O                    -0.479967
     22 O                    -0.418876
     23 C                    -0.201135
     24 H                     0.141088
     25 H                     0.112308
     26 H                     0.112554
     27 C                    -0.198832
     28 H                     0.136210
     29 H                     0.114440
     30 H                     0.114128
     31 H                     0.211566
     32 C                    -0.108085
     33 S                     0.148408
     34 C                    -0.217598
     35 C                    -0.154484
     36 C                    -0.258304
     37 H                     0.188610
     38 H                     0.185698
     39 H                     0.206519
  ----------------------------------------
  Sum of atomic charges =     0.000000

                    Cartesian Multipole Moments
 -----------------------------------------------------------------
    Charge (ESU x 10^10)
                 0.0000
    Dipole Moment (Debye)
         X       2.0679      Y       0.4143      Z       1.1492
       Tot       2.4018
    Quadrupole Moments (Debye-Ang)
        XX    -164.0750     XY       4.4119     YY    -176.2106
        XZ      -5.0889     YZ      -0.0942     ZZ    -168.7596

 Total job time:  270.24s(wall), 8317.47s(cpu)
        *  Thank you very much for using Q-Chem.  Have a nice day.  *
